Control file title. For DL_FIELD 4.10
49456
    1MOL     O1    1   6.317   2.041   2.533 -0.3898  0.1424 -0.1607
    1MOL     C2    2   6.264   1.940   2.497  0.1356  0.6498 -0.4358
    1MOL     O3    3   6.295   1.822   2.559 -0.4291 -0.2469  0.0528
    1MOL     C4    4   6.186   1.928   2.374  0.3109  0.0125 -0.7764
    1MOL     C5    5   6.149   2.043   2.303  0.3890 -0.1344 -0.6870
    1MOL     C6    6   6.073   2.028   2.183 -0.1587 -0.1838  0.2908
    1MOL     C7    7   6.028   2.145   2.114  0.1183  0.3979 -0.1590
    1MOL     C8    8   5.935   2.134   2.009 -0.0963  0.4655 -0.3533
    1MOL     C9    9   5.901   2.009   1.957 -0.1204 -0.0858 -0.3089
    1MOL    C10   10   5.802   2.009   1.848 -0.3719 -0.1074 -0.0408
    1MOL    O11   11   5.770   1.883   1.822 -0.7059 -0.8891  0.0957
    1MOL    C12   12   5.687   1.858   1.708 -0.2874 -0.0262  0.5497
    1MOL    C13   13   5.536   1.863   1.745 -0.0141  0.1303 -0.0184
    1MOL    O14   14   5.768   2.111   1.791 -0.3285 -0.3860 -0.2900
    1MOL    C15   15   5.953   1.892   2.021  0.0436  0.0888  0.4453
    1MOL    C16   16   6.036   1.903   2.136  0.4259 -1.3141 -0.6034
    1MOL    C17   17   6.085   1.788   2.205 -0.4348  0.0778 -0.3290
    1MOL    C18   18   6.159   1.797   2.325  0.2874 -0.1574 -0.2896
    1MOL    H19   19   6.177   2.143   2.332  0.0904 -0.0947 -0.5316
    1MOL    H20   20   6.060   2.243   2.147  0.4850  0.6248 -1.1586
    1MOL    H21   21   5.905   2.223   1.956 -0.3959 -0.1113 -1.1683
    1MOL    H22   22   5.707   1.915   1.617  1.2596 -0.7716  0.4044
    1MOL    H23   23   5.703   1.756   1.672 -1.8796 -0.0132 -0.2623
    1MOL    H24   24   5.524   1.836   1.850  1.2011  0.1274  0.1277
    1MOL    H25   25   5.488   1.960   1.732 -0.1131 -0.1354 -1.8887
    1MOL    H26   26   5.916   1.792   2.000 -2.5310  0.4977  2.7710
    1MOL    H27   27   6.068   1.692   2.160  2.5853  0.1775 -1.8491
    1MOL    H28   28   6.177   1.706   2.381  0.6899 -1.2395 -2.1625
    1MOL    H29   29   6.383   1.835   2.591  0.2014 -1.6908 -1.0384
    1MOL    O30   30   5.273   1.781   1.754 -0.0782  0.1190  0.0848
    1MOL    C31   31   5.355   1.718   1.690 -0.0983 -0.4915  1.0420
    1MOL    O32   32   5.484   1.753   1.663 -0.4928 -0.4283 -0.0461
    1MOL    C33   33   5.311   1.598   1.612 -0.3123 -0.1619 -0.7619
    1MOL    C34   34   5.179   1.557   1.626  0.4981 -0.0228  0.2309
    1MOL    C35   35   5.138   1.445   1.552 -0.1883  0.5102 -0.0657
    1MOL    C36   36   5.010   1.400   1.567 -0.4265 -0.0256  0.5735
    1MOL    C37   37   4.965   1.285   1.496 -0.4046 -0.6160  0.7522
    1MOL    C38   38   5.050   1.215   1.412  0.1323 -0.4250  0.0285
    1MOL    C39   39   5.001   1.092   1.342 -0.7974 -0.1128  0.5667
    1MOL    O40   40   5.094   1.029   1.277 -0.0891 -0.6579  0.0918
    1MOL    C41   41   5.059   0.907   1.213  0.0800  0.0891  0.0801
    1MOL    C42   42   5.013   0.921   1.068  0.6553 -0.4811  0.9580
    1MOL    O43   43   4.885   1.048   1.352  0.0526 -0.4687 -0.1603
    1MOL    C44   44   5.181   1.264   1.393 -0.1155 -0.5304 -0.3614
    1MOL    C45   45   5.228   1.381   1.462  0.4613  0.4012  0.2137
    1MOL    C46   46   5.359   1.429   1.449  0.5076 -0.3640 -0.9193
    1MOL    C47   47   5.402   1.531   1.531 -0.3568 -0.5511 -0.7485
    1MOL    H48   48   5.110   1.614   1.686 -0.9590 -1.7450  0.2671
    1MOL    H49   49   4.947   1.448   1.641  0.6786  1.1121  0.7958
    1MOL    H50   50   4.866   1.247   1.516 -0.4414 -0.1582  1.4761
    1MOL    H51   51   4.981   0.851   1.265 -0.2475 -0.8665 -1.4149
    1MOL    H52   52   5.150   0.848   1.214  1.3602  1.9841 -0.8667
    1MOL    H53   53   4.908   0.948   1.071  0.9015  0.3498  3.9128
    1MOL    H54   54   5.074   0.999   1.020  0.0053 -0.5193  0.0639
    1MOL    H55   55   5.255   1.216   1.330  1.5578  0.7239  0.5715
    1MOL    H56   56   5.428   1.384   1.379  1.8674 -1.4548  1.0566
    1MOL    H57   57   5.506   1.562   1.534 -0.7551  1.3545 -3.7765
    1MOL    O58   58   5.231   0.815   0.945 -0.0110 -0.2485  0.1042
    1MOL    C59   59   5.129   0.754   0.942  0.2684  0.1596 -0.5693
    1MOL    O60   60   5.014   0.797   1.001 -0.0083  0.1223  0.0170
    1MOL    C61   61   5.116   0.623   0.880 -0.1303  0.4562 -0.8063
    1MOL    C62   62   5.230   0.567   0.826 -0.1148 -0.1024  0.1215
    1MOL    C63   63   5.219   0.441   0.757 -0.1422  0.6417 -0.0358
    1MOL    C64   64   5.337   0.377   0.719 -0.2706  0.5916 -0.6346
    1MOL    C65   65   5.333   0.241   0.671  0.7610 -0.5611 -0.4746
    1MOL    C66   66   5.209   0.167   0.675 -0.4347 -0.1027 -0.2461
    1MOL    C67   67   5.206   0.020   0.655  0.5195  0.9650 -0.3412
    1MOL    O68   68   5.082   8.224   0.657  0.8418  0.2142 -0.0628
    1MOL    C69   69   5.068   8.078   0.665 -0.2516 -0.7429 -0.7268
    1MOL    C70   70   4.929   8.036   0.613  0.0895  0.2505 -0.7906
    1MOL    O71   71   5.307   8.200   0.644  0.3614  0.7532  0.2291
    1MOL    C72   72   5.092   0.241   0.714  0.7987  0.2290  0.6458
    1MOL    C73   73   5.098   0.371   0.760 -0.6957 -0.1749 -0.0657
    1MOL    C74   74   4.985   0.429   0.814 -0.0771 -0.4591 -0.2949
    1MOL    C75   75   4.993   0.549   0.881  0.2032 -0.1177  0.6593
    1MOL    H76   76   5.326   0.618   0.826 -0.1633  0.0225  1.6598
    1MOL    H77   77   5.431   0.429   0.707  0.2117 -0.1348 -0.0298
    1MOL    H78   78   5.431   0.206   0.644  0.3804 -1.2071 -1.0111
    1MOL    H79   79   5.075   8.042   0.768 -1.2898 -3.0572 -1.4495
    1MOL    H80   80   5.153   8.029   0.617  1.2450 -1.1249  2.1318
    1MOL    H81   81   4.874   8.130   0.603  1.2955  1.1209  0.4883
    1MOL    H82   82   4.924   7.986   0.516 -0.4460 -0.2881 -0.4868
    1MOL    H83   83   4.997   0.190   0.718  1.2489 -0.8414 -1.3225
    1MOL    H84   84   4.888   0.381   0.818  0.0202 -0.5389  2.8224
    1MOL    H85   85   4.909   0.589   0.936  0.7758 -0.2194  1.6082
    1MOL    O86   86   4.791   8.096   0.847 -0.2212 -0.8625 -0.5488
    1MOL    C87   87   4.795   7.979   0.809 -0.8580 -0.0509 -0.1126
    1MOL    O88   88   4.866   7.947   0.706  0.3118  0.5018  0.0763
    1MOL    C89   89   4.719   7.870   0.875  0.3993 -0.1662  0.5597
    1MOL    C90   90   4.729   7.736   0.835 -0.0115  0.5267  0.1664
    1MOL    C91   91   4.646   7.639   0.902 -0.1970  0.5597  0.0623
    1MOL    C92   92   4.646   7.503   0.851 -0.1453 -0.2060  0.8256
    1MOL    C93   93   4.551   7.417   0.912  0.1759  0.6767 -0.6603
    1MOL    C94   94   4.466   7.456   1.023  0.5580 -0.2303  0.7912
    1MOL    C95   95   4.357   7.373   1.072  0.0881 -0.6439  0.5888
    1MOL    O96   96   4.346   7.392   1.204 -0.4556 -0.0195 -0.4947
    1MOL    C97   97   4.245   7.326   1.278  0.1274  0.2996  0.0831
    1MOL    C98   98   4.296   7.194   1.329  0.1081  0.8741  0.1777
    1MOL    O99   99   4.288   7.299   0.998 -0.2627 -0.5918  0.9915
    1MOL   C100  100   4.481   7.589   1.074 -0.1033 -0.2035  0.3673
    1MOL   C101  101   4.571   7.676   1.013 -0.3769 -0.3490  0.2119
    1MOL   C102  102   4.565   7.808   1.049  0.7015 -0.4839  0.9951
    1MOL   C103  103   4.635   7.904   0.979 -0.5759  0.7468  0.2609
    1MOL   H104  104   4.792   7.708   0.753 -1.4943 -0.6726 -0.5931
    1MOL   H105  105   4.690   7.483   0.755  0.2257  2.0461  0.4821
    1MOL   H106  106   4.531   7.328   0.855 -0.8912  1.5076 -1.6048
    1MOL   H107  107   4.152   7.309   1.224 -1.0322  0.6045  1.9282
    1MOL   H108  108   4.225   7.386   1.367  2.2504  0.0888  0.7263
    1MOL   H109  109   4.200   7.159   1.367 -0.9456  2.5610 -0.8777
    1MOL   H110  110   4.345   7.135   1.252 -0.0968 -1.1978  1.5786
    1MOL   H111  111   4.423   7.617   1.160  1.2528 -2.1026  1.9707
    1MOL   H112  112   4.502   7.849   1.128  1.8565  0.5934  1.3744
    1MOL   H113  113   4.635   8.008   1.008  1.3976  0.8423 -0.0592
    1MOL   O114  114   4.548   7.072   1.383 -0.0184 -0.2477 -0.3912
    1MOL   C115  115   4.501   7.156   1.463  0.2860 -0.2613  1.0406
    1MOL   O116  116   4.380   7.220   1.444  0.7142  0.0517 -0.2434
    1MOL   C117  117   4.564   7.190   1.590 -0.1591 -1.0862  0.3555
    1MOL   C118  118   4.480   7.225   1.698 -0.3228  0.4147 -0.1136
    1MOL   C119  119   4.542   7.257   1.824  0.4086 -0.0846  0.4835
    1MOL   C120  120   4.470   7.286   1.937  0.0650 -0.0223 -0.3606
    1MOL   C121  121   4.538   7.336   2.054 -0.7232  0.4061 -0.4367
    1MOL   C122  122   4.678   7.346   2.057 -0.6570 -0.2162 -0.8040
    1MOL   C123  123   4.740   7.411   2.178 -0.0415 -0.8170 -0.3478
    1MOL   O124  124   4.875   7.402   2.179 -0.3426  0.1629  0.3461
    1MOL   C125  125   4.954   7.457   2.285  0.1816  0.5196 -0.1613
    1MOL   C126  126   5.017   7.587   2.236  0.9135  0.5082  1.3505
    1MOL   O127  127   4.667   7.452   2.275  0.3801  0.6417  0.0604
    1MOL   C128  128   4.747   7.302   1.945  0.3826 -0.0306  0.0015
    1MOL   C129  129   4.685   7.263   1.832  0.5685 -0.5343 -0.1938
    1MOL   C130  130   4.762   7.229   1.723 -0.4317 -0.5592  0.1777
    1MOL   C131  131   4.702   7.195   1.601  0.4817  0.0181 -0.0412
    1MOL   H132  132   4.373   7.226   1.692 -0.4333 -1.0306  1.4623
    1MOL   H133  133   4.362   7.282   1.940  0.1121 -1.0092  0.2393
    1MOL   H134  134   4.477   7.375   2.134 -1.3958  0.2066 -0.8485
    1MOL   H135  135   5.025   7.377   2.306 -0.2278  0.2716  0.2899
    1MOL   H136  136   4.891   7.482   2.370 -0.8114  1.9623 -1.3043
    1MOL   H137  137   5.102   7.574   2.169  1.0588 -1.4188  1.8835
    1MOL   H138  138   4.951   7.651   2.177  3.4052  1.9843  0.0838
    1MOL   H139  139   4.854   7.318   1.945  0.6317 -1.6220 -1.4485
    1MOL   H140  140   4.870   7.233   1.728 -0.3508 -1.6556 -0.6040
    1MOL   H141  141   4.765   7.189   1.513  1.6764 -2.1380  0.9345
    1MOL   O142  142   5.265   7.558   2.372 -0.7400 -0.0546 -0.6448
    1MOL   C143  143   5.179   7.632   2.416 -0.3272  0.1565  0.3099
    1MOL   O144  144   5.058   7.658   2.358  0.5201 -0.2410 -0.6481
    1MOL   C145  145   5.192   7.705   2.549  0.0332  0.0591  0.2356
    1MOL   C146  146   5.321   7.720   2.615  0.5329  0.4965  0.8780
    1MOL   C147  147   5.335   7.793   2.733 -0.0809  0.1117 -0.2132
    1MOL   C148  148   5.458   7.802   2.802 -0.6072  0.6177 -0.4704
    1MOL   C149  149   5.456   7.852   2.935  0.3470 -0.2792  0.9351
    1MOL   C150  150   5.334   7.900   2.990 -0.1814 -0.0526 -0.2865
    1MOL   C151  151   5.330   7.962   3.127 -1.0034 -0.2427  0.0199
    1MOL   O152  152   5.445   7.943   3.192 -0.1220  0.0944 -0.1231
    1MOL   C153  153   5.448   7.978   3.328 -0.2294 -0.7716 -1.0276
    1MOL   C154  154   5.462   8.138   3.338 -0.1703  0.0686 -0.5074
    1MOL   O155  155   5.232   8.015   3.182 -0.9352 -0.7679 -1.3689
    1MOL   C156  156   5.212   7.902   2.916  0.3937 -0.3790 -0.1573
    1MOL   C157  157   5.215   7.851   2.786  0.5232 -0.0778  0.3796
    1MOL   C158  158   5.096   7.848   2.713 -0.1452  0.7598  0.5562
    1MOL   C159  159   5.081   7.782   2.597 -0.1513  0.4133  0.2310
    1MOL   H160  160   5.406   7.669   2.573 -0.4002  0.0267 -0.4600
    1MOL   H161  161   5.552   7.765   2.765 -0.4801 -0.4009  0.8165
    1MOL   H162  162   5.547   7.858   2.993  0.8270 -3.2718  0.5666
    1MOL   H163  163   5.539   7.940   3.376  0.6962  2.6736  0.0643
    1MOL   H164  164   5.354   7.950   3.377  1.0674 -1.3025  1.2403
    1MOL   H165  165   5.549   8.177   3.285  0.8783 -0.7463  0.5826
    1MOL   H166  166   5.373   8.178   3.289 -0.1030 -0.3707 -0.9868
    1MOL   H167  167   5.121   7.949   2.949  0.1242 -2.0246  1.5404
    1MOL   H168  168   5.004   7.894   2.749 -0.9864 -0.7210  0.3460
    1MOL   H169  169   4.983   7.769   2.555 -0.0200 -1.5300  0.4684
    1MOL   O170  170   5.693   8.153   3.488  0.2118  0.0420 -0.7592
    1MOL   C171  171   5.583   8.159   3.542 -0.5408 -0.7659  0.1888
    1MOL   O172  172   5.469   8.167   3.475 -0.3154  0.1339 -0.0338
    1MOL   C173  173   5.561   8.164   3.688 -0.7440  0.2760  0.2235
    1MOL   C174  174   5.667   8.120   3.777 -0.1917  1.0891 -0.3568
    1MOL   C175  175   5.649   8.119   3.920  0.0685  0.1593  0.0944
    1MOL   C176  176   5.750   8.071   4.000  0.4998  0.1306  0.2197
    1MOL   C177  177   5.729   8.060   4.142  0.0237  1.0903  0.1572
    1MOL   C178  178   5.607   8.098   4.196  0.7305 -0.9514 -0.6637
    1MOL   C179  179   5.577   8.086   4.344  0.1023  1.0667  0.2697
    1MOL   O180  180   5.463   8.135   4.370  0.5974  0.6088  0.4491
    1MOL   C181  181   5.396   8.113   4.494  0.0705 -0.6156  0.1954
    1MOL   C182  182   5.303   7.986   4.482 -0.5671 -0.7130 -0.4345
    1MOL   O183  183   5.652   8.031   4.422 -0.6374  0.2474  0.0817
    1MOL   C184  184   5.505   8.151   4.114  0.1577  0.1845  0.1384
    1MOL   C185  185   5.530   8.162   3.977  0.1003  0.1187 -1.1847
    1MOL   C186  186   5.422   8.204   3.889  0.1840 -0.2402  0.6785
    1MOL   C187  187   5.441   8.208   3.749 -0.3567 -0.1186 -0.0170
    1MOL   H188  188   5.761   8.084   3.739 -1.2407 -2.3959  0.1596
    1MOL   H189  189   5.846   8.053   3.953 -0.6011 -1.4268 -1.5539
    1MOL   H190  190   5.800   8.014   4.209  1.9133  0.0227 -2.4796
    1MOL   H191  191   5.342   8.203   4.522  2.0791  0.4898  0.5609
    1MOL   H192  192   5.477   8.095   4.565 -0.1508  3.2002  1.5026
    1MOL   H193  193   5.368   7.900   4.468  0.5572  0.0370  0.0624
    1MOL   H194  194   5.246   7.961   4.571 -1.3240  0.3029 -0.6251
    1MOL   H195  195   5.408   8.172   4.157  0.1451  0.1084  0.1469
    1MOL   H196  196   5.327   8.231   3.932 -1.0377 -0.2661 -1.9082
    1MOL   H197  197   5.352   8.234   3.693 -0.5511  0.2629  0.4609
    1MOL   O198  198   5.092   8.150   4.447 -0.0849 -0.6291 -0.2468
    1MOL   C199  199   5.135   8.092   4.350  0.3561 -0.1147  0.1093
    1MOL   O200  200   5.223   7.988   4.372  0.1531  0.2024  0.0283
    1MOL   C201  201   5.097   8.106   4.205 -0.4347 -0.4206  0.0911
    1MOL   C202  202   5.147   8.018   4.102 -0.1936 -0.2911 -0.1709
    1MOL   C203  203   5.125   8.048   3.973 -0.1606 -0.5678  0.0311
    1MOL   C204  204   5.188   7.976   3.866  0.5675 -0.0046 -0.3074
    1MOL   C205  205   5.157   7.997   3.734  0.5170 -0.1552 -0.2423
    1MOL   C206  206   5.075   8.106   3.696 -0.2191 -0.4150  0.6307
    1MOL   C207  207   5.058   8.125   3.551  0.3965  0.0392  0.3940
    1MOL   O208  208   4.949   8.196   3.518  0.6721 -0.3926  0.5189
    1MOL   C209  209   4.922   8.222   3.379  0.7525 -0.2349 -0.7323
    1MOL   C210  210   5.034   0.074   3.333  0.6941  0.3069 -0.0110
    1MOL   O211  211   5.119   8.057   3.466 -0.4376 -0.5054 -0.0486
    1MOL   C212  212   5.014   8.185   3.802  0.2186  0.4141  0.1312
    1MOL   C213  213   5.037   8.152   3.935 -0.0326  1.0446  0.8879
    1MOL   C214  214   4.983   8.233   4.032  0.3265 -0.2540  0.1899
    1MOL   C215  215   5.011   8.210   4.166 -0.1731 -0.3591 -0.2357
    1MOL   H216  216   5.209   7.934   4.131 -0.5022  0.0637  1.6181
    1MOL   H217  217   5.252   7.894   3.896  0.5716 -1.1619 -3.3387
    1MOL   H218  218   5.205   7.939   3.656 -1.9265 -1.7244 -0.6321
    1MOL   H219  219   4.822   0.016   3.375  0.8498  0.0407 -0.2814
    1MOL   H220  220   4.910   8.122   3.337  2.8543 -1.9524  2.4944
    1MOL   H221  221   5.132   0.030   3.353  0.6943  0.7802  1.0923
    1MOL   H222  222   5.019   0.101   3.229  1.5794  1.5679  0.1861
    1MOL   H223  223   4.940   0.010   3.774 -0.4366 -0.0290  0.6674
    1MOL   H224  224   4.919   0.068   4.006  1.2091  0.2238 -0.4593
    1MOL   H225  225   4.977   0.032   4.240 -1.9384 -0.5112 -0.8784
    1MOL   O226  226   4.830   0.280   3.326 -0.1525 -0.0568 -0.6214
    1MOL   C227  227   4.914   0.273   3.416  0.1128 -0.2632  0.4958
    1MOL   O228  228   5.025   0.197   3.407  0.1995  0.2119 -0.8881
    1MOL   C229  229   4.926   0.369   3.529 -0.0840 -0.1075 -0.7046
    1MOL   C230  230   4.860   0.488   3.508 -0.1190 -0.2699  0.0235
    1MOL   C231  231   4.848   0.585   3.611 -0.1300  0.1758 -1.5091
    1MOL   C232  232   4.782   0.707   3.588 -0.5424  0.4002  0.6248
    1MOL   C233  233   4.763   0.806   3.684  0.4003  0.4706  0.1709
    1MOL   C234  234   4.823   0.791   3.809  0.5156 -0.3724 -0.6265
    1MOL   C235  235   4.819   0.903   3.921  0.1297 -0.8735 -0.2589
    1MOL   O236  236   4.843   0.854   4.048 -0.5727  0.6386 -0.3901
    1MOL   C237  237   4.827   0.938   4.165 -0.0370 -0.1057  0.4388
    1MOL   C238  238   4.876   0.851   4.281  0.4947  0.3960  0.6548
    1MOL   O239  239   4.811   1.022   3.891  0.6403  0.4183  0.2403
    1MOL   C240  240   4.906   0.677   3.834 -0.3767 -0.2787  0.1144
    1MOL   C241  241   4.912   0.569   3.736  0.1003 -0.4829 -0.6590
    1MOL   C242  242   4.982   0.446   3.754 -0.2968  0.6615 -0.5748
    1MOL   C243  243   4.989   0.345   3.651  0.1193  0.2774 -0.0333
    1MOL   H244  244   4.808   0.515   3.417 -1.9275 -0.6503  0.9115
    1MOL   H245  245   4.739   0.718   3.490 -0.4172 -0.2717  0.4916
    1MOL   H246  246   4.724   0.904   3.662  0.2641  0.4311  0.2405
    1MOL   H247  247   4.724   0.970   4.183  0.5845  0.9752  2.2426
    1MOL   H248  248   4.888   1.025   4.142  0.4148 -0.1857  1.3202
    1MOL   H249  249   4.800   0.782   4.317  0.4782 -0.6411 -1.3364
    1MOL   H250  250   4.950   0.778   4.249 -0.7524 -0.7306  0.3192
    1MOL   H251  251   4.958   0.659   3.926 -0.3762  0.6261  0.2946
    1MOL   H252  252   5.006   0.428   3.857 -0.5062  2.0655 -0.2665
    1MOL   H253  253   5.041   0.252   3.667  2.3104  1.3464 -0.7544
    1MOL   O254  254   5.140   0.913   4.336 -0.5062 -0.0526  0.2703
    1MOL   C255  255   5.050   0.952   4.408 -0.0554  0.6688  0.1136
    1MOL   O256  256   4.918   0.927   4.389  0.6678 -0.5052 -0.3418
    1MOL   C257  257   5.065   1.035   4.528 -0.6924 -0.0576  0.0682
    1MOL   C258  258   5.190   1.082   4.567 -0.1444  0.4031 -0.3716
    1MOL   C259  259   5.213   1.155   4.681  0.9207  0.2051  0.1653
    1MOL   C260  260   5.342   1.183   4.718 -0.4069 -0.4938 -0.2284
    1MOL   C261  261   5.370   1.242   4.843  0.0071 -0.3475 -0.0632
    1MOL   C262  262   5.261   1.284   4.919  0.0344 -0.0463  0.2415
    1MOL   C263  263   5.276   1.346   5.054  0.4446  0.3426 -0.2710
    1MOL   O264  264   5.406   1.384   5.080  0.3901 -0.3359  0.3343
    1MOL   C265  265   5.443   1.430   5.202 -0.1307 -0.2929  0.5707
    1MOL   C266  266   5.590   1.456   5.214  0.5602  1.1369  0.2503
    1MOL   O267  267   5.180   1.374   5.131 -0.0512 -0.2996 -0.1166
    1MOL   C268  268   5.131   1.266   4.874  0.4664 -0.4461 -0.7882
    1MOL   C269  269   5.104   1.200   4.760 -0.1674 -0.5305  0.0686
    1MOL   C270  270   4.980   1.163   4.715  0.0817 -0.0903  0.1119
    1MOL   C271  271   4.955   1.076   4.606  0.5588 -0.0781 -0.3390
    1MOL   H272  272   5.275   1.060   4.504 -0.9164  1.0038 -1.6474
    1MOL   H273  273   5.426   1.153   4.657 -0.5299 -0.1587 -0.5658
    1MOL   H274  274   5.469   1.256   4.884 -0.8467 -1.0424  2.3596
    1MOL   H275  275   5.400   1.370   5.282 -2.6811  1.7639  0.8210
    1MOL   H276  276   5.397   1.529   5.203 -0.6256 -0.4774 -1.1119
    1MOL   H277  277   5.653   1.386   5.160 -3.1911 -0.2935 -2.4343
    1MOL   H278  278   5.611   1.559   5.183 -0.3208  1.3114  0.2166
    1MOL   H279  279   5.051   1.307   4.933 -0.0152  0.0482 -1.7786
    1MOL   H280  280   4.894   1.200   4.769  0.3291 -2.4818  2.2667
    1MOL   H281  281   4.855   1.047   4.578  0.2977 -1.3719  1.8398
    1MOL   O282  282   5.548   1.659   5.406 -0.2023  0.0187  0.1068
    1MOL   C283  283   5.594   1.550   5.436  0.0105 -0.7017 -0.0022
    1MOL   O284  284   5.625   1.452   5.350  0.6296  0.5390 -0.3243
    1MOL   C285  285   5.638   1.517   5.577  0.4379 -0.0272 -0.3444
    1MOL   C286  286   5.610   1.614   5.677  0.4408  0.5379 -0.3008
    1MOL   C287  287   5.653   1.587   5.807  0.1293  0.2070 -0.1821
    1MOL   C288  288   5.618   1.674   5.909 -0.2238  0.4687 -0.5403
    1MOL   C289  289   5.645   1.647   6.043  0.5598  0.1736  0.5566
    1MOL   C290  290   5.705   1.518   6.073  0.1058 -0.5935 -0.5046
    1MOL   C291  291   5.719   1.492   6.217 -0.0182  0.3876 -0.3369
    1MOL   O292  292   5.766   1.366   6.243 -0.6381 -0.0025  0.2404
    1MOL   C293  293   5.762   1.316   6.372  0.1940  0.2312 -0.4591
    1MOL   C294  294   5.828   1.176   6.386  0.1475 -0.0930 -0.2425
    1MOL   O295  295   5.688   1.572   6.305 -0.3712  0.0922 -0.3086
    1MOL   C296  296   5.751   1.430   5.974 -0.5845  0.4539 -0.5640
    1MOL   C297  297   5.715   1.463   5.840 -0.6763  1.2216 -0.7265
    1MOL   C298  298   5.740   1.369   5.736  0.4797  0.1772 -1.2279
    1MOL   C299  299   5.701   1.401   5.608  0.1012 -0.4585 -0.1429
    1MOL   H300  300   5.545   1.700   5.664  1.6534  1.5942  0.4275
    1MOL   H301  301   5.556   1.760   5.889  1.3548  1.9394  0.7574
    1MOL   H302  302   5.595   1.709   6.116 -1.6310 -1.3044  0.3633
    1MOL   H303  303   5.660   1.307   6.411  0.3822 -1.4817 -0.3236
    1MOL   H304  304   5.814   1.388   6.435 -1.3239 -0.2693  1.4080
    1MOL   H305  305   5.924   1.180   6.334  0.3640  0.3308  0.1894
    1MOL   H306  306   5.853   1.148   6.488 -2.3863  0.7318  0.6368
    1MOL   H307  307   5.807   1.341   5.999  0.6847  1.3163 -0.2826
    1MOL   H308  308   5.788   1.273   5.750  0.2755  0.3458  0.8236
    1MOL   H309  309   5.707   1.322   5.534 -1.3226 -0.6411 -0.0813
    1MOL   O310  310   5.875   1.018   6.166 -0.0938  0.1839  0.9689
    1MOL   C311  311   5.778   1.005   6.239  0.0870 -0.2765  0.2636
    1MOL   O312  312   5.748   1.075   6.340  0.2012  0.3724  0.3102
    1MOL   C313  313   5.676   0.903   6.215 -0.3101  0.3775 -0.2573
    1MOL   C314  314   5.565   0.876   6.309 -0.9545  0.1777  0.2450
    1MOL   C315  315   5.484   0.764   6.297  0.3512 -0.3827  0.1345
    1MOL   C316  316   5.384   0.732   6.390 -0.1361 -0.2642  0.4902
    1MOL   C317  317   5.297   0.623   6.368  0.1597 -0.0902 -0.0348
    1MOL   C318  318   5.311   0.541   6.249 -0.5002 -0.1829  0.2036
    1MOL   C319  319   5.222   0.424   6.228  0.2776  0.0220  0.4581
    1MOL   O320  320   5.151   0.394   6.335  0.2411 -0.0636 -0.7034
    1MOL   C321  321   5.052   0.292   6.327  0.1584  0.2093  0.2855
    1MOL   C322  322   5.102   0.157   6.379 -0.6732  0.2620  0.5326
    1MOL   O323  323   5.215   0.364   6.120 -0.4375  0.1846  0.2536
    1MOL   C324  324   5.415   0.573   6.157  0.5765 -0.4335 -0.5552
    1MOL   C325  325   5.500   0.683   6.183  1.1861 -0.1289  0.8073
    1MOL   C326  326   5.596   0.706   6.086 -0.9154  0.1338 -0.2598
    1MOL   C327  327   5.680   0.820   6.096  0.7736  0.2066 -0.5887
    1MOL   H328  328   5.556   0.947   6.389 -1.2627  1.7367 -1.1542
    1MOL   H329  329   5.364   0.791   6.478 -1.6265 -0.1138  0.0555
    1MOL   H330  330   5.224   0.609   6.446  0.6903 -3.6484 -0.0866
    1MOL   H331  331   5.009   0.289   6.227  1.3680  0.9557 -0.2784
    1MOL   H332  332   4.972   0.323   6.394 -1.8346 -1.3328 -1.3338
    1MOL   H333  333   5.192   0.130   6.323 -0.7428 -2.4519  1.6761
    1MOL   H334  334   5.129   0.174   6.483  0.0571  1.7550  0.1273
    1MOL   H335  335   5.431   0.517   6.066 -2.0199  1.6143 -2.3351
    1MOL   H336  336   5.616   0.637   6.005 -1.0113  1.0743 -1.0894
    1MOL   H337  337   5.746   0.848   6.016  0.6837 -0.1337 -0.7848
    1MOL   O338  338   4.892   0.126   6.545  0.4808  0.5778  0.5068
    1MOL   C339  339   4.912   0.043   6.464  0.2033  0.5689 -0.0806
    1MOL   O340  340   5.009   0.054   6.372 -0.0211  0.1404  0.1752
    1MOL   C341  341   4.830   8.175   6.442 -0.3971 -0.0640  0.6466
    1MOL   C342  342   4.690   8.180   6.450 -0.4271 -0.9417 -0.2872
    1MOL   C343  343   4.613   8.069   6.424  0.5253  0.5442  0.6961
    1MOL   C344  344   4.477   8.090   6.428  0.0563  0.5581  0.1110
    1MOL   C345  345   4.392   7.981   6.410  0.6107  0.5569 -0.0904
    1MOL   C346  346   4.439   7.850   6.413 -0.0012  0.1705  0.2496
    1MOL   C347  347   4.352   7.732   6.431  0.0833 -0.3694 -0.3852
    1MOL   O348  348   4.226   7.763   6.466 -0.6165 -0.0336 -0.1682
    1MOL   C349  349   4.128   7.663   6.486  0.5331  0.4471 -0.2124
    1MOL   C350  350   3.980   7.687   6.439  0.0401 -0.1066  0.4798
    1MOL   O351  351   4.390   7.615   6.424  0.4228  0.4925 -0.1691
    1MOL   C352  352   4.585   7.834   6.397 -0.0199 -0.4539 -0.4659
    1MOL   C353  353   4.670   7.940   6.403 -0.5145  0.4533  0.0680
    1MOL   C354  354   4.817   7.935   6.400  0.0248  0.8957 -0.2895
    1MOL   C355  355   4.894   8.050   6.416 -0.3582 -0.1723  0.3276
    1MOL   H356  356   4.654   0.029   6.475  0.6750 -0.2189 -1.4977
    1MOL   H357  357   4.433   8.188   6.446 -0.2377  0.5948 -0.8018
    1MOL   H358  358   4.287   8.003   6.405  0.9331  2.2060  0.1566
    1MOL   H359  359   4.125   7.646   6.594 -0.9927  1.4936 -0.0840
    1MOL   H360  360   4.153   7.560   6.457 -1.2875  0.2695 -1.1995
    1MOL   H361  361   3.919   7.608   6.483 -1.3698  1.2076  0.9593
    1MOL   H362  362   3.945   7.783   6.479  0.3576 -0.2253  1.0553
    1MOL   H363  363   4.626   7.734   6.392  0.3064 -0.3218 -0.4310
    1MOL   H364  364   4.864   7.838   6.392 -0.9625  0.6075 -3.2849
    1MOL   H365  365   5.002   8.051   6.412 -0.3634 -1.6962 -0.3731
    1MOL   O366  366   3.985   7.900   6.281 -0.7562  0.2522  0.0020
    1MOL   C367  367   3.975   7.792   6.223  0.0714 -0.1657  0.2741
    1MOL   O368  368   3.961   7.676   6.297  0.9190  0.1138 -0.1814
    1MOL   C369  369   3.973   7.771   6.077  0.1434  0.4575 -0.3564
    1MOL   C370  370   3.931   7.654   6.023  0.1465  0.7489 -0.0857
    1MOL   C371  371   3.932   7.633   5.884  0.2604 -0.2035  0.3875
    1MOL   C372  372   3.892   7.508   5.837 -0.2756  0.7307  0.3184
    1MOL   C373  373   3.898   7.484   5.695 -0.0168 -0.6113 -0.1408
    1MOL   C374  374   3.931   7.591   5.604 -0.0015  0.7747 -0.1363
    1MOL   C375  375   3.943   7.562   5.459 -0.5123  0.5021 -0.1635
    1MOL   O376  376   3.995   7.654   5.382 -0.2350  0.0038 -0.0612
    1MOL   C377  377   4.035   7.628   5.241  0.0930  0.0072 -0.0487
    1MOL   C378  378   3.913   7.655   5.160  0.1832  0.3632  0.4476
    1MOL   O379  379   3.930   7.449   5.419  0.6055  0.1858 -0.8085
    1MOL   C380  380   3.975   7.711   5.656 -0.1333  0.0340  0.2185
    1MOL   C381  381   3.973   7.734   5.797  0.2767 -0.1590 -0.8303
    1MOL   C382  382   4.019   7.860   5.853  0.5909  0.2712  0.1136
    1MOL   C383  383   4.004   7.881   5.992  0.1998 -0.2894  0.3545
    1MOL   H384  384   3.896   7.568   6.079 -1.3659 -1.1854 -3.8183
    1MOL   H385  385   3.880   7.422   5.901 -1.8756  1.3799  0.9278
    1MOL   H386  386   3.867   7.389   5.654 -0.8378  0.5425 -2.2241
    1MOL   H387  387   4.077   7.528   5.236 -0.2174 -0.0566 -1.5010
    1MOL   H388  388   4.124   7.686   5.216  0.8846 -1.4429 -0.6320
    1MOL   H389  389   3.831   7.628   5.226  1.8840 -0.4115  2.2691
    1MOL   H390  390   3.897   7.760   5.136 -1.3357  0.1573  0.5000
    1MOL   H391  391   4.016   7.794   5.598 -0.0038  0.6037  1.1185
    1MOL   H392  392   4.063   7.931   5.785 -1.1059 -0.2268 -1.5286
    1MOL   H393  393   4.037   7.971   6.041  1.7431  0.2990 -1.6827
    1MOL   O394  394   3.813   7.394   5.106 -0.8451 -0.3273  0.0368
    1MOL   C395  395   3.874   7.460   5.020 -0.1802  0.2628  0.3295
    1MOL   O396  396   3.911   7.581   5.034  0.5959 -0.3908  0.3155
    1MOL   C397  397   3.913   7.401   4.877  0.2183 -0.0300 -0.9300
    1MOL   C398  398   3.955   7.474   4.768  0.3025 -0.6962 -0.4011
    1MOL   C399  399   3.982   7.406   4.643  0.5825 -0.4734  0.2987
    1MOL   C400  400   4.033   7.476   4.534 -0.2455  0.0145 -0.5142
    1MOL   C401  401   4.066   7.414   4.411  0.1663  0.0624  0.2908
    1MOL   C402  402   4.039   7.276   4.396 -0.0788 -0.2640  0.6534
    1MOL   C403  403   4.057   7.211   4.262 -0.1776 -0.2638  0.2268
    1MOL   O404  404   4.072   7.301   4.160 -0.3087 -0.3519 -0.3952
    1MOL   C405  405   4.113   7.247   4.034  0.3460  0.1345  0.0358
    1MOL   C406  406   4.266   7.264   4.006  0.1324  0.3755  0.5352
    1MOL   O407  407   4.052   7.085   4.239  0.1121 -0.2225 -0.2460
    1MOL   C408  408   3.993   7.203   4.506 -0.0270 -0.4149  0.8779
    1MOL   C409  409   3.960   7.270   4.625 -0.9365  0.1544 -0.1368
    1MOL   C410  410   3.913   7.194   4.736  0.8549 -0.2220 -0.2361
    1MOL   C411  411   3.885   7.261   4.859 -0.3135 -0.2949 -0.3498
    1MOL   H412  412   3.973   7.580   4.780 -0.7738 -0.5277 -0.2210
    1MOL   H413  413   4.038   7.584   4.541 -1.7111  0.1346 -1.1290
    1MOL   H414  414   4.109   7.474   4.333  1.0895 -1.2179 -0.1950
    1MOL   H415  415   4.058   7.291   3.951 -1.2506 -0.6283  0.6863
    1MOL   H416  416   4.073   7.147   4.015  0.2157  0.2594 -0.3569
    1MOL   H417  417   4.326   7.205   4.075  0.0237 -0.0111  0.3014
    1MOL   H418  418   4.300   7.221   3.912  1.4813  0.2221  1.0775
    1MOL   H419  419   3.971   7.098   4.500 -2.9173  0.1993  0.0135
    1MOL   H420  420   3.903   7.086   4.731 -0.1385 -0.1749  0.6810
    1MOL   H421  421   3.839   7.201   4.936  0.7261  0.1296  0.6081
    1MOL   O422  422   4.353   7.422   4.222 -0.1235 -0.5467  0.3328
    1MOL   C423  423   4.335   7.473   4.110  0.2222  0.1199  0.1123
    1MOL   O424  424   4.285   7.406   4.003 -0.4424  0.2388  0.4698
    1MOL   C425  425   4.341   7.619   4.089 -0.0848  0.6802 -0.0491
    1MOL   C426  426   4.351   7.702   4.201  0.2231 -0.3083  0.0466
    1MOL   C427  427   4.330   7.841   4.184 -0.1834  0.5535  0.1056
    1MOL   C428  428   4.314   7.923   4.302  0.2470 -0.0069 -0.2278
    1MOL   C429  429   4.295   8.062   4.283  0.4630 -0.3129  0.1002
    1MOL   C430  430   4.297   8.118   4.152  0.0388 -0.2833  0.6905
    1MOL   C431  431   4.280   0.015   4.125  0.5549  0.1730  0.0915
    1MOL   O432  432   4.308   0.094   4.230 -0.1249  0.1907  0.6392
    1MOL   C433  433   4.280   0.233   4.232 -0.3313  0.2641 -0.1520
    1MOL   C434  434   4.389   0.320   4.170  0.0920  0.4166  0.6380
    1MOL   O435  435   4.247   0.057   4.009 -0.3090  0.2835 -0.8768
    1MOL   C436  436   4.316   8.034   4.037  0.5628 -1.1013  0.9538
    1MOL   C437  437   4.329   7.895   4.052 -0.0768 -0.2622 -0.3751
    1MOL   C438  438   4.345   7.813   3.943 -0.1360  0.7229  0.0748
    1MOL   C439  439   4.352   7.674   3.960 -0.1154 -0.3214  0.3279
    1MOL   H440  440   4.365   7.656   4.297 -1.7841 -0.5627  0.2449
    1MOL   H441  441   4.316   7.875   4.399 -0.0435  0.6653  0.1068
    1MOL   H442  442   4.286   8.123   4.371  0.1559 -2.8658  1.8940
    1MOL   H443  443   4.251   0.271   4.330  2.1755  1.5786  0.1103
    1MOL   H444  444   4.188   0.247   4.174 -0.4189 -0.4797 -0.1860
    1MOL   H445  445   4.412   0.274   4.074  1.5003  2.7131 -0.1649
    1MOL   H446  446   4.333   0.408   4.136  0.0332 -0.0239 -0.4257
    1MOL   H447  447   4.319   8.074   3.937  0.8632 -3.0925  0.1604
    1MOL   H448  448   4.347   7.860   3.847  3.2060 -0.6956 -0.6223
    1MOL   H449  449   4.349   7.610   3.873 -1.9216 -0.5686  0.5548
    1MOL   O450  450   4.369   0.461   4.414 -0.3759  0.0157  0.2659
    1MOL   C451  451   4.478   0.428   4.368 -0.3617  0.5370  0.4897
    1MOL   O452  452   4.491   0.353   4.255  0.0524 -0.0552 -0.1474
    1MOL   C453  453   4.608   0.475   4.419  0.4955  0.6089  0.3465
    1MOL   C454  454   4.719   0.468   4.335  1.3945  0.1387 -0.2069
    1MOL   C455  455   4.848   0.503   4.382  0.2166  0.5715 -1.1195
    1MOL   C456  456   4.964   0.493   4.297 -0.3974 -0.2205  0.2330
    1MOL   C457  457   5.089   0.545   4.345  0.4431 -0.2504  0.1580
    1MOL   C458  458   5.104   0.589   4.480 -0.0827 -0.3285  0.1445
    1MOL   C459  459   5.233   0.649   4.525  0.2733  0.5338  0.2674
    1MOL   O460  460   5.335   0.614   4.441  0.6144  0.0391 -0.3408
    1MOL   C461  461   5.462   0.679   4.447 -0.6028 -0.3347 -0.3578
    1MOL   C462  462   5.466   0.797   4.348 -0.8175 -0.0722  0.2491
    1MOL   O463  463   5.246   0.721   4.622 -0.0891  0.5320  0.3548
    1MOL   C464  464   4.991   0.602   4.563 -0.4618  0.6237  0.5141
    1MOL   C465  465   4.864   0.551   4.519 -0.1314  0.1218  0.0103
    1MOL   C466  466   4.751   0.570   4.595 -0.0374 -1.0404 -0.6962
    1MOL   C467  467   4.625   0.532   4.548 -0.1309 -0.0066  0.0037
    1MOL   H468  468   4.712   0.431   4.234 -0.8201  0.5366 -0.2136
    1MOL   H469  469   4.961   0.456   4.196  1.4012 -0.2532  0.1612
    1MOL   H470  470   5.172   0.537   4.277  0.6334 -0.7835  0.4485
    1MOL   H471  471   5.535   0.601   4.424 -1.0806 -0.6409 -0.8552
    1MOL   H472  472   5.492   0.720   4.544  0.3335 -1.8585  0.0096
    1MOL   H473  473   5.442   0.760   4.248  0.6858  0.4898 -0.3358
    1MOL   H474  474   5.388   0.862   4.386 -0.6814 -0.6741  1.5787
    1MOL   H475  475   5.007   0.635   4.665  0.0066  1.9064  0.0316
    1MOL   H476  476   4.759   0.631   4.684 -0.7206  0.7300 -1.8176
    1MOL   H477  477   4.540   0.563   4.607 -2.0568 -0.7387 -2.3576
    1MOL   O478  478   5.514   0.999   4.506 -0.2799 -0.6588 -0.2067
    1MOL   C479  479   5.606   0.965   4.434 -0.3623  0.3542 -0.3116
    1MOL   O480  480   5.592   0.865   4.345 -0.4408 -0.7199  0.2967
    1MOL   C481  481   5.745   1.017   4.451 -0.3958 -0.5755 -0.0050
    1MOL   C482  482   5.788   1.091   4.564  0.6885 -0.0625  0.1403
    1MOL   C483  483   5.913   1.149   4.575 -0.2071 -0.1763  0.8442
    1MOL   C484  484   5.958   1.208   4.699  0.3128 -0.1647  0.1348
    1MOL   C485  485   6.085   1.265   4.711 -0.3099  0.1699 -0.5311
    1MOL   C486  486   6.177   1.254   4.604 -0.3473 -0.7613 -0.1696
    1MOL   C487  487   6.318   1.306   4.622 -0.2695  0.4337  0.2046
    1MOL   O488  488   6.406   1.279   4.524  0.4498  0.4138 -0.7843
    1MOL   C489  489   6.550   1.297   4.547  0.6481 -0.2768 -0.3799
    1MOL   C490  490   6.590   1.443   4.525 -0.0147 -0.8794  0.4783
    1MOL   O491  491   6.359   1.356   4.725  0.2526 -0.6576 -0.3262
    1MOL   C492  492   6.127   1.204   4.480  0.0185  0.0762 -0.0656
    1MOL   C493  493   6.001   1.144   4.464 -0.4010 -0.2738 -0.6217
    1MOL   C494  494   5.954   1.082   4.344  0.3345 -0.5122  0.0592
    1MOL   C495  495   5.832   1.010   4.340 -0.5483 -0.2175  0.0654
    1MOL   H496  496   5.712   1.091   4.641  0.7360 -0.6472  0.1960
    1MOL   H497  497   5.886   1.205   4.780 -0.9642  0.8393 -0.9401
    1MOL   H498  498   6.121   1.307   4.804  0.1657 -0.3302 -0.4841
    1MOL   H499  499   6.607   1.233   4.480  1.5769 -2.0141  1.9996
    1MOL   H500  500   6.586   1.273   4.647 -1.7358 -0.4631  0.4697
    1MOL   H501  501   6.586   1.450   4.417 -1.9458  1.2018  0.6440
    1MOL   H502  502   6.514   1.515   4.555 -0.1596 -0.6140 -0.5086
    1MOL   H503  503   6.195   1.208   4.395 -0.1708 -2.0273 -0.3290
    1MOL   H504  504   6.010   1.077   4.252  1.0497 -1.4595  0.5317
    1MOL   H505  505   5.803   0.969   4.244 -1.6086  0.4641  0.0822
    1MOL   O506  506   6.624   1.537   4.772  0.7569 -0.1246 -0.3506
    1MOL   C507  507   6.721   1.524   4.704  0.2027 -0.0103  0.5544
    1MOL   O508  508   6.714   1.470   4.580 -0.1743  0.6187 -0.7048
    1MOL   C509  509   6.858   1.556   4.744 -0.1284 -0.2810 -0.2886
    1MOL   C510  510   6.965   1.596   4.654  0.2857  0.0269 -0.6678
    1MOL   C511  511   7.098   1.630   4.700  0.2839 -0.6679  0.4395
    1MOL   C512  512   7.209   1.661   4.615 -0.7562  0.0080 -0.3945
    1MOL   C513  513   7.331   1.690   4.674 -0.7440 -0.5574 -0.1712
    1MOL   C514  514   7.349   1.689   4.816 -0.3048 -0.2116 -0.3897
    1MOL   C515  515   7.478   1.719   4.871 -1.0031  0.1570 -0.1651
    1MOL   O516  516   7.506   1.648   4.978  0.5906  0.5287  0.1239
    1MOL   C517  517   7.645   1.650   5.017  0.5149 -0.5190 -0.5111
    1MOL   C518  518   7.727   1.547   4.941 -0.0501  0.6839  0.1436
    1MOL   O519  519   7.560   1.788   4.809 -0.0310  0.0891 -0.3634
    1MOL   C520  520   7.242   1.643   4.898 -0.6434 -0.2187  0.3643
    1MOL   C521  521   7.114   1.619   4.844 -0.0366  0.0781 -0.5192
    1MOL   C522  522   7.014   1.581   4.932  0.3609  0.5135 -0.5908
    1MOL   C523  523   6.884   1.551   4.881  0.0847 -0.3775  0.1186
    1MOL   H524  524   6.942   1.601   4.549  1.9508  3.7862 -0.9555
    1MOL   H525  525   7.192   1.668   4.509  0.9362 -0.5992 -0.7212
    1MOL   H526  526   7.408   1.719   4.605  0.3684  1.8512  1.9816
    1MOL   H527  527   7.649   1.612   5.119 -1.1631  1.1923  0.2118
    1MOL   H528  528   7.698   1.746   5.018 -0.8854  0.2843  1.7721
    1MOL   H529  529   7.824   1.532   4.988  0.3777 -1.8573 -1.4058
    1MOL   H530  530   7.678   1.449   4.942  0.9239  0.2044  1.3700
    1MOL   H531  531   7.250   1.639   5.006  0.9622 -0.0371  0.2667
    1MOL   H532  532   7.030   1.574   5.038  0.3325  0.0428 -0.6163
    1MOL   H533  533   6.813   1.527   4.958 -1.2803  0.7004 -0.7798
    1MOL   O534  534   7.875   1.408   4.776  0.4610 -0.2496  0.0875
    1MOL   C535  535   7.816   1.509   4.729  0.2568  0.7897  0.1200
    1MOL   O536  536   7.750   1.592   4.807 -0.5202 -0.1457 -0.1041
    1MOL   C537  537   7.811   1.550   4.588 -0.0209 -0.3936 -0.0348
    1MOL   C538  538   7.891   1.484   4.493  0.2745  0.3185 -0.4031
    1MOL   C539  539   7.892   1.518   4.358  0.3342  0.0271 -0.0035
    1MOL   C540  540   7.978   1.451   4.273  0.0726  0.2945  0.0581
    1MOL   C541  541   7.986   1.495   4.141  0.0700  0.4303 -0.0299
    1MOL   C542  542   7.926   1.616   4.092 -0.1162  0.0605  0.2868
    1MOL   C543  543   7.937   1.664   3.955 -0.2302  0.6050 -0.1830
    1MOL   O544  544   7.998   1.575   3.877 -0.2936  0.1340  0.0127
    1MOL   C545  545   8.018   1.604   3.739  0.2612 -0.3954 -0.4624
    1MOL   C546  546   8.171   1.631   3.706 -0.2740 -0.4446  0.7350
    1MOL   O547  547   7.883   1.772   3.912 -0.3988 -0.4466 -0.7394
    1MOL   C548  548   7.840   1.677   4.181  0.0981 -0.3219 -0.1851
    1MOL   C549  549   7.823   1.630   4.314 -0.0842  0.5417  0.5635
    1MOL   C550  550   7.738   1.698   4.400  0.2712 -0.0541 -1.0945
    1MOL   C551  551   7.724   1.655   4.536 -0.0668 -0.4481 -0.0926
    1MOL   H552  552   7.968   1.413   4.519 -0.0834 -0.3463 -1.1579
    1MOL   H553  553   8.029   1.365   4.314 -2.6227 -0.2461  2.4814
    1MOL   H554  554   8.043   1.438   4.069  0.0460  2.7334 -1.9198
    1MOL   H555  555   7.958   1.693   3.721  2.0859  1.1650  1.0169
    1MOL   H556  556   7.992   1.527   3.666 -0.6539  0.0844 -0.6487
    1MOL   H557  557   8.222   1.535   3.710  2.7827  0.8950 -2.8802
    1MOL   H558  558   8.221   1.706   3.766 -1.0697  0.5256  0.2063
    1MOL   H559  559   7.784   1.760   4.143 -0.2593 -1.1356 -1.4695
    1MOL   H560  560   7.682   1.780   4.359  2.0256  2.0903  0.6976
    1MOL   H561  561   7.665   1.717   4.601  2.9233 -0.3778  2.6634
    1MOL   H562  562   8.188   1.641   3.599  1.9243 -1.1484  1.0115
    2MOL     O1  563   7.192   0.481   6.638 -0.0359 -0.3873  0.0681
    2MOL     C2  564   7.160   0.532   6.750 -0.4816 -0.0619  0.5791
    2MOL     O3  565   7.226   0.642   6.789  0.2697 -0.1464  0.0085
    2MOL     C4  566   7.062   0.480   6.851  0.2183 -0.5169  0.6989
    2MOL     C5  567   7.050   0.538   6.976 -0.1967 -0.5406  1.0770
    2MOL     C6  568   6.958   0.487   7.070  0.3842 -0.2317  0.2451
    2MOL     C7  569   6.949   0.544   7.196  0.1529  1.5710 -0.0416
    2MOL     C8  570   6.863   0.495   7.290  0.2365  0.7375 -0.1505
    2MOL     C9  571   6.772   0.398   7.251  0.5107  0.3710  0.0334
    2MOL    C10  572   6.671   0.355   7.347  0.6217 -0.0818 -0.1520
    2MOL    O11  573   6.662   0.434   7.458 -0.9611  0.2886 -0.0104
    2MOL    C12  574   6.563   0.426   7.555 -0.1207  0.5636 -0.7368
    2MOL    C13  575   6.443   0.516   7.544  0.0114  0.3227 -0.4080
    2MOL    O14  576   6.594   0.266   7.323 -0.2466  0.0153  0.2415
    2MOL    C15  577   6.786   0.333   7.134 -0.3947  0.0810  0.2398
    2MOL    C16  578   6.873   0.381   7.034  0.7172 -0.7767 -1.0965
    2MOL    C17  579   6.894   0.314   6.912 -0.4131  0.0833 -0.2426
    2MOL    C18  580   6.989   0.369   6.820 -0.0840  0.7824 -0.7196
    2MOL    H19  581   7.104   0.629   7.001 -1.5858  0.9842 -1.2817
    2MOL    H20  582   7.015   0.624   7.226  1.1612 -0.3439  3.0258
    2MOL    H21  583   6.864   0.538   7.389  1.2363 -0.4737  0.3897
    2MOL    H22  584   6.533   0.321   7.556 -0.8205  0.7684  0.2558
    2MOL    H23  585   6.608   0.443   7.652 -0.0876 -1.1643 -0.4311
    2MOL    H24  586   6.404   0.514   7.646  0.4576  0.7709 -0.2286
    2MOL    H25  587   6.474   0.619   7.527  0.3084  0.5343  1.2945
    2MOL    H26  588   6.712   0.258   7.114  1.5324 -1.0101 -3.2905
    2MOL    H27  589   6.833   0.227   6.894  1.3939 -1.5184  1.1578
    2MOL    H28  590   6.996   0.320   6.725 -0.7024 -0.3189 -0.2125
    2MOL    H29  591   7.303   0.662   6.738 -0.4622  0.0368 -1.0494
    2MOL    O30  592   6.176   0.463   7.573 -0.3080 -0.1974 -0.1000
    2MOL    C31  593   6.232   0.442   7.462  0.1332 -0.2269 -0.5806
    2MOL    O32  594   6.362   0.459   7.441 -0.1624 -0.1123 -0.3328
    2MOL    C33  595   6.160   0.384   7.342 -0.4910  0.4083 -0.6856
    2MOL    C34  596   6.225   0.332   7.229 -0.1136 -0.7517  0.4316
    2MOL    C35  597   6.152   0.289   7.119  0.1253 -0.0320  0.6015
    2MOL    C36  598   6.220   0.233   7.006 -0.1438  0.4220 -0.3418
    2MOL    C37  599   6.153   0.168   6.902 -0.3335  0.1756  0.2208
    2MOL    C38  600   6.011   0.174   6.901 -0.4789 -0.2441 -0.4499
    2MOL    C39  601   5.930   0.106   6.797 -0.5609 -0.8159 -0.3966
    2MOL    O40  602   5.993   0.010   6.729 -0.7973  0.3024  0.2143
    2MOL    C41  603   5.935   8.203   6.613 -0.2525  0.3349  0.4204
    2MOL    C42  604   5.904   8.053   6.624  0.3868 -0.2569 -0.3018
    2MOL    O43  605   5.817   0.140   6.763 -0.2257 -0.4069 -0.1839
    2MOL    C44  606   5.944   0.249   7.003  0.9495 -0.7768  0.8666
    2MOL    C45  607   6.012   0.294   7.115  0.0338 -0.4208 -0.2185
    2MOL    C46  608   5.948   0.351   7.224  0.0187  0.1051 -0.2300
    2MOL    C47  609   6.021   0.384   7.341 -0.0247  0.1970 -0.5221
    2MOL    H48  610   6.332   0.327   7.233 -0.2114 -2.8113  0.9514
    2MOL    H49  611   6.327   0.225   6.991 -0.6667 -0.7956 -3.8035
    2MOL    H50  612   6.202   0.114   6.823 -1.4194  2.8094 -2.3444
    2MOL    H51  613   6.017   8.197   6.541  1.2424  1.8146  1.9431
    2MOL    H52  614   5.846   8.247   6.568 -0.7634 -0.0689  1.0330
    2MOL    H53  615   5.881   8.013   6.526 -0.7216 -3.8669  1.3302
    2MOL    H54  616   5.979   7.989   6.672 -0.2991 -0.4458  0.5246
    2MOL    H55  617   5.837   0.251   6.989  1.1042 -1.6868 -0.5597
    2MOL    H56  618   5.840   0.365   7.226 -0.1387 -1.1272  2.0179
    2MOL    H57  619   5.969   0.425   7.426 -1.4109  2.5044 -2.4249
    2MOL    O58  620   5.874   8.032   6.885  0.0246 -0.3676 -0.4494
    2MOL    C59  621   5.779   8.002   6.812  0.2349  0.1864  0.0744
    2MOL    O60  622   5.780   8.022   6.678 -0.5190 -0.2890  0.0208
    2MOL    C61  623   5.653   7.945   6.868  0.0504 -0.9796  0.6463
    2MOL    C62  624   5.536   7.933   6.785 -0.0870 -0.4248  0.3613
    2MOL    C63  625   5.422   7.875   6.840 -0.2587 -0.1337 -0.0807
    2MOL    C64  626   5.307   7.859   6.760  0.8028  0.3184 -0.0666
    2MOL    C65  627   5.193   7.803   6.821 -0.4021  0.3296  0.6112
    2MOL    C66  628   5.187   7.771   6.955 -0.2995 -0.0149  0.2633
    2MOL    C67  629   5.074   7.702   7.008  0.1626 -0.0103 -0.0889
    2MOL    O68  630   5.063   7.696   7.145 -0.2373 -0.2751 -0.4376
    2MOL    C69  631   4.957   7.628   7.202 -0.2473  0.4200 -0.2069
    2MOL    C70  632   5.006   7.611   7.346  0.4750  0.9052  1.1787
    2MOL    O71  633   4.980   7.652   6.940  0.2953 -0.2448  0.2376
    2MOL    C72  634   5.307   7.781   7.028 -0.7974 -0.0726  0.5317
    2MOL    C73  635   5.427   7.832   6.973 -0.3486 -0.1667 -0.3653
    2MOL    C74  636   5.539   7.851   7.052 -0.4829 -0.2272 -0.4325
    2MOL    C75  637   5.658   7.900   6.996 -0.0834 -0.1705  0.6827
    2MOL    H76  638   5.527   7.975   6.686  1.1484  1.5552  1.0640
    2MOL    H77  639   5.307   7.894   6.657  0.7207  0.8562  0.1136
    2MOL    H78  640   5.107   7.788   6.757  0.6159  2.9613 -1.4607
    2MOL    H79  641   4.938   7.534   7.149 -1.4206  0.0111  0.9044
    2MOL    H80  642   4.867   7.688   7.186  1.4671  3.0239 -0.2830
    2MOL    H81  643   4.950   7.530   7.394  1.7530 -1.1386 -0.6570
    2MOL    H82  644   5.104   7.563   7.347  0.5193  0.9866  0.4609
    2MOL    H83  645   5.314   7.747   7.130  0.6204 -2.6906 -0.4044
    2MOL    H84  646   5.546   7.820   7.155  1.7641  0.6502 -0.3020
    2MOL    H85  647   5.742   7.900   7.063 -0.5149 -0.7940  1.2292
    2MOL    O86  648   4.777   7.754   7.402 -0.2157  0.0364  0.1779
    2MOL    C87  649   4.880   7.795   7.448 -0.6891  0.5132  0.0855
    2MOL    O88  650   5.005   7.735   7.418  0.2216  0.0048 -0.0488
    2MOL    C89  651   4.899   7.918   7.531 -0.1041 -0.7181  0.1272
    2MOL    C90  652   5.027   7.962   7.579  0.4153 -0.0551  0.2340
    2MOL    C91  653   5.031   8.065   7.677 -0.0899  0.1639 -0.1806
    2MOL    C92  654   5.157   8.101   7.732 -0.0514 -0.2072 -0.2286
    2MOL    C93  655   5.161   8.201   7.832 -0.7389 -0.5587  0.4254
    2MOL    C94  656   5.054   0.018   7.878  0.1510 -0.0078  0.0090
    2MOL    C95  657   5.066   0.132   7.972 -0.0479  0.1707  0.1585
    2MOL    O96  658   4.950   0.196   7.984 -0.8778 -0.0756 -0.8792
    2MOL    C97  659   4.943   0.314   8.060 -0.5629  0.2857 -0.1647
    2MOL    C98  660   4.910   0.271   8.205 -0.1925  0.3462  0.1001
    2MOL    O99  661   5.175   0.174   8.026 -0.2706 -0.5238 -0.2429
    2MOL   C100  662   4.922   8.235   7.821 -0.3133 -0.0556  0.1585
    2MOL   C101  663   4.913   8.135   7.716  0.2854 -0.5195 -0.6186
    2MOL   C102  664   4.787   8.097   7.660  0.0647  0.0550  0.1082
    2MOL   C103  665   4.780   7.981   7.579 -0.2216 -0.7332 -0.1725
    2MOL   H104  666   5.119   7.918   7.545 -0.5104 -2.5915  0.9160
    2MOL   H105  667   5.248   8.073   7.679  0.6344 -0.0694  0.8542
    2MOL   H106  668   5.258   8.241   7.857 -0.0585  0.3311 -3.2638
    2MOL   H107  669   4.861   0.375   8.021 -0.8922 -0.8468 -1.2686
    2MOL   H108  670   5.032   0.373   8.038 -0.4913 -0.0810 -0.8627
    2MOL   H109  671   4.989   0.199   8.227  1.6469  2.0397 -0.7956
    2MOL   H110  672   4.926   0.352   0.027  2.5242  0.8940 -1.0970
    2MOL   H111  673   4.830   0.038   7.844  1.1121  3.3235 -1.4602
    2MOL   H112  674   4.697   8.150   7.688  0.7803  1.4276 -0.1475
    2MOL   H113  675   4.682   7.941   7.560 -1.6282  1.7840  1.4856
    2MOL   O114  676   4.849   8.247   8.226 -0.3972  0.0783 -0.0521
    2MOL   C115  677   4.765   0.083   8.195  0.0739 -0.2953 -0.3580
    2MOL   O116  678   4.782   0.218   8.213  0.0141  0.0282  0.6122
    2MOL   C117  679   4.624   0.065   8.164 -0.0756 -0.8451  0.2302
    2MOL   C118  680   4.584   8.183   8.144 -0.0012 -0.3294 -0.0761
    2MOL   C119  681   4.446   8.150   8.144  0.5782  0.0360 -0.1580
    2MOL   C120  682   4.397   8.018   8.155  0.1465  0.1617  0.3214
    2MOL   C121  683   4.267   7.995   8.169 -0.4329 -0.3231 -0.2448
    2MOL   C122  684   4.169   8.097   8.176  0.1367 -0.3328 -0.2297
    2MOL   C123  685   4.025   8.073   8.213  0.0651  0.0558 -0.4054
    2MOL   O124  686   3.999   7.950   0.005 -0.1136 -0.0437 -0.9958
    2MOL   C125  687   3.864   7.922   0.036  0.1132 -0.2549  0.2727
    2MOL   C126  688   3.804   7.854   8.161  0.0989 -0.2990 -0.1571
    2MOL   O127  689   3.936   8.155   8.197 -0.1839 -0.2291  0.1897
    2MOL   C128  690   4.213   8.230   8.169  0.3854 -0.0517  0.3220
    2MOL   C129  691   4.351   0.003   8.150 -0.3632 -0.5866  0.1016
    2MOL   C130  692   4.392   0.135   8.154  0.1868 -0.2116  0.0336
    2MOL   C131  693   4.526   0.174   8.165  0.1017 -0.1818  0.9691
    2MOL   H132  694   4.653   8.100   8.149  0.3322 -0.0688 -0.3727
    2MOL   H133  695   4.466   7.936   8.138  0.3629  0.8160 -2.0792
    2MOL   H134  696   4.236   7.892   8.167 -0.7344 -0.2275 -0.4835
    2MOL   H135  697   3.813   8.011   0.074  2.2638  1.2142 -0.1909
    2MOL   H136  698   3.865   7.857   0.123 -0.0560 -0.2540  0.2766
    2MOL   H137  699   3.697   7.868   8.173 -0.0457 -1.2780 -0.2188
    2MOL   H138  700   3.840   7.906   8.072  2.2755 -0.5873  0.5176
    2MOL   H139  701   4.142   0.060   8.190  1.8644  1.4258 -0.1804
    2MOL   H140  702   4.322   0.217   8.151  0.1476 -0.3056 -2.1110
    2MOL   H141  703   4.549   0.279   8.166  2.4487 -0.6476  4.0461
    2MOL   O142  704   4.015   7.724   8.045 -0.5196  0.1813  0.2340
    2MOL   C143  705   3.930   7.659   8.107 -0.4330 -0.5254  0.2730
    2MOL   O144  706   3.830   7.710   8.164  0.1334 -0.3453 -0.3430
    2MOL   C145  707   3.930   7.511   8.127  0.3409 -0.5562  0.5223
    2MOL   C146  708   4.035   7.438   8.073  0.7635  0.1480 -0.1272
    2MOL   C147  709   4.038   7.298   8.083  0.2692  0.2758 -0.4573
    2MOL   C148  710   4.146   7.230   8.021  0.4406 -0.0043 -0.0183
    2MOL   C149  711   4.164   7.093   8.040  0.0101  0.6235 -0.6355
    2MOL   C150  712   4.072   7.023   8.120  0.4152 -0.1726  0.2727
    2MOL   C151  713   4.088   6.880   8.142 -0.0882  0.2687 -0.3553
    2MOL   O152  714   4.170   6.819   8.054  0.5188  0.3618  0.4445
    2MOL   C153  715   4.169   6.674   8.054 -0.2254 -0.9686 -0.5621
    2MOL   C154  716   4.299   6.622   8.102  0.6551  1.1099 -0.7340
    2MOL   O155  717   4.007   6.828   8.217 -0.3252 -0.2352  0.3738
    2MOL   C156  718   3.962   7.096   8.181  0.5799  0.6120 -0.2597
    2MOL   C157  719   3.940   7.233   8.159  0.2833 -0.7044 -0.0724
    2MOL   C158  720   3.836   7.304   8.217  0.3314  0.5928 -0.3933
    2MOL   C159  721   3.833   7.443   8.204 -0.0523 -0.3228 -0.3090
    2MOL   H160  722   4.116   7.491   8.025  0.5947  0.6025  0.0916
    2MOL   H161  723   4.209   7.285   7.953 -0.9055 -1.6341 -2.6840
    2MOL   H162  724   4.247   7.043   7.992  0.1535 -0.1962  0.4490
    2MOL   H163  725   4.164   6.630   7.954  0.4124  0.3056 -1.1637
    2MOL   H164  726   4.090   6.629   8.115 -2.7235  0.2496 -2.8259
    2MOL   H165  727   4.369   6.705   8.107 -0.0778  1.8067 -1.7920
    2MOL   H166  728   4.288   6.579   8.201 -2.6056  2.6768 -0.3348
    2MOL   H167  729   3.894   7.042   8.246  1.5014  0.9961  1.0615
    2MOL   H168  730   3.762   7.259   0.032  1.7548  0.1644  0.9811
    2MOL   H169  731   3.752   7.504   8.242  1.3255  1.4423 -0.1067
    2MOL   O170  732   4.555   6.573   8.054  0.3686  0.0527 -0.7606
    2MOL   C171  733   4.473   6.507   7.987  0.1518 -0.2667 -0.7459
    2MOL   O172  734   4.341   6.515   8.019 -0.0163  0.6669  0.5339
    2MOL   C173  735   4.504   6.422   7.864 -0.4885  0.2543 -0.7417
    2MOL   C174  736   4.401   6.373   7.777  0.1384 -0.2780  0.2225
    2MOL   C175  737   4.448   6.326   7.651  0.0475  0.6494 -0.5824
    2MOL   C176  738   4.352   6.285   7.560  0.1976  0.5690  0.0772
    2MOL   C177  739   4.391   6.230   7.431  0.3654 -0.4991 -0.2135
    2MOL   C178  740   4.530   6.224   7.396 -0.8100 -0.1263 -0.2138
    2MOL   C179  741   4.577   6.177   7.261 -0.1062 -0.3803  0.2119
    2MOL   O180  742   4.487   6.196   7.161 -0.4809  0.5398  0.3497
    2MOL   C181  743   4.531   6.180   7.027 -0.3063 -0.0894  0.0814
    2MOL   C182  744   4.560   6.318   6.963 -0.4443  0.6708  0.3810
    2MOL   O183  745   4.687   6.127   7.253 -0.0745 -0.2255 -0.0788
    2MOL   C184  746   4.625   6.268   7.490  0.2777  0.2991  0.0575
    2MOL   C185  747   4.588   6.312   7.622  0.1738 -0.1835  0.7466
    2MOL   C186  748   4.688   6.349   7.715 -0.2089  0.8974  0.3556
    2MOL   C187  749   4.641   6.409   7.831 -0.0875 -0.5517  0.5781
    2MOL   H188  750   4.297   6.377   7.803 -0.0868 -1.1312 -0.5211
    2MOL   H189  751   4.249   6.306   7.584 -0.6568 -0.7132 -2.3022
    2MOL   H190  752   4.316   6.205   7.357 -1.2109 -0.6463  1.3982
    2MOL   H191  753   4.456   6.119   6.977  0.0197 -0.1145 -0.3796
    2MOL   H192  754   4.622   6.119   7.020  0.2118  0.6680  0.1252
    2MOL   H193  755   4.590   6.297   6.860  0.4326  1.1004  0.5518
    2MOL   H194  756   4.465   6.371   6.947 -0.4717  0.3375 -0.6464
    2MOL   H195  757   4.731   6.248   7.484  0.1671 -0.6352  0.9186
    2MOL   H196  758   4.792   6.338   7.691  0.4680  1.8631  2.6955
    2MOL   H197  759   4.709   6.445   7.907  1.4599 -0.7613 -0.6752
    2MOL   O198  760   4.536   6.581   7.023  0.5227 -0.3351 -0.0928
    2MOL   C199  761   4.640   6.522   7.064 -0.4801 -0.1697  1.2502
    2MOL   O200  762   4.663   6.389   7.041 -0.3040 -0.6968 -0.0070
    2MOL   C201  763   4.742   6.590   7.140  0.0563 -0.2812  0.0962
    2MOL   C202  764   4.859   6.522   7.181  0.4208 -0.1208  0.1310
    2MOL   C203  765   4.961   6.598   7.246  0.0944 -0.2563 -0.2743
    2MOL   C204  766   5.076   6.535   7.298 -0.1988 -0.3647 -0.8085
    2MOL   C205  767   5.181   6.615   7.358  1.3584 -0.3190  0.3361
    2MOL   C206  768   5.159   6.749   7.393 -0.6428  0.6882  0.1996
    2MOL   C207  769   5.262   6.823   7.470  0.0637  0.0746  0.4081
    2MOL   O208  770   5.375   6.758   7.484 -0.7558 -0.5299 -0.0579
    2MOL   C209  771   5.474   6.820   7.563  0.4443  0.5588 -0.1130
    2MOL   C210  772   5.595   6.719   7.575 -0.4408  0.0522  0.1678
    2MOL   O211  773   5.240   6.937   7.513  0.2574 -0.3014  0.5267
    2MOL   C212  774   5.035   6.807   7.365  0.2697  0.4753 -0.3427
    2MOL   C213  775   4.943   6.736   7.282  0.0054 -0.1692  0.0944
    2MOL   C214  776   4.825   6.794   7.237 -0.6934 -0.4303 -0.7820
    2MOL   C215  777   4.730   6.725   7.168  1.1974  0.2334 -1.1004
    2MOL   H216  778   4.879   6.418   7.159  3.5055  0.8413 -1.8815
    2MOL   H217  779   5.091   6.431   7.274  0.7224 -0.1696 -1.0901
    2MOL   H218  780   5.279   6.571   7.369  1.0828 -1.2023 -0.7026
    2MOL   H219  781   5.438   6.833   7.666 -0.6596 -1.4184 -0.2308
    2MOL   H220  782   5.493   6.924   7.536 -1.0794  0.3346 -2.0639
    2MOL   H221  783   5.669   6.747   7.649  1.1057 -2.4812 -0.3789
    2MOL   H222  784   5.578   6.617   7.610  0.6870  0.9085  3.2839
    2MOL   H223  785   5.026   6.910   7.394  0.9632  0.1708  0.9816
    2MOL   H224  786   4.799   6.895   7.266  0.8338 -0.3103  0.2108
    2MOL   H225  787   4.642   6.781   7.138 -0.3096 -1.8182 -0.5789
    2MOL   O226  788   5.782   6.550   7.535 -0.3288 -0.8504 -0.5122
    2MOL   C227  789   5.750   6.622   7.440 -0.0276 -0.1903  0.2430
    2MOL   O228  790   5.649   6.706   7.440  0.6522  0.4220 -0.8468
    2MOL   C229  791   5.819   6.626   7.310 -0.2102  0.1893  0.6614
    2MOL   C230  792   5.774   6.703   7.199 -0.1138  1.0260  0.2146
    2MOL   C231  793   5.857   6.735   7.089 -0.2191  0.0885 -0.2000
    2MOL   C232  794   5.815   6.816   6.982 -0.0540  0.0870 -0.0879
    2MOL   C233  795   5.905   6.851   6.875 -0.2308 -0.3163 -0.6099
    2MOL   C234  796   6.032   6.799   6.874 -0.0140 -0.1977  0.0989
    2MOL   C235  797   6.128   6.826   6.758  0.5225  0.3885 -0.1906
    2MOL   O236  798   6.060   6.904   6.661 -0.1473 -0.3670  0.3879
    2MOL   C237  799   6.134   6.994   6.578  0.7078 -0.0507 -0.6193
    2MOL   C238  800   6.137   7.140   6.630  0.7399  0.8969 -0.1749
    2MOL   O239  801   6.246   6.791   6.750 -0.2397  0.1467 -0.0563
    2MOL   C240  802   6.077   6.715   6.979  0.2305 -0.4870 -0.6016
    2MOL   C241  803   5.989   6.685   7.081 -0.5388  0.4430 -0.0046
    2MOL   C242  804   6.032   6.603   7.189 -0.8205  0.2970 -0.0123
    2MOL   C243  805   5.948   6.570   7.297  0.5642 -0.7007 -0.3712
    2MOL   H244  806   5.676   6.747   7.204 -0.4760  0.2440  0.0321
    2MOL   H245  807   5.718   6.863   6.982  0.2633  0.7532  0.1186
    2MOL   H246  808   5.868   6.911   6.793 -2.2892  1.0979  1.3083
    2MOL   H247  809   6.085   6.983   6.481  0.0276  0.9240 -0.4054
    2MOL   H248  810   6.238   6.965   6.569  0.5409 -0.1279 -2.5783
    2MOL   H249  811   6.183   7.158   6.727  3.2027 -0.9143 -0.9498
    2MOL   H250  812   6.195   7.195   6.555 -0.1068 -1.0843 -2.3669
    2MOL   H251  813   6.180   6.684   6.980 -0.0797 -1.5043  0.2641
    2MOL   H252  814   6.127   6.553   7.185 -0.5871  0.6985  0.4346
    2MOL   H253  815   5.979   6.508   7.381 -0.2638  0.5737  0.8976
    2MOL   O254  816   5.969   7.174   6.850  0.5889  0.0945  0.1357
    2MOL   C255  817   5.926   7.185   6.733 -0.4215 -0.1926 -0.5261
    2MOL   O256  818   6.007   7.196   6.622 -0.2997 -0.1431 -0.1594
    2MOL   C257  819   5.782   7.199   6.699 -0.6001 -0.0793 -0.2776
    2MOL   C258  820   5.739   7.263   6.579 -0.5501 -1.1183 -0.3053
    2MOL   C259  821   5.609   7.266   6.538 -0.5382 -0.1179 -0.5209
    2MOL   C260  822   5.582   7.322   6.412 -0.7431 -0.2537  0.5825
    2MOL   C261  823   5.455   7.303   6.360 -0.3843  0.7836  1.0706
    2MOL   C262  824   5.346   7.247   6.428 -0.1183  0.7991 -0.4735
    2MOL   C263  825   5.212   7.241   6.364 -0.0588 -0.3502 -0.2607
    2MOL   O264  826   5.129   7.156   6.418 -0.3774 -0.2496 -0.2371
    2MOL   C265  827   5.005   7.123   6.349 -0.1526  0.5312  0.2691
    2MOL   C266  828   4.945   7.013   6.434  0.9584  0.3769 -0.9011
    2MOL   O267  829   5.181   7.304   6.266  1.0056 -0.2267 -0.5629
    2MOL   C268  830   5.376   7.199   6.564 -0.2037  0.1416 -0.8376
    2MOL   C269  831   5.508   7.205   6.612 -0.4763 -0.3584 -0.1609
    2MOL   C270  832   5.547   7.145   6.730  0.1776  0.1372 -0.1034
    2MOL   C271  833   5.681   7.144   6.780  0.2258  0.9798 -0.2072
    2MOL   H272  834   5.820   7.311   6.526  0.2150 -1.2395  0.7514
    2MOL   H273  835   5.660   7.371   6.357 -2.7547  2.6509  0.2109
    2MOL   H274  836   5.434   7.342   6.262  0.7299 -1.5401 -0.1366
    2MOL   H275  837   5.041   7.095   6.251  1.1460  0.7252  0.6833
    2MOL   H276  838   4.946   7.214   6.335  1.1456  0.8350 -3.8130
    2MOL   H277  839   4.932   7.046   6.537  0.1514 -1.1789 -0.4905
    2MOL   H278  840   4.844   6.992   6.400 -0.2918  3.0292  1.0033
    2MOL   H279  841   5.293   7.164   6.624  0.9172  1.8452  1.8185
    2MOL   H280  842   5.472   7.105   6.797  0.1833  1.7084  0.8600
    2MOL   H281  843   5.703   7.096   6.874 -0.9409  0.1555 -0.3478
    2MOL   O282  844   4.959   6.839   6.228  0.4364  1.1210 -0.1538
    2MOL   C283  845   5.021   6.819   6.331 -0.1074  0.3673 -0.2466
    2MOL   O284  846   5.028   6.898   6.434  1.2855 -0.4674 -0.0245
    2MOL   C285  847   5.092   6.686   6.359  0.2263  0.0811 -0.1238
    2MOL   C286  848   5.154   6.665   6.487 -0.2075 -0.5327 -0.3207
    2MOL   C287  849   5.220   6.535   6.507 -0.3173 -0.3961 -0.0479
    2MOL   C288  850   5.281   6.498   6.630 -0.2303  0.2913  0.2513
    2MOL   C289  851   5.333   6.360   6.651  0.2045  0.3969 -0.2285
    2MOL   C290  852   5.319   6.268   6.544  0.2165  0.0393 -0.1375
    2MOL   C291  853   5.382   6.129   6.550 -0.0974 -0.1956  0.6902
    2MOL   O292  854   5.435   6.102   6.670 -0.1493 -0.4959  0.0733
    2MOL   C293  855   5.518   5.990   6.693 -0.6799  1.0939 -0.6125
    2MOL   C294  856   5.432   5.885   6.770 -0.1621  0.2902  0.5966
    2MOL   O295  857   5.359   6.046   6.467 -0.4648  0.3204 -1.1377
    2MOL   C296  858   5.259   6.305   6.425 -0.1241  0.2444 -0.0986
    2MOL   C297  859   5.212   6.436   6.405 -0.2761 -0.0246  0.1990
    2MOL   C298  860   5.160   6.464   6.277  0.4320  0.2706  0.1011
    2MOL   C299  861   5.100   6.591   6.261 -0.1464 -0.6715 -0.3099
    2MOL   H300  862   5.157   6.745   6.559  0.9345 -1.3400  0.5569
    2MOL   H301  863   5.289   6.566   6.714  1.0634  1.9284 -1.1509
    2MOL   H302  864   5.380   6.333   6.745 -0.8355 -0.9713 -0.0879
    2MOL   H303  865   5.606   6.004   6.756 -0.9910 -1.3821  0.4369
    2MOL   H304  866   5.559   5.948   6.601 -1.1484 -0.3893 -0.1619
    2MOL   H305  867   5.501   5.808   6.804  0.7782  1.2052  0.7922
    2MOL   H306  868   5.372   5.925   6.851 -0.9229  0.7963 -0.1999
    2MOL   H307  869   5.251   6.228   6.349  0.0962  0.1349 -0.0106
    2MOL   H308  870   5.160   6.395   6.194 -0.3029  0.6234 -0.2005
    2MOL   H309  871   5.056   6.609   6.164 -2.0545  2.9135  1.1408
    2MOL   O310  872   5.245   5.694   6.840 -0.3072  0.0563  0.4868
    2MOL   C311  873   5.244   5.746   6.721 -0.0977 -0.3372 -0.4424
    2MOL   O312  874   5.332   5.832   6.681  0.3546 -0.2313  0.0330
    2MOL   C313  875   5.140   5.729   6.629 -0.3947 -1.1029  0.1846
    2MOL   C314  876   5.018   5.663   6.663 -0.3701  0.1929 -0.6628
    2MOL   C315  877   4.911   5.659   6.569  0.0032 -0.0412 -0.0998
    2MOL   C316  878   4.790   5.595   6.615  0.1689 -0.0709  0.1168
    2MOL   C317  879   4.683   5.589   6.528  0.1534  0.3942 -0.0523
    2MOL   C318  880   4.689   5.644   6.398 -0.5278  0.2041  0.0761
    2MOL   C319  881   4.565   5.624   6.314 -0.0177  0.7362  0.5177
    2MOL   O320  882   4.584   5.668   6.189  0.6039  0.4846 -0.0854
    2MOL   C321  883   4.476   5.667   6.102 -0.2382 -0.7370  0.2119
    2MOL   C322  884   4.401   5.802   6.116 -0.0388 -0.2144  0.1070
    2MOL   O323  885   4.460   5.568   6.356  0.2343 -0.3454 -0.9038
    2MOL   C324  886   4.802   5.709   6.355 -0.5369 -0.0524  0.4286
    2MOL   C325  887   4.913   5.728   6.444  0.3541  1.0541  0.0245
    2MOL   C326  888   5.035   5.788   6.408 -0.0669 -1.0219  0.4204
    2MOL   C327  889   5.146   5.784   6.500  0.1462 -0.0562  0.1349
    2MOL   H328  890   5.009   5.613   6.757  0.7599 -1.9897 -1.6806
    2MOL   H329  891   4.784   5.551   6.713 -0.6028 -3.1565 -1.2577
    2MOL   H330  892   4.596   5.542   6.571  1.3374 -0.4110  1.4978
    2MOL   H331  893   4.416   5.578   6.118 -0.8392 -0.7853 -2.1818
    2MOL   H332  894   4.511   5.658   5.999 -2.0219 -2.8863 -0.2378
    2MOL   H333  895   4.473   5.879   6.089  1.7488 -1.1102  2.1175
    2MOL   H334  896   4.315   5.819   6.051  0.8145  0.7332 -0.8004
    2MOL   H335  897   4.798   5.748   6.254 -0.5624  2.7771  1.4733
    2MOL   H336  898   5.043   5.820   6.305  0.8793 -1.8660  0.2184
    2MOL   H337  899   5.240   5.825   6.466  0.2665  2.7080  3.5682
    2MOL   O338  900   4.312   6.051   6.217 -0.0956 -0.5099  0.2748
    2MOL   C339  901   4.307   5.945   6.289  0.5831 -0.6903 -0.0916
    2MOL   O340  902   4.342   5.820   6.246  0.7008  0.7590 -0.1074
    2MOL   C341  903   4.271   5.943   6.436 -0.5111  0.4080 -0.2910
    2MOL   C342  904   4.178   6.032   6.496 -0.0603  0.0215 -0.2576
    2MOL   C343  905   4.159   6.034   6.639 -0.0392  0.6601 -0.1116
    2MOL   C344  906   4.061   6.117   6.699 -0.1620  0.4856 -0.3982
    2MOL   C345  907   4.050   6.118   6.841  0.1605  0.0369  0.2188
    2MOL   C346  908   4.131   6.035   6.918  0.0341  0.4372 -0.5530
    2MOL   C347  909   4.134   6.041   7.061 -0.4733 -0.2569  0.0268
    2MOL   O348  910   4.014   6.072   7.113  0.2331  0.0765  0.1079
    2MOL   C349  911   4.005   6.097   7.248  0.2071 -0.0356 -0.3642
    2MOL   C350  912   3.985   5.968   7.328 -0.0616  0.5594 -0.1420
    2MOL   O351  913   4.239   6.024   7.132  0.5331 -0.0994 -0.0809
    2MOL   C352  914   4.214   5.945   6.855  0.0771 -0.0037  0.2094
    2MOL   C353  915   4.242   5.953   6.722  0.4128  0.3037  1.1176
    2MOL   C354  916   4.338   5.865   6.662  0.5690 -0.8539  0.0532
    2MOL   C355  917   4.341   5.858   6.522  0.1302  0.2587 -0.8228
    2MOL   H356  918   4.125   6.107   6.439  0.2531  0.3991 -0.0578
    2MOL   H357  919   3.995   6.190   6.656  0.9074  1.3266 -0.6408
    2MOL   H358  920   3.973   6.175   6.891  0.3080 -1.0003  1.6434
    2MOL   H359  921   3.907   6.143   7.257  1.1939  1.8384  1.3400
    2MOL   H360  922   4.085   6.163   7.284  0.5716  0.2046 -1.5666
    2MOL   H361  923   3.921   5.896   7.277  3.1412 -2.9963  0.6891
    2MOL   H362  924   4.079   5.913   7.322  0.5301  1.4062  1.0658
    2MOL   H363  925   4.264   5.871   6.915  1.3862  0.5978 -0.1141
    2MOL   H364  926   4.396   5.800   6.726 -1.0917 -2.5982 -0.1920
    2MOL   H365  927   4.411   5.788   6.478  1.4256  0.5750  0.7169
    2MOL   O366  928   3.726   5.976   7.413  0.0752  0.2083 -0.0937
    2MOL   C367  929   3.817   5.985   7.500  0.0372 -0.1903 -0.7575
    2MOL   O368  930   3.945   6.002   7.467  0.0060  0.0496  0.2294
    2MOL   C369  931   3.788   5.980   7.647  0.8084  0.0179 -0.1850
    2MOL   C370  932   3.897   5.985   7.737 -0.5652 -0.4760 -0.1191
    2MOL   C371  933   3.876   6.001   7.880  0.2027  0.0790 -0.2634
    2MOL   C372  934   3.988   6.024   7.959 -0.8516 -0.8747  0.1221
    2MOL   C373  935   3.965   6.037   8.095  0.1853  0.0683 -0.4382
    2MOL   C374  936   3.836   6.043   8.146  0.0157 -0.5216 -0.1672
    2MOL   C375  937   3.815   6.059   0.043  0.3793  0.0685  0.1375
    2MOL   O376  938   3.693   6.097   0.077  0.2440 -0.0022  0.1857
    2MOL   C377  939   3.652   6.123   0.209 -0.0041 -0.2996  0.2172
    2MOL   C378  940   3.546   6.229   0.224 -0.1617  0.0031 -0.1828
    2MOL   O379  941   3.900   6.047   0.133 -0.1344  0.2925 -0.0054
    2MOL   C380  942   3.724   6.034   8.067  0.6070  0.4049  0.6274
    2MOL   C381  943   3.741   6.005   7.930 -0.3782 -0.0456 -0.5092
    2MOL   C382  944   3.636   5.992   7.838 -0.6491 -0.0234 -0.6857
    2MOL   C383  945   3.659   5.975   7.700 -0.3711  0.9850  0.0640
    2MOL   H384  946   4.001   5.978   7.708 -0.2627  0.3388  0.7386
    2MOL   H385  947   4.089   6.020   7.920 -0.3678 -1.0833  1.3957
    2MOL   H386  948   4.043   6.035   8.170 -0.5646  0.9700  0.3826
    2MOL   H387  949   3.731   6.152   0.279 -0.6850 -0.1338  0.9282
    2MOL   H388  950   3.613   6.025   0.234 -0.2416 -0.2678 -0.0273
    2MOL   H389  951   3.597   6.321   0.252  1.1080 -0.9633  0.7795
    2MOL   H390  952   3.496   6.232   0.127  0.2082 -1.2700 -0.4308
    2MOL   H391  953   3.622   6.053   8.098  0.2493 -0.0642 -0.2260
    2MOL   H392  954   3.535   6.006   7.875  0.7860  1.6676  2.8026
    2MOL   H393  955   3.577   5.952   7.633  0.1431  0.6166 -0.4345
    2MOL   O394  956   3.566   6.219   0.496  0.2413  0.0963  0.2474
    2MOL   C395  957   3.470   6.167   0.442 -1.0560  0.2894  1.1496
    2MOL   O396  958   3.444   6.177   0.316 -0.0572 -0.0494 -0.7426
    2MOL   C397  959   3.382   6.082   0.513 -0.3160  0.4743 -0.3102
    2MOL   C398  960   3.410   6.057   0.650 -0.3817  0.8202 -0.8472
    2MOL   C399  961   3.327   5.977   0.729 -0.4484  1.1118 -0.0014
    2MOL   C400  962   3.356   5.970   0.868  0.2900  0.4409  0.7522
    2MOL   C401  963   3.270   5.902   0.956  0.2878 -0.5411 -0.6412
    2MOL   C402  964   3.164   5.826   0.904 -0.0223  0.6501 -0.0152
    2MOL   C403  965   3.077   5.744   0.997 -0.0190  0.3234 -0.6662
    2MOL   O404  966   3.016   5.644   0.934  0.0574  0.0037  0.6796
    2MOL   C405  967   2.913   5.576   0.988  0.6864 -0.3928 -0.4217
    2MOL   C406  968   2.780   5.586   0.902 -0.4686 -0.1450  0.3234
    2MOL   O407  969   3.073   5.763   1.122 -0.3473  0.2829 -0.4731
    2MOL   C408  970   3.138   5.839   0.765  0.1584 -0.6634  0.2530
    2MOL   C409  971   3.221   5.914   0.679  0.1154  0.8752 -0.0418
    2MOL   C410  972   3.178   5.952   0.552 -0.6189  0.1712 -0.2183
    2MOL   C411  973   3.259   6.033   0.470  0.5264  0.6569  0.3953
    2MOL   H412  974   3.498   6.107   0.689  0.9372 -2.4899  0.6239
    2MOL   H413  975   3.436   6.034   0.902 -0.5766  2.2055 -0.4271
    2MOL   H414  976   3.293   5.913   1.061 -3.4008 -3.2535  0.5909
    2MOL   H415  977   2.900   5.592   1.095  1.3869 -0.2416 -0.3570
    2MOL   H416  978   2.941   5.471   0.982 -1.9818 -1.0902 -1.3836
    2MOL   H417  979   2.813   5.539   0.809 -0.2315 -1.1169  0.9015
    2MOL   H418  980   2.699   5.524   0.938 -1.8177 -0.0513 -2.4159
    2MOL   H419  981   3.052   5.795   0.717  0.7972 -0.6495 -0.9168
    2MOL   H420  982   3.097   5.890   0.517 -2.2246  3.2641 -2.1819
    2MOL   H421  983   3.227   6.046   0.367 -0.1063  1.4385  0.6910
    2MOL   O422  984   2.560   5.733   1.011 -0.1160 -0.2423 -0.4572
    2MOL   C423  985   2.628   5.777   0.917 -0.1564  0.2864  0.3678
    2MOL   O424  986   2.746   5.721   0.866 -0.0488  1.1217  0.2507
    2MOL   C425  987   2.594   5.893   0.842 -0.6423 -0.2045  0.2617
    2MOL   C426  988   2.459   5.938   0.844 -0.4136 -0.8916  0.3217
    2MOL   C427  989   2.420   6.049   0.770  0.4142 -0.2092  0.2667
    2MOL   C428  990   2.285   6.088   0.767 -0.5730  0.8308  0.5037
    2MOL   C429  991   2.242   6.195   0.684 -0.0534 -0.3404  0.3974
    2MOL   C430  992   2.336   6.263   0.596 -0.0210  0.3372  0.4751
    2MOL   C431  993   2.288   6.368   0.497  0.0739  0.1531 -1.1346
    2MOL   O432  994   2.175   6.424   0.542 -0.4048 -0.1117 -0.1111
    2MOL   C433  995   2.106   6.520   0.464  0.3758 -0.4073 -0.5794
    2MOL   C434  996   2.144   6.667   0.503  0.2774  1.1214  0.7137
    2MOL   O435  997   2.354   6.403   0.400  0.1353 -0.1533  0.2314
    2MOL   C436  998   2.470   6.229   0.604 -0.5890 -0.1537 -0.7696
    2MOL   C437  999   2.510   6.115   0.686 -0.2867 -0.9779  0.4750
    2MOL   C438 1000   2.643   6.063   0.672 -0.0088 -0.1732  0.4900
    2MOL   C439 1001   2.688   5.958   0.754  0.2145 -0.2709 -0.0107
    2MOL   H440 1002   2.394   5.885   0.911 -0.6071 -0.1749  0.7006
    2MOL   H441 1003   2.214   6.026   0.819  0.5033 -0.5543  0.3480
    2MOL   H442 1004   2.138   6.224   0.682 -0.3248 -1.3633 -1.2772
    2MOL   H443 1005   1.999   6.505   0.483  0.4184 -2.3160 -1.7869
    2MOL   H444 1006   2.127   6.505   0.358 -0.0377  0.0171 -0.7261
    2MOL   H445 1007   2.051   6.721   0.489  0.1752  0.6359 -0.6236
    2MOL   H446 1008   2.152   6.681   0.611 -0.7684  0.7058  0.8505
    2MOL   H447 1009   2.535   6.285   0.540 -1.0494  2.1436  0.7232
    2MOL   H448 1010   2.714   6.095   0.597  1.0060  0.3105  1.6299
    2MOL   H449 1011   2.791   5.925   0.741  0.8695  1.6939 -0.0111
    2MOL   O450 1012   2.129   6.934   0.475  0.0145 -0.2823  0.1575
    2MOL   C451 1013   2.203   6.876   0.402 -0.2802  0.1001 -0.0593
    2MOL   O452 1014   2.228   6.739   0.410  0.3326 -0.2038  0.5174
    2MOL   C453 1015   2.288   6.930   0.292 -0.1190 -0.5509 -0.6841
    2MOL   C454 1016   2.265   7.061   0.258 -0.0449 -0.2836 -0.1293
    2MOL   C455 1017   2.349   7.133   0.168  0.0476 -0.1941  0.1987
    2MOL   C456 1018   2.333   7.271   0.140  0.0387  0.1288 -0.1158
    2MOL   C457 1019   2.424   7.340   0.062 -0.3567 -0.5705 -0.4899
    2MOL   C458 1020   2.540   7.279   0.014 -0.3488 -0.2285  0.6705
    2MOL   C459 1021   2.640   7.356   8.173 -0.3345 -0.2907  0.3108
    2MOL   O460 1022   2.752   7.297   8.151 -0.3216  0.3551  0.3007
    2MOL   C461 1023   2.844   7.321   8.046  1.0009 -0.6544 -0.3762
    2MOL   C462 1024   2.778   7.314   7.901 -0.4941 -0.4028  0.5283
    2MOL   O463 1025   2.615   7.467   8.129 -0.6450 -0.4537  0.4896
    2MOL   C464 1026   2.564   7.140   0.045 -0.0343  0.2512  0.3550
    2MOL   C465 1027   2.464   7.071   0.121 -0.5758 -0.5692 -0.4205
    2MOL   C466 1028   2.488   6.936   0.158 -0.1603  0.6344  0.2840
    2MOL   C467 1029   2.397   6.859   0.231 -0.1898 -0.7326  1.1342
    2MOL   H468 1030   2.192   7.121   0.310 -0.5091  1.2426 -2.4171
    2MOL   H469 1031   2.245   7.320   0.180  0.5226  2.9031 -2.2586
    2MOL   H470 1032   2.393   7.439   0.034  2.3641 -0.5350 -3.7121
    2MOL   H471 1033   2.922   7.245   8.042  1.4839 -0.2887  1.5527
    2MOL   H472 1034   2.896   7.414   8.071  1.2025 -0.7650 -0.3869
    2MOL   H473 1035   2.726   7.406   7.875 -0.1181 -0.8474 -1.8649
    2MOL   H474 1036   2.845   7.301   7.817 -0.6024 -1.5290  0.6123
    2MOL   H475 1037   2.660   7.102   0.014 -0.0119 -0.8918  1.8065
    2MOL   H476 1038   2.580   6.889   0.127 -0.3615  0.4675 -0.0659
    2MOL   H477 1039   2.419   6.755   0.252  1.0207 -0.7704 -0.2102
    2MOL   O478 1040   2.862   7.045   7.897  0.2027  0.5035 -0.1517
    2MOL   C479 1041   2.739   7.073   7.900 -0.5887  0.6328 -0.9422
    2MOL   O480 1042   2.692   7.203   7.903  0.8354 -0.0516 -0.2700
    2MOL   C481 1043   2.632   6.970   7.895  0.4636  0.6025 -0.1387
    2MOL   C482 1044   2.509   6.992   7.951 -0.7121  0.3235 -0.0231
    2MOL   C483 1045   2.409   6.888   7.956  0.6276  0.2207 -0.0171
    2MOL   C484 1046   2.285   6.905   8.027 -0.7194  0.5591  0.3565
    2MOL   C485 1047   2.188   6.804   8.016 -0.1028  0.3406  0.1587
    2MOL   C486 1048   2.208   6.680   7.946  0.0088  0.2368  0.1689
    2MOL   C487 1049   2.100   6.578   7.958  0.2923 -0.3695 -0.3727
    2MOL   O488 1050   2.142   6.451   7.926  0.1561 -0.0746 -0.5104
    2MOL   C489 1051   2.041   6.354   7.936 -0.2993 -0.6391 -0.2313
    2MOL   C490 1052   2.107   6.221   7.933 -0.3957  0.0026  0.7849
    2MOL   O491 1053   1.984   6.601   7.996  0.9584  0.3887  0.0746
    2MOL   C492 1054   2.338   6.661   7.887 -0.2217  0.1207  0.2799
    2MOL   C493 1055   2.434   6.767   7.892 -0.9275 -0.8440 -0.1512
    2MOL   C494 1056   2.559   6.746   7.825  0.2453 -0.1093  0.0784
    2MOL   C495 1057   2.666   6.843   7.838 -0.6059 -0.8869  0.5720
    2MOL   H496 1058   2.487   7.086   8.001 -1.7341 -0.5676  1.2380
    2MOL   H497 1059   2.271   6.987   8.095 -0.3708  2.2154 -1.5377
    2MOL   H498 1060   2.099   6.822   8.074 -0.0642 -0.9585  0.6331
    2MOL   H499 1061   1.972   6.351   7.852  0.3534 -1.0961 -0.7640
    2MOL   H500 1062   1.992   6.355   8.034 -0.9103  0.5227 -0.5462
    2MOL   H501 1063   2.180   6.215   8.013  1.5678  1.4115 -0.8251
    2MOL   H502 1064   2.033   6.146   7.957 -1.1258  0.9172  1.4126
    2MOL   H503 1065   2.356   6.569   7.834 -3.5810  0.9568 -2.4529
    2MOL   H504 1066   2.575   6.653   7.772  0.7952 -0.9887  1.7592
    2MOL   H505 1067   2.756   6.820   7.783 -1.4559 -0.7888 -0.8655
    2MOL   O506 1068   2.369   6.304   7.823  0.0062 -0.4453  0.1998
    2MOL   C507 1069   2.285   6.228   7.759 -0.3352  0.6015  0.0058
    2MOL   O508 1070   2.160   6.188   7.807  0.1266 -0.9371  0.1203
    2MOL   C509 1071   2.328   6.175   7.628 -0.5075  1.1943  0.2003
    2MOL   C510 1072   2.236   6.137   7.533  0.3520 -0.4803 -0.1533
    2MOL   C511 1073   2.274   6.101   7.402  0.1190  0.5256 -0.5686
    2MOL   C512 1074   2.177   6.065   7.308 -0.2043  0.2447  0.8107
    2MOL   C513 1075   2.213   6.048   7.170 -0.4073  0.3263  0.3081
    2MOL   C514 1076   2.347   6.056   7.127  0.5503  0.2551 -0.1487
    2MOL   C515 1077   2.377   6.029   6.986  0.3883 -0.1819 -0.5662
    2MOL   O516 1078   2.506   5.990   6.977 -0.0994  0.1700  0.3453
    2MOL   C517 1079   2.583   5.988   6.860 -0.3673  0.4810 -0.1834
    2MOL   C518 1080   2.650   6.129   6.835  0.2468 -0.0584 -0.4501
    2MOL   O519 1081   2.306   6.041   6.882  0.3888 -0.4814 -0.2466
    2MOL   C520 1082   2.442   6.077   7.229  0.0796  0.3926 -0.1949
    2MOL   C521 1083   2.407   6.101   7.363 -0.3012 -0.1513 -0.8604
    2MOL   C522 1084   2.504   6.123   7.462  0.0887 -0.0543  0.0116
    2MOL   C523 1085   2.467   6.168   7.593  0.6978  0.0350 -0.1795
    2MOL   H524 1086   2.130   6.150   7.552  0.2711 -1.7131  0.3291
    2MOL   H525 1087   2.071   6.063   7.331 -0.3531 -2.0971  0.0696
    2MOL   H526 1088   2.133   6.025   7.101 -0.2109  1.6195 -0.3867
    2MOL   H527 1089   2.522   5.972   6.771  1.9843 -0.2125 -1.7366
    2MOL   H528 1090   2.665   5.916   6.866 -0.0388  1.0622  2.7040
    2MOL   H529 1091   2.720   6.110   6.754 -0.2046  1.8544 -1.3017
    2MOL   H530 1092   2.577   6.207   6.821 -0.9553 -0.6726  2.0383
    2MOL   H531 1093   2.546   6.074   7.203  0.6345 -0.0750  1.9633
    2MOL   H532 1094   2.605   6.124   7.426 -0.5003 -0.0706 -1.7028
    2MOL   H533 1095   2.547   6.199   7.660  0.5483  0.2373 -0.0935
    2MOL   O534 1096   2.624   6.333   7.023 -0.2291  0.4752 -0.4501
    2MOL   C535 1097   2.724   6.260   7.023  0.5704 -0.7365  0.0948
    2MOL   O536 1098   2.743   6.158   6.935  0.4642 -0.2894  0.5691
    2MOL   C537 1099   2.818   6.251   7.130  0.9088 -0.5849 -0.0873
    2MOL   C538 1100   2.949   6.217   7.098 -0.4056 -0.1053 -0.4271
    2MOL   C539 1101   3.049   6.204   7.202 -0.1698 -0.1178  0.2645
    2MOL   C540 1102   3.187   6.164   7.178 -0.1525 -0.7914  0.6631
    2MOL   C541 1103   3.274   6.160   7.285  0.0249  0.0030  0.1124
    2MOL   C542 1104   3.233   6.182   7.419  0.2163  0.1974 -0.2087
    2MOL   C543 1105   3.325   6.161   7.533 -0.2413  0.8657  0.0083
    2MOL   O544 1106   3.278   6.204   7.657  0.3081 -0.3448  0.4066
    2MOL   C545 1107   3.366   6.212   7.771 -0.3721 -0.4317  0.5859
    2MOL   C546 1108   3.348   6.354   7.828 -0.2344  0.1046  0.1009
    2MOL   O547 1109   3.436   6.108   7.519 -0.4847 -0.1698  0.3625
    2MOL   C548 1110   3.098   6.221   7.443  0.1840  0.1066  0.4885
    2MOL   C549 1111   3.012   6.231   7.336  0.5133  1.1707  0.2010
    2MOL   C550 1112   2.878   6.270   7.365  0.8876  0.4145  0.1786
    2MOL   C551 1113   2.782   6.289   7.259 -0.3477 -0.2014 -0.1910
    2MOL   H552 1114   2.968   6.197   6.994 -1.6575 -2.6725 -0.1934
    2MOL   H553 1115   3.228   6.131   7.083  0.9974 -1.1702  1.2841
    2MOL   H554 1116   3.364   6.107   7.260  0.2829  0.4264  0.1373
    2MOL   H555 1117   3.472   6.192   7.758 -0.3192 -1.2853  2.2093
    2MOL   H556 1118   3.337   6.141   7.848 -1.1477 -1.5115 -0.6599
    2MOL   H557 1119   3.438   6.392   7.876  0.5379 -0.0451 -1.1968
    2MOL   H558 1120   3.259   6.340   7.889 -0.8615 -1.7975 -1.2106
    2MOL   H559 1121   3.070   6.234   7.546  0.9765  0.8769  0.6104
    2MOL   H560 1122   2.842   6.287   7.465 -1.8160 -0.2481 -0.6451
    2MOL   H561 1123   2.684   6.329   7.275  0.2030  1.3314 -0.6022
    2MOL   H562 1124   3.333   6.434   7.755  1.3319  1.4102  1.1697
    3MOL     O1 1125   0.565   5.652   3.342  0.7873 -0.5166 -0.0627
    3MOL     C2 1126   0.573   5.644   3.214 -0.2100 -0.0401 -0.1566
    3MOL     O3 1127   0.692   5.621   3.151  0.1058  0.4614 -0.1137
    3MOL     C4 1128   0.452   5.666   3.126 -0.2201  0.7252  0.6925
    3MOL     C5 1129   0.320   5.683   3.176  0.2148  0.2841  0.1889
    3MOL     C6 1130   0.212   5.694   3.088 -0.0240  0.2841  0.5366
    3MOL     C7 1131   0.088   5.714   3.146  0.1814 -0.1016  0.8227
    3MOL     C8 1132   8.223   5.726   3.065 -0.9617 -0.4129 -0.8775
    3MOL     C9 1133   8.235   5.721   2.929  0.2841 -0.9861  0.0697
    3MOL    C10 1134   8.108   5.733   2.847 -0.4531 -0.1853 -0.0843
    3MOL    O11 1135   8.121   5.717   2.709 -0.3717 -0.3211 -0.7143
    3MOL    C12 1136   8.015   5.741   2.621 -0.8588 -0.1832  0.4088
    3MOL    C13 1137   7.956   5.602   2.606  1.2397  0.1709 -0.0128
    3MOL    O14 1138   8.004   5.765   2.899  0.3844  0.0521 -0.3828
    3MOL    C15 1139   0.115   5.712   2.867 -0.0448  0.6140 -0.0477
    3MOL    C16 1140   0.230   5.692   2.948  0.0619  0.5954  0.6449
    3MOL    C17 1141   0.361   5.679   2.891  0.8264  0.2617  0.0576
    3MOL    C18 1142   0.472   5.672   2.985 -0.4307  0.4483 -0.1392
    3MOL    H19 1143   0.297   5.667   3.281 -2.4681 -0.5226 -0.4912
    3MOL    H20 1144   0.070   5.706   3.252  1.3741 -0.0120  1.0471
    3MOL    H21 1145   8.126   5.736   3.112  0.3740 -1.5619  2.2946
    3MOL    H22 1146   7.945   5.815   2.661 -1.5504 -0.3180 -0.5531
    3MOL    H23 1147   8.065   5.771   2.529  1.3090 -4.5130  0.0359
    3MOL    H24 1148   7.919   5.591   2.504  0.7067  1.0779  0.0772
    3MOL    H25 1149   8.027   5.519   2.610  0.5790 -0.4261 -0.4931
    3MOL    H26 1150   0.120   5.714   2.760  2.4157 -1.6389 -0.0106
    3MOL    H27 1151   0.380   5.665   2.786  0.4545 -2.2007  0.2841
    3MOL    H28 1152   0.570   5.654   2.943 -1.4303 -1.5263 -1.7289
    3MOL    H29 1153   0.744   5.581   3.219 -0.1218 -0.5468 -0.5276
    3MOL    O30 1154   7.693   5.571   2.531  0.1081 -0.0745 -0.0999
    3MOL    C31 1155   7.724   5.585   2.648 -0.2547  1.3499  0.5684
    3MOL    O32 1156   7.851   5.591   2.699  0.8893  0.4124 -0.5378
    3MOL    C33 1157   7.623   5.570   2.756 -0.4271  1.0247  0.2389
    3MOL    C34 1158   7.650   5.614   2.885  0.6278 -0.1309 -0.0635
    3MOL    C35 1159   7.552   5.605   2.990 -0.0725 -0.2182 -0.1494
    3MOL    C36 1160   7.575   5.658   3.113 -0.2584  0.2523 -0.0600
    3MOL    C37 1161   7.489   5.639   3.223  0.5474 -0.1509  0.5313
    3MOL    C38 1162   7.368   5.571   3.202 -0.5043 -0.4683  0.2999
    3MOL    C39 1163   7.278   5.544   3.320 -0.3573  0.6267  0.1555
    3MOL    O40 1164   7.158   5.506   3.278  0.0894  0.2521  0.5562
    3MOL    C41 1165   7.060   5.442   3.364 -0.3891 -0.1439  0.4003
    3MOL    C42 1166   6.946   5.537   3.391  0.1067  0.1114 -0.0508
    3MOL    O43 1167   7.312   5.553   3.436  0.1456  0.3669  0.2452
    3MOL    C44 1168   7.342   5.524   3.075 -0.0652  0.0333  0.0234
    3MOL    C45 1169   7.432   5.537   2.967  0.1552  0.4760 -0.3231
    3MOL    C46 1170   7.408   5.484   2.839  0.2261  0.0796  0.3341
    3MOL    C47 1171   7.504   5.495   2.736 -0.0898  0.1019  0.2164
    3MOL    H48 1172   7.742   5.664   2.911  0.4941  0.1969 -0.2131
    3MOL    H49 1173   7.667   5.713   3.129  0.0449 -0.3171  0.1582
    3MOL    H50 1174   7.506   5.650   3.329  0.6935 -1.2983  0.6342
    3MOL    H51 1175   7.100   5.426   3.464 -1.4190  0.8513  0.9749
    3MOL    H52 1176   7.024   5.343   3.336  0.6732 -0.3563 -0.2759
    3MOL    H53 1177   6.934   5.549   3.499 -0.2095 -2.4417  0.2126
    3MOL    H54 1178   6.959   5.642   3.362  0.1311  0.1850  0.2199
    3MOL    H55 1179   7.254   5.463   3.060  0.1477  0.2968 -2.5935
    3MOL    H56 1180   7.321   5.422   2.819  0.8057 -0.4316 -0.6234
    3MOL    H57 1181   7.482   5.447   2.642  0.8581  0.4054 -0.1606
    3MOL    O58 1182   6.787   5.306   3.425  0.9776 -0.1214 -0.3987
    3MOL    C59 1183   6.748   5.399   3.355 -0.0048  0.3894  0.4498
    3MOL    O60 1184   6.829   5.505   3.323 -0.0544 -0.0270  0.8266
    3MOL    C61 1185   6.610   5.411   3.289 -0.0035  0.1799  0.0211
    3MOL    C62 1186   6.594   5.478   3.161  0.6003  0.0701 -0.2951
    3MOL    C63 1187   6.470   5.474   3.100  0.5606  0.2287 -0.7013
    3MOL    C64 1188   6.452   5.528   2.971 -0.0847  0.2181  0.3925
    3MOL    C65 1189   6.329   5.520   2.905 -0.8480 -0.3639 -0.1395
    3MOL    C66 1190   6.214   5.449   2.957 -0.0800  0.1880 -0.8152
    3MOL    C67 1191   6.095   5.427   2.872 -0.0945 -0.0399  0.8818
    3MOL    O68 1192   6.111   5.474   2.743  0.7670 -0.2551 -0.7352
    3MOL    C69 1193   6.009   5.450   2.645 -0.5602  0.0345 -0.2818
    3MOL    C70 1194   5.882   5.527   2.667  0.1018  0.4037  0.0114
    3MOL    O71 1195   5.994   5.372   2.914 -0.1070 -0.1039  0.8401
    3MOL    C72 1196   6.231   5.397   3.089 -0.5736 -0.3428 -0.7592
    3MOL    C73 1197   6.355   5.406   3.155 -0.6611  0.2978 -0.0357
    3MOL    C74 1198   6.368   5.350   3.281  0.1135  0.6039  0.3922
    3MOL    C75 1199   6.498   5.345   3.346 -0.1283 -0.4408 -0.4858
    3MOL    H76 1200   6.675   5.530   3.112 -0.3826  1.2567 -0.6713
    3MOL    H77 1201   6.540   5.548   2.911  0.6301 -0.5108  1.1694
    3MOL    H78 1202   6.328   5.543   2.800 -2.0966 -1.1883 -0.3241
    3MOL    H79 1203   5.996   5.342   2.640 -1.1028  0.2140 -4.2601
    3MOL    H80 1204   6.048   5.478   2.547  2.5606 -1.8409  0.3476
    3MOL    H81 1205   5.824   5.522   2.575  2.0060 -1.2236 -1.1426
    3MOL    H82 1206   5.817   5.483   2.744  0.5609 -1.5577 -0.6780
    3MOL    H83 1207   6.149   5.346   3.137 -0.1654  0.8277  1.2262
    3MOL    H84 1208   6.287   5.308   3.339 -1.3213  0.9401 -1.3596
    3MOL    H85 1209   6.511   5.297   3.442 -4.2199 -1.2348 -0.2438
    3MOL    O86 1210   5.812   5.640   2.912  0.2143  0.5917  0.1622
    3MOL    C87 1211   5.840   5.714   2.817 -0.1471  0.3749  1.0530
    3MOL    O88 1212   5.895   5.665   2.703  0.0866 -0.3918 -0.0908
    3MOL    C89 1213   5.819   5.864   2.826 -0.3142 -0.0667 -0.2383
    3MOL    C90 1214   5.861   5.939   2.713  0.3594  0.2232 -0.2077
    3MOL    C91 1215   5.831   6.075   2.707  1.3068 -0.1888  0.5960
    3MOL    C92 1216   5.860   6.145   2.591 -0.4722  0.0279  0.7449
    3MOL    C93 1217   5.821   6.279   2.578 -0.0163  0.4481  0.2826
    3MOL    C94 1218   5.730   6.333   2.674 -1.5830 -0.0172 -0.2652
    3MOL    C95 1219   5.668   6.466   2.651  0.1688 -0.3293  0.6503
    3MOL    O96 1220   5.558   6.487   2.729  0.4426 -0.3328 -0.1694
    3MOL    C97 1221   5.480   6.605   2.713  0.5310  0.0652 -0.4554
    3MOL    C98 1222   5.503   6.720   2.810 -0.3923 -0.5099 -0.5422
    3MOL    O99 1223   5.708   6.545   2.567  0.2782 -0.4364  0.2450
    3MOL   C100 1224   5.691   6.256   2.783  0.1689 -0.4510 -0.7506
    3MOL   C101 1225   5.741   6.129   2.801  0.7411 -0.2704 -0.3798
    3MOL   C102 1226   5.693   6.056   2.911  0.3353 -0.9267  0.9651
    3MOL   C103 1227   5.736   5.922   2.925  0.2131 -0.2205  0.2539
    3MOL   H104 1228   5.931   5.891   2.646 -0.0797 -0.7769  0.0567
    3MOL   H105 1229   5.913   6.091   2.514 -0.6236 -1.2151  1.4926
    3MOL   H106 1230   5.855   6.341   2.497  0.0495  1.5378  1.1381
    3MOL   H107 1231   5.377   6.568   2.721  1.5839 -2.2898  3.9823
    3MOL   H108 1232   5.485   6.637   2.609  0.7918 -2.2174 -1.1685
    3MOL   H109 1233   5.451   6.815   2.800 -0.4666 -0.6321 -1.2897
    3MOL   H110 1234   5.483   6.696   2.915  0.0985  0.1522 -0.2912
    3MOL   H111 1235   5.625   6.294   2.860  1.2653  0.2833 -0.1594
    3MOL   H112 1236   5.613   6.091   2.974 -0.8745 -3.2948  0.8202
    3MOL   H113 1237   5.695   5.860   3.003 -2.0370  0.3386 -0.4434
    3MOL   O114 1238   5.591   6.906   2.624  0.0340  0.1787  0.6458
    3MOL   C115 1239   5.669   6.847   2.692 -0.4886 -0.4375 -1.0818
    3MOL   O116 1240   5.633   6.759   2.794 -0.0276 -0.4707 -0.0078
    3MOL   C117 1241   5.812   6.880   2.704  0.2591  0.2374 -0.9226
    3MOL   C118 1242   5.903   6.774   2.742  0.6781 -0.3279 -0.2392
    3MOL   C119 1243   6.028   6.814   2.789  0.2288 -0.3072 -1.1636
    3MOL   C120 1244   6.110   6.716   2.846  0.2284  0.2515 -0.6023
    3MOL   C121 1245   6.239   6.752   2.891 -0.1034  0.3096 -0.0333
    3MOL   C122 1246   6.286   6.884   2.875  0.4006  0.0623 -0.0632
    3MOL   C123 1247   6.425   6.919   2.915  0.0799 -1.3265  0.2506
    3MOL   O124 1248   6.440   7.046   2.948 -0.0881  0.4668  0.1887
    3MOL   C125 1249   6.553   7.088   3.018  0.0060 -0.2698  0.0132
    3MOL   C126 1250   6.525   7.095   3.171  0.1587 -0.3703 -1.1322
    3MOL   O127 1251   6.513   6.834   2.919 -0.1261  0.3567  0.5328
    3MOL   C128 1252   6.205   6.980   2.811 -0.3763  0.3853 -0.4972
    3MOL   C129 1253   6.074   6.947   2.769 -0.1558 -1.1378 -0.2945
    3MOL   C130 1254   5.981   7.049   2.732  0.4567 -0.8927  0.0511
    3MOL   C131 1255   5.852   7.014   2.700  0.5486  0.0298  0.6437
    3MOL   H132 1256   5.869   6.673   2.760 -0.7424  0.1396 -0.2152
    3MOL   H133 1257   6.079   6.612   2.846  4.4329 -1.1148  0.4373
    3MOL   H134 1258   6.295   6.666   2.924  0.4061  1.0137  0.9772
    3MOL   H135 1259   6.572   7.188   2.979 -1.8417 -0.9468 -2.7077
    3MOL   H136 1260   6.649   7.036   3.017  0.2998  0.2117  1.3534
    3MOL   H137 1261   6.607   7.062   3.236 -0.4002 -0.9929 -0.7435
    3MOL   H138 1262   6.519   7.200   3.197 -3.0931 -0.6253 -0.7253
    3MOL   H139 1263   6.235   7.083   2.814 -1.4395  0.6566  1.3702
    3MOL   H140 1264   6.006   7.154   2.746  1.4728 -0.9746 -1.0955
    3MOL   H141 1265   5.780   7.091   2.675  0.2765 -0.9999 -1.9511
    3MOL   O142 1266   6.292   7.238   3.209  0.0428  0.0910 -0.3140
    3MOL   C143 1267   6.301   7.121   3.240 -0.4575  0.4864 -0.1348
    3MOL   O144 1268   6.403   7.038   3.216  0.0304 -0.3889  0.2886
    3MOL   C145 1269   6.177   7.045   3.282  0.4000 -0.1385 -0.1155
    3MOL   C146 1270   6.170   6.905   3.290  0.3805 -0.8606 -0.3737
    3MOL   C147 1271   6.049   6.845   3.346 -0.6772 -0.0849  0.3299
    3MOL   C148 1272   6.027   6.705   3.337 -0.1024  0.1551 -0.0472
    3MOL   C149 1273   5.909   6.643   3.392 -0.6107 -0.2356 -0.1359
    3MOL   C150 1274   5.812   6.725   3.459 -0.1512 -0.7629 -0.1985
    3MOL   C151 1275   5.690   6.666   3.525  0.1840 -0.1161  0.0837
    3MOL   O152 1276   5.677   6.534   3.515 -0.0946  0.0945 -0.3219
    3MOL   C153 1277   5.572   6.464   3.583 -0.5947 -0.2472 -0.7779
    3MOL   C154 1278   5.606   6.475   3.735  0.2087  0.0869  0.4314
    3MOL   O155 1279   5.607   6.739   3.582 -0.1983 -0.5844 -0.7685
    3MOL   C156 1280   5.839   6.866   3.472 -0.2133  0.4093  0.7459
    3MOL   C157 1281   5.959   6.927   3.422 -0.1124  0.2643  0.0344
    3MOL   C158 1282   5.972   7.066   3.423  0.3047 -0.5104 -0.0745
    3MOL   C159 1283   6.078   7.120   3.350  0.1828 -0.2045 -0.2271
    3MOL   H160 1284   6.250   6.842   3.256  0.8892 -0.1324 -0.5323
    3MOL   H161 1285   6.097   6.642   3.285  1.2605 -0.5617  2.5689
    3MOL   H162 1286   5.883   6.540   3.375 -1.6112  0.2839 -1.9051
    3MOL   H163 1287   5.566   6.358   3.560 -2.6529  0.1090 -2.0034
    3MOL   H164 1288   5.475   6.506   3.556 -0.1361  0.2113 -1.7538
    3MOL   H165 1289   5.711   6.449   3.742  0.8347  2.0795 -1.1343
    3MOL   H166 1290   5.596   6.575   3.776  1.1767  0.0956  0.6647
    3MOL   H167 1291   5.758   6.924   3.514 -0.1915  0.1479  1.1538
    3MOL   H168 1292   5.902   7.136   3.465  0.2363 -0.7630  0.2311
    3MOL   H169 1293   6.091   7.227   3.352 -1.7979  0.1679 -3.7737
    3MOL   O170 1294   5.535   6.486   4.003 -0.2352 -0.6374  0.8437
    3MOL   C171 1295   5.509   6.385   3.939 -0.7108  0.1690 -0.0782
    3MOL   O172 1296   5.526   6.379   3.812 -0.3238  0.3381  0.0617
    3MOL   C173 1297   5.456   6.257   4.002 -0.0028 -1.3311 -0.0756
    3MOL   C174 1298   5.449   6.250   4.147 -0.0927 -0.2203  0.1662
    3MOL   C175 1299   5.397   6.131   4.213  0.0738  0.6772 -0.5744
    3MOL   C176 1300   5.383   6.123   4.355  0.1178  0.5761 -0.0350
    3MOL   C177 1301   5.316   6.012   4.409 -0.6650  0.3930 -0.2656
    3MOL   C178 1302   5.295   5.899   4.335  0.8810  0.8137 -1.0170
    3MOL   C179 1303   5.260   5.769   4.399  0.6047  0.0978 -0.5691
    3MOL   O180 1304   5.216   5.783   4.528 -0.4382 -0.0064  0.1726
    3MOL   C181 1305   5.180   5.657   4.592 -0.2711 -0.1823  0.0450
    3MOL   C182 1306   5.061   5.582   4.542 -0.2505 -0.2020 -0.3425
    3MOL   O183 1307   5.278   5.657   4.349  0.5003 -0.6357 -0.3789
    3MOL   C184 1308   5.324   5.907   4.195 -0.0958  0.0335  0.6314
    3MOL   C185 1309   5.366   6.021   4.133  0.1500 -0.4091 -0.7766
    3MOL   C186 1310   5.391   6.018   3.995  0.1876 -0.3956  0.6073
    3MOL   C187 1311   5.434   6.142   3.931 -0.4395  0.2437  0.0996
    3MOL   H188 1312   5.471   6.340   4.203 -0.6572 -0.6088  1.0132
    3MOL   H189 1313   5.401   6.209   4.417 -0.1657  0.3863  0.3058
    3MOL   H190 1314   5.291   6.011   4.514  0.8303 -1.5332  0.0991
    3MOL   H191 1315   5.167   5.674   4.699 -0.0337  0.1577  0.0220
    3MOL   H192 1316   5.266   5.591   4.595  1.1140  1.5655 -0.1612
    3MOL   H193 1317   5.021   5.609   4.445  0.1371 -0.0990 -0.4728
    3MOL   H194 1318   5.085   5.476   4.530  0.8058 -0.2798  2.0653
    3MOL   H195 1319   5.300   5.817   4.140 -0.8402 -0.0953  1.1518
    3MOL   H196 1320   5.364   5.934   3.933 -0.9373  0.2317  0.2178
    3MOL   H197 1321   5.457   6.145   3.826  0.0689  0.6059  0.2193
    3MOL   O198 1322   4.981   5.388   4.732  0.0774  0.0143  0.2065
    3MOL   C199 1323   4.918   5.494   4.714 -0.7625  0.6440 -0.7568
    3MOL   O200 1324   4.958   5.589   4.628  0.4650  0.4913 -0.7094
    3MOL   C201 1325   4.805   5.531   4.802 -0.8264  0.2907  0.5341
    3MOL   C202 1326   4.737   5.434   4.878 -0.0515 -0.2706 -0.1330
    3MOL   C203 1327   4.622   5.466   4.955 -0.2191 -0.6549 -0.5865
    3MOL   C204 1328   4.533   5.372   5.013 -0.1230  0.1246 -0.4182
    3MOL   C205 1329   4.409   5.415   5.066  0.6831  0.7093  0.8713
    3MOL   C206 1330   4.370   5.550   5.060  0.5018  0.2435  0.7090
    3MOL   C207 1331   4.233   5.595   5.105  0.7170  0.3889 -0.3585
    3MOL   O208 1332   4.227   5.729   5.106  0.3258  0.9186  0.3573
    3MOL   C209 1333   4.101   5.785   5.132 -0.4303 -0.5775  0.2875
    3MOL   C210 1334   4.104   5.938   5.142 -0.5962  0.6700  0.6399
    3MOL   O211 1335   4.148   5.513   5.145  0.6168  0.1232  0.4986
    3MOL   C212 1336   4.466   5.646   5.015 -0.7629  0.4587 -0.0374
    3MOL   C213 1337   4.588   5.606   4.963  0.6111  0.3532 -0.0293
    3MOL   C214 1338   4.660   5.706   4.897 -0.2991  0.3595 -0.1419
    3MOL   C215 1339   4.773   5.671   4.822  0.7130  0.6861  0.3821
    3MOL   H216 1340   4.771   5.332   4.874  0.0709 -0.1706 -2.1449
    3MOL   H217 1341   4.568   5.270   5.015  1.4231  0.6055 -1.7689
    3MOL   H218 1342   4.340   5.345   5.113  2.3923 -0.7041  1.3263
    3MOL   H219 1343   4.070   5.743   5.227  0.9420 -0.3142  0.8734
    3MOL   H220 1344   4.033   5.762   5.051 -0.8941  2.1448 -0.1374
    3MOL   H221 1345   4.184   5.971   5.208 -0.1360  0.2818  0.2843
    3MOL   H222 1346   4.133   5.984   5.047 -1.0618 -0.0338  0.1537
    3MOL   H223 1347   4.446   5.752   5.015  1.7769  1.0300  3.3449
    3MOL   H224 1348   4.630   5.809   4.910 -0.1556  0.5891 -1.5045
    3MOL   H225 1349   4.830   5.745   4.768 -0.8654  1.4639 -0.2409
    3MOL   O226 1350   4.001   5.928   5.399 -1.0029 -0.4419  0.3511
    3MOL   C227 1351   3.944   6.000   5.314  0.5829  0.1584  0.0519
    3MOL   O228 1352   3.984   6.007   5.186  0.7050 -0.0327  0.2299
    3MOL   C229 1353   3.833   6.094   5.340  0.1902 -0.4380 -0.1023
    3MOL   C230 1354   3.751   6.092   5.455  0.1097  0.3761 -0.0052
    3MOL   C231 1355   3.649   6.187   5.477 -0.2007 -0.0065 -0.3384
    3MOL   C232 1356   3.582   6.180   5.594  0.3928  0.4960  0.3217
    3MOL   C233 1357   3.505   6.294   5.625 -0.0650 -0.4341 -0.0157
    3MOL   C234 1358   3.486   6.406   5.537  0.5741  0.3939 -0.2412
    3MOL   C235 1359   3.401   6.521   5.572  0.5034 -0.4067 -0.8718
    3MOL   O236 1360   3.363   6.604   5.468  0.2204  0.1212  0.3723
    3MOL   C237 1361   3.269   6.699   5.478 -0.4976  0.3185  0.1651
    3MOL   C238 1362   3.319   6.828   5.536 -0.7120 -0.6218  0.2890
    3MOL   O239 1363   3.367   6.542   5.687  0.0047  0.0443  0.6927
    3MOL   C240 1364   3.544   6.401   5.410 -0.2322  0.5084  0.1176
    3MOL   C241 1365   3.635   6.296   5.381  0.2184 -0.3894  0.2100
    3MOL   C242 1366   3.714   6.299   5.268  0.7415 -0.2230 -0.1290
    3MOL   C243 1367   3.809   6.199   5.247 -0.4633  0.1651 -0.9132
    3MOL   H244 1368   3.761   6.012   5.526 -1.9683  0.1665  0.0809
    3MOL   H245 1369   3.596   6.094   5.658  0.2105  1.1838  1.3081
    3MOL   H246 1370   3.457   6.292   5.722  1.7307 -0.1019  0.8922
    3MOL   H247 1371   3.195   6.660   5.549 -0.6098 -1.3179 -0.8291
    3MOL   H248 1372   3.227   6.706   5.378  0.7176 -2.0673 -0.5457
    3MOL   H249 1373   3.428   6.818   5.531 -0.7988 -1.7453  0.5492
    3MOL   H250 1374   3.298   6.901   5.457  0.3331 -0.4785  0.1386
    3MOL   H251 1375   3.529   6.474   5.332  0.5161 -1.2246 -1.7137
    3MOL   H252 1376   3.708   6.382   5.199 -2.1367 -0.6244 -0.4244
    3MOL   H253 1377   3.862   6.211   5.154  0.8884  0.1959 -0.1643
    3MOL   O254 1378   3.452   6.949   5.758 -0.4307  0.2653 -0.0183
    3MOL   C255 1379   3.334   6.904   5.771 -0.3904  0.4378 -0.8830
    3MOL   O256 1380   3.270   6.852   5.669  0.1898  0.0923  0.1412
    3MOL   C257 1381   3.260   6.901   5.896  0.8314 -0.0923  0.2050
    3MOL   C258 1382   3.321   6.922   6.024  0.2586 -0.3911 -0.3051
    3MOL   C259 1383   3.235   6.931   6.134 -0.2999  0.3640 -0.4602
    3MOL   C260 1384   3.290   6.951   6.260 -0.4643  0.1268  0.2454
    3MOL   C261 1385   3.210   6.988   6.367 -0.5403 -0.3360 -1.3458
    3MOL   C262 1386   3.070   6.988   6.358 -0.2168 -0.2408  0.1790
    3MOL   C263 1387   2.986   7.011   6.480  1.0363  0.3692 -0.0618
    3MOL   O264 1388   2.849   7.030   6.454  0.3735  1.0506  0.6509
    3MOL   C265 1389   2.752   7.036   6.559 -0.2579  0.4119  0.0402
    3MOL   C266 1390   2.691   7.171   6.575 -0.3231  0.1413 -0.2277
    3MOL   O267 1391   3.033   7.010   6.593 -0.0470  0.0605 -0.2250
    3MOL   C268 1392   3.016   6.946   6.239  0.3784 -0.0852 -0.2520
    3MOL   C269 1393   3.096   6.926   6.128  0.4454  0.8516 -0.5012
    3MOL   C270 1394   3.034   6.905   6.004 -0.4526 -0.3426  0.4961
    3MOL   C271 1395   3.114   6.886   5.893  0.0198 -0.9966 -0.3200
    3MOL   H272 1396   3.428   6.936   6.031  0.6473 -1.8001 -2.9620
    3MOL   H273 1397   3.398   6.957   6.264 -0.2765 -1.9116 -1.6102
    3MOL   H274 1398   3.246   7.000   6.468 -0.3770 -0.5538 -1.3779
    3MOL   H275 1399   2.789   7.001   6.655 -2.3305 -0.3409  0.6028
    3MOL   H276 1400   2.673   6.967   6.528 -0.9116  1.0573  0.2705
    3MOL   H277 1401   2.598   7.191   6.520 -1.6365  1.4187  2.3362
    3MOL   H278 1402   2.657   7.158   6.677  0.8688 -2.4975 -0.1439
    3MOL   H279 1403   2.912   6.918   6.240  0.4534 -0.3506  0.8222
    3MOL   H280 1404   2.926   6.905   5.998 -0.4298  1.4581 -0.1724
    3MOL   H281 1405   3.063   6.874   5.799 -1.4629  0.7769  0.2361
    3MOL   O282 1406   2.677   7.395   6.410  0.1570  0.3988 -0.4389
    3MOL   C283 1407   2.782   7.368   6.467 -0.2535  0.4726  0.5484
    3MOL   O284 1408   2.790   7.263   6.553  0.3352 -0.3531  0.2142
    3MOL   C285 1409   2.910   7.442   6.460 -0.8394 -0.1236 -0.3690
    3MOL   C286 1410   3.031   7.388   6.509  0.2239  0.9821  1.0046
    3MOL   C287 1411   3.156   7.456   6.489  0.6614  0.0376  0.1417
    3MOL   C288 1412   3.280   7.386   6.516 -0.9255  0.2029  0.1088
    3MOL   C289 1413   3.404   7.451   6.495 -0.0504  0.5835  0.0213
    3MOL   C290 1414   3.404   7.577   6.434 -0.4137 -0.4982 -0.2860
    3MOL   C291 1415   3.529   7.633   6.379  0.2800 -0.0403 -0.1694
    3MOL   O292 1416   3.515   7.763   6.326  0.0379  0.3577 -0.3194
    3MOL   C293 1417   3.621   7.829   6.274 -0.4344  0.0698 -0.1838
    3MOL   C294 1418   3.634   7.974   6.308 -0.4044 -0.1676  0.2519
    3MOL   O295 1419   3.642   7.580   6.376 -0.2317  0.1919  0.5812
    3MOL   C296 1420   3.284   7.641   6.411  0.1428  0.1059 -0.7980
    3MOL   C297 1421   3.158   7.578   6.424  0.3072 -0.0230 -0.0376
    3MOL   C298 1422   3.038   7.641   6.386  0.5491  0.1507  0.1014
    3MOL   C299 1423   2.913   7.568   6.397 -0.1795 -0.2476  0.1869
    3MOL   H300 1424   3.036   7.293   6.559  0.7817  0.6180  0.2650
    3MOL   H301 1425   3.282   7.286   6.557 -0.8837 -0.1565 -0.7433
    3MOL   H302 1426   3.499   7.406   6.519  1.1171  1.2726 -3.1152
    3MOL   H303 1427   3.601   7.808   6.169 -1.2687 -1.9059  0.3355
    3MOL   H304 1428   3.720   7.795   6.308  1.1972  3.4481 -1.3640
    3MOL   H305 1429   3.700   8.033   6.245 -0.6374  0.0001  0.1627
    3MOL   H306 1430   3.532   8.012   6.296 -0.4150 -0.2949 -0.0568
    3MOL   H307 1431   3.278   7.736   6.359 -0.0611  0.1876 -0.6268
    3MOL   H308 1432   3.035   7.741   6.345  0.1936 -0.1226 -0.5636
    3MOL   H309 1433   2.817   7.610   6.370 -1.1581 -1.6462  1.3822
    3MOL   O310 1434   3.526   8.124   6.517  0.5300  0.8406 -0.4113
    3MOL   C311 1435   3.618   8.049   6.539  0.4722  0.6692  0.8314
    3MOL   O312 1436   3.667   7.966   6.441 -0.0649  0.0393 -0.2299
    3MOL   C313 1437   3.702   8.040   6.664  0.0629 -0.4419  0.0727
    3MOL   C314 1438   3.796   7.936   6.681  0.2210  0.2585  0.0786
    3MOL   C315 1439   3.880   7.951   6.789 -0.2033 -0.2806  0.4167
    3MOL   C316 1440   3.975   7.850   6.816  0.2239 -0.1619 -0.2347
    3MOL   C317 1441   4.062   7.856   6.929  0.4423  0.3193 -0.2256
    3MOL   C318 1442   4.059   7.966   7.016  0.1413  0.5621  0.3674
    3MOL   C319 1443   4.142   7.979   7.141 -1.2642  0.5041  0.6867
    3MOL   O320 1444   4.154   8.108   7.180  0.1255  0.6051  0.3207
    3MOL   C321 1445   4.238   8.142   7.287  0.6266 -0.2035 -0.1711
    3MOL   C322 1446   4.386   8.153   7.251  0.2412  0.3580 -0.2935
    3MOL   O323 1447   4.194   7.877   7.195  0.0530  0.2378  0.3501
    3MOL   C324 1448   3.956   8.065   6.991  0.3658 -0.2031  0.3139
    3MOL   C325 1449   3.870   8.057   6.880 -0.0729  0.4341 -0.2267
    3MOL   C326 1450   3.783   8.162   6.857  0.1460  0.2692  0.2007
    3MOL   C327 1451   3.692   8.155   6.746 -0.1597 -0.0856  0.5355
    3MOL   H328 1452   3.810   7.846   6.622  0.7182  0.8762 -0.7592
    3MOL   H329 1453   3.995   7.763   6.756 -0.7303  0.3413 -1.2982
    3MOL   H330 1454   4.137   7.780   6.948  1.2291  1.1533  0.0413
    3MOL   H331 1455   4.236   8.080   7.377  0.8222  2.3760  1.6569
    3MOL   H332 1456   4.203   8.235   7.333 -1.2842 -0.9982  0.0439
    3MOL   H333 1457   4.426   8.062   7.295 -2.5506 -0.0464  1.5331
    3MOL   H334 1458   4.414   8.165   7.146  2.0718  1.6926  0.3261
    3MOL   H335 1459   3.948   8.154   7.051  1.1962  1.2484 -1.6794
    3MOL   H336 1460   3.793   0.002   6.918 -0.0932 -0.8683  1.9150
    3MOL   H337 1461   3.619   8.233   6.730  0.5505  0.4471 -0.1445
    3MOL   O338 1462   4.519   0.128   7.150 -0.7309 -0.1147 -1.0984
    3MOL   C339 1463   4.518   0.102   7.273  0.0664  0.7217  0.0212
    3MOL   O340 1464   4.446   0.004   7.326  0.3547 -0.0492  0.0460
    3MOL   C341 1465   4.595   0.176   7.375  0.2063  0.0054 -0.0239
    3MOL   C342 1466   4.688   0.276   7.339  0.3826 -1.0019 -0.3268
    3MOL   C343 1467   4.761   0.348   7.433  0.1417  0.1953  0.4730
    3MOL   C344 1468   4.842   0.458   7.393  0.1372  0.4221  0.4826
    3MOL   C345 1469   4.912   0.532   7.485  0.2593 -0.2181 -0.1665
    3MOL   C346 1470   4.893   0.510   7.621  0.0351 -0.1740 -0.0445
    3MOL   C347 1471   4.971   0.588   7.724 -0.2698 -0.0016  0.0212
    3MOL   O348 1472   5.007   0.713   7.685  0.5296  0.0549  1.0482
    3MOL   C349 1473   5.096   0.794   7.760 -0.1502 -0.8874 -0.6595
    3MOL   C350 1474   5.033   0.858   7.890  0.0514 -0.0624  0.7069
    3MOL   O351 1475   5.002   0.539   7.836 -0.3893  0.4309  0.4956
    3MOL   C352 1476   4.820   0.393   7.664  0.1848 -0.0504  0.3176
    3MOL   C353 1477   4.745   0.319   7.572  0.3590 -0.0077  1.0653
    3MOL   C354 1478   4.667   0.208   7.608 -0.3729 -0.7858 -0.2723
    3MOL   C355 1479   4.590   0.143   7.513  0.4170  0.4217 -0.3133
    3MOL   H356 1480   4.716   0.301   7.238 -0.5592 -1.1736 -0.6282
    3MOL   H357 1481   4.842   0.487   7.288 -2.2845 -0.2936  0.2522
    3MOL   H358 1482   4.967   0.621   7.457 -2.5270  1.3222 -0.8503
    3MOL   H359 1483   5.128   0.882   7.705 -0.8738 -0.1771  0.0515
    3MOL   H360 1484   5.181   0.727   7.775  0.0387 -0.4511  0.2291
    3MOL   H361 1485   4.957   0.932   7.868 -0.8612 -1.4129 -0.7994
    3MOL   H362 1486   4.984   0.782   7.952  0.7699 -1.0343  0.0957
    3MOL   H363 1487   4.807   0.363   7.767 -1.9797 -0.2752  0.0044
    3MOL   H364 1488   4.667   0.169   7.709 -0.4800 -0.7750 -0.2676
    3MOL   H365 1489   4.528   0.058   7.537  0.4506  0.1546 -1.1630
    3MOL   O366 1490   5.139   1.105   7.848  0.2691 -0.4726 -0.1406
    3MOL   C367 1491   5.187   1.032   7.937  0.0688 -0.5181  0.2098
    3MOL   O368 1492   5.132   0.915   7.976  0.2003 -0.4897 -0.4494
    3MOL   C369 1493   5.304   1.074   8.020 -0.2843  0.2671 -0.1616
    3MOL   C370 1494   5.366   1.202   8.007 -0.1559  0.3380  0.8146
    3MOL   C371 1495   5.475   1.234   8.100 -0.7857  0.2814 -0.0995
    3MOL   C372 1496   5.533   1.364   8.101  0.0885 -0.0674 -0.3748
    3MOL   C373 1497   5.635   1.399   8.191 -0.3919 -0.2382  0.2299
    3MOL   C374 1498   5.682   1.300   0.040 -0.5235 -0.2940 -0.1802
    3MOL   C375 1499   5.777   1.335   0.151  0.8377  0.9800 -0.5712
    3MOL   O376 1500   5.848   1.444   0.116 -0.0805  0.1484 -0.3206
    3MOL   C377 1501   5.951   1.494   0.198  0.2447  0.2289 -0.0626
    3MOL   C378 1502   5.916   1.626   0.264  0.1003 -0.0879  0.5155
    3MOL   O379 1503   5.803   1.260   0.245  0.3969  0.1130  0.3210
    3MOL   C380 1504   5.633   1.170   0.029  0.4066  0.1559 -0.0211
    3MOL   C381 1505   5.526   1.141   8.191 -0.9704  0.4584  0.4357
    3MOL   C382 1506   5.463   1.020   8.198 -0.5822  0.4777  0.8625
    3MOL   C383 1507   5.355   0.983   8.119 -0.6540 -0.0234  0.0297
    3MOL   H384 1508   5.330   1.273   7.935 -1.1513 -0.5416  0.4237
    3MOL   H385 1509   5.492   1.436   8.032 -0.4036 -0.4238 -0.4539
    3MOL   H386 1510   5.674   1.499   8.193  0.7704 -0.6921  1.8308
    3MOL   H387 1511   6.048   1.509   0.150  0.5615 -3.3492 -0.6820
    3MOL   H388 1512   5.960   1.430   0.285 -0.6019  0.4820  0.2180
    3MOL   H389 1513   5.886   1.703   0.194 -0.4915 -2.6910 -2.1790
    3MOL   H390 1514   5.820   1.619   0.315  0.4375  0.5461  1.2590
    3MOL   H391 1515   5.646   1.090   0.100 -1.7437 -1.1241 -0.9997
    3MOL   H392 1516   5.493   0.962   0.035 -0.0151 -0.7530 -0.1436
    3MOL   H393 1517   5.302   0.891   8.136  0.3046 -0.7265 -0.7933
    3MOL   O394 1518   5.927   1.602   0.533 -0.0086  0.5652 -0.1306
    3MOL   C395 1519   6.016   1.658   0.473 -0.1950 -0.2440 -0.4079
    3MOL   O396 1520   6.023   1.674   0.341  0.0580 -0.0981 -0.0066
    3MOL   C397 1521   6.139   1.703   0.539 -0.0397  0.0848  0.3673
    3MOL   C398 1522   6.257   1.741   0.467 -0.0751  0.0641  0.3253
    3MOL   C399 1523   6.376   1.769   0.540  0.0783  0.5584  0.4268
    3MOL   C400 1524   6.499   1.782   0.469 -0.8301 -0.5934 -0.7272
    3MOL   C401 1525   6.623   1.812   0.540  0.3984 -0.0451  0.6431
    3MOL   C402 1526   6.618   1.839   0.678 -0.1969 -0.7755  0.1428
    3MOL   C403 1527   6.728   1.886   0.759 -0.9775 -0.0716  0.1004
    3MOL   O404 1528   6.812   1.958   0.671 -0.1912  0.5040 -0.0937
    3MOL   C405 1529   6.908   2.050   0.710 -0.1629 -0.1525  0.0344
    3MOL   C406 1530   6.832   2.190   0.716 -0.6045 -0.0483  0.7683
    3MOL   O407 1531   6.744   1.884   0.880 -0.6186 -0.2781  0.3998
    3MOL   C408 1532   6.497   1.813   0.743  0.2376 -0.5159 -0.9729
    3MOL   C409 1533   6.374   1.778   0.676 -0.0544  0.9013 -0.1205
    3MOL   C410 1534   6.258   1.763   0.751  1.3337  0.3324 -0.8362
    3MOL   C411 1535   6.142   1.712   0.682  0.2420 -0.3452  0.4853
    3MOL   H412 1536   6.260   1.743   0.359  1.6985  0.1405  0.3488
    3MOL   H413 1537   6.512   1.768   0.363  2.0634 -1.3124 -0.3295
    3MOL   H414 1538   6.714   1.805   0.483 -0.9144  1.9791 -1.7875
    3MOL   H415 1539   6.973   2.059   0.623 -0.7466 -0.9412 -0.4835
    3MOL   H416 1540   6.963   2.020   0.799  0.5119  0.7717 -0.0513
    3MOL   H417 1541   6.889   2.281   0.701 -1.3383  0.0964 -1.1957
    3MOL   H418 1542   6.781   2.186   0.620  0.8855 -1.2735 -0.0044
    3MOL   H419 1543   6.492   1.828   0.850 -1.4997  1.0938 -1.2581
    3MOL   H420 1544   6.257   1.777   0.858 -1.3359 -3.1306 -0.3173
    3MOL   H421 1545   6.060   1.680   0.743  1.8229 -0.1877  2.7526
    3MOL   O422 1546   6.890   2.182   0.986 -0.3036  0.4030  0.3552
    3MOL   C423 1547   6.774   2.200   0.944  0.6331  0.0042 -0.0678
    3MOL   O424 1548   6.736   2.205   0.818  0.2838 -0.1263 -0.1338
    3MOL   C425 1549   6.659   2.215   1.030  0.7034  0.0817 -0.4276
    3MOL   C426 1550   6.694   2.224   1.170 -0.1221  0.0581 -0.0791
    3MOL   C427 1551   6.588   2.226   1.265 -0.2338  0.2443 -0.0125
    3MOL   C428 1552   6.629   2.248   1.398 -0.8958  0.0819 -0.0444
    3MOL   C429 1553   6.530   2.237   1.499  0.1311  0.3999 -0.3687
    3MOL   C430 1554   6.402   2.227   1.459  0.0565  0.0827  0.5119
    3MOL   C431 1555   6.297   2.194   1.560 -0.5029  0.1448 -0.3091
    3MOL   O432 1556   6.206   2.116   1.519  0.2477  0.2690 -0.0159
    3MOL   C433 1557   6.099   2.078   1.598 -0.4696 -0.4688  0.3437
    3MOL   C434 1558   6.143   1.954   1.691 -0.2143 -0.7162 -0.1023
    3MOL   O435 1559   6.295   2.237   1.676 -0.3832  0.0216 -0.0735
    3MOL   C436 1560   6.357   2.223   1.322 -0.4465  0.1103  0.1034
    3MOL   C437 1561   6.451   2.221   1.229  0.0161 -0.5445 -0.5473
    3MOL   C438 1562   6.419   2.232   1.092 -0.0385  0.0444  0.4572
    3MOL   C439 1563   6.524   2.223   0.994 -0.4263  0.1290 -0.6343
    3MOL   H440 1564   6.796   2.223   1.207 -1.0591  1.7329  2.6683
    3MOL   H441 1565   6.735   2.258   1.416 -1.1173  1.1543  0.7161
    3MOL   H442 1566   6.555   2.230   1.603 -1.0590  3.7237  0.1859
    3MOL   H443 1567   6.016   2.035   1.541  0.7757 -2.6129  0.0667
    3MOL   H444 1568   6.068   2.160   1.662  0.8849  1.0936 -0.9812
    3MOL   H445 1569   6.235   1.982   1.743  2.0374 -4.6292 -1.7265
    3MOL   H446 1570   6.067   1.934   1.767 -0.0631 -1.9879 -0.2610
    3MOL   H447 1571   6.251   2.222   1.305 -0.4197  1.2049 -0.1758
    3MOL   H448 1572   6.319   2.241   1.054 -0.2645  1.3754  1.3344
    3MOL   H449 1573   6.500   2.205   0.891 -0.9440 -0.6512 -0.3796
    3MOL   O450 1574   5.957   1.782   1.578  0.1393 -0.4840 -0.3401
    3MOL   C451 1575   6.074   1.777   1.548  0.4109  0.4390  0.7804
    3MOL   O452 1576   6.177   1.857   1.601 -0.1295  0.1134  0.2438
    3MOL   C453 1577   6.129   1.690   1.442  0.4362 -0.1326  0.0428
    3MOL   C454 1578   6.252   1.723   1.370  0.5384 -0.1182 -0.0603
    3MOL   C455 1579   6.295   1.647   1.259 -0.0403 -0.4464 -0.4849
    3MOL   C456 1580   6.404   1.695   1.181  0.3508 -0.2714  0.6300
    3MOL   C457 1581   6.439   1.617   1.067  0.0332  0.5886  1.2643
    3MOL   C458 1582   6.381   1.487   1.045 -0.3741 -0.1617 -0.5812
    3MOL   C459 1583   6.442   1.402   0.939 -0.0124 -0.7125  0.0164
    3MOL   O460 1584   6.378   1.285   0.923  0.1525  0.3775 -0.1207
    3MOL   C461 1585   6.430   1.192   0.831 -0.2592  0.2349  0.2123
    3MOL   C462 1586   6.312   1.113   0.772 -0.4036 -0.3119 -0.5078
    3MOL   O463 1587   6.543   1.440   0.879  0.2484 -0.0466  0.6929
    3MOL   C464 1588   6.271   1.451   1.123 -0.3939  0.0551  0.6506
    3MOL   C465 1589   6.223   1.531   1.224 -0.0478  0.5763 -0.6380
    3MOL   C466 1590   6.104   1.499   1.292  0.6571 -0.1849 -0.0298
    3MOL   C467 1591   6.052   1.581   1.397  0.2711 -0.4236  0.1831
    3MOL   H468 1592   6.304   1.815   1.390 -2.6240  1.8794 -0.5579
    3MOL   H469 1593   6.446   1.793   1.196 -2.3962  1.0251  0.0734
    3MOL   H470 1594   6.515   1.654   1.000 -1.4436 -0.0325 -0.7845
    3MOL   H471 1595   6.500   1.129   0.886  0.2937  0.6296 -0.0380
    3MOL   H472 1596   6.480   1.234   0.743 -0.0899 -0.9483 -0.2724
    3MOL   H473 1597   6.218   1.168   0.782  0.1623  0.6898 -0.6590
    3MOL   H474 1598   6.323   1.090   0.666 -2.1622 -1.6573 -0.4223
    3MOL   H475 1599   6.222   1.358   1.098  0.3969 -0.2512  0.2223
    3MOL   H476 1600   6.045   1.411   1.271 -0.1580  0.3062  0.1715
    3MOL   H477 1601   5.960   1.549   1.444 -0.4479 -0.0203 -0.9334
    3MOL   O478 1602   6.215   1.084   1.032  0.8183  0.2403 -0.3390
    3MOL   C479 1603   6.261   0.989   0.971 -0.7816 -0.2979 -0.1894
    3MOL   O480 1604   6.308   0.990   0.846 -0.1997  0.1406 -0.7081
    3MOL   C481 1605   6.258   0.852   1.022 -0.4023  0.0592  0.0150
    3MOL   C482 1606   6.230   0.822   1.161  0.5797 -0.1265  0.1379
    3MOL   C483 1607   6.234   0.690   1.212 -0.0402  0.3032 -0.0677
    3MOL   C484 1608   6.214   0.663   1.344  0.4473  0.6357  0.0961
    3MOL   C485 1609   6.211   0.531   1.389  0.7193 -0.2875  0.1379
    3MOL   C486 1610   6.215   0.420   1.297  0.3390 -0.2727 -0.6927
    3MOL   C487 1611   6.192   0.279   1.345 -0.8066  0.2097  0.2283
    3MOL   O488 1612   6.149   0.270   1.481  0.7029 -0.0104 -0.1620
    3MOL   C489 1613   6.128   0.135   1.538 -0.0259 -0.1420  0.7417
    3MOL   C490 1614   6.256   0.098   1.618  0.4555  0.1330  0.0403
    3MOL   O491 1615   6.197   0.179   1.266 -0.2751 -0.1062  0.2155
    3MOL   C492 1616   6.235   0.448   1.161 -0.3525 -0.0974 -0.3823
    3MOL   C493 1617   6.249   0.581   1.118 -0.8175  0.1421 -0.0353
    3MOL   C494 1618   6.275   0.610   0.982  0.4550 -0.4854 -0.1762
    3MOL   C495 1619   6.284   0.743   0.936  0.7028 -0.2759 -0.1748
    3MOL   H496 1620   6.194   0.901   1.226 -1.4870 -2.8035  2.3842
    3MOL   H497 1621   6.209   0.751   1.406 -2.3631  0.8617 -0.4143
    3MOL   H498 1622   6.207   0.516   1.496  2.2211  2.8951  0.7063
    3MOL   H499 1623   6.110   0.055   1.466 -0.8986  1.4971 -0.9150
    3MOL   H500 1624   6.032   0.148   1.588 -1.0186 -0.7652 -0.9518
    3MOL   H501 1625   6.293   0.006   1.573 -2.5562 -0.3215 -1.6328
    3MOL   H502 1626   6.332   0.176   1.624 -0.3795  0.8811  1.3145
    3MOL   H503 1627   6.245   0.367   1.091  2.9122 -0.1170  0.0574
    3MOL   H504 1628   6.283   0.539   0.902 -0.2826  1.2951 -1.8818
    3MOL   H505 1629   6.298   0.751   0.829 -5.8764  0.7573 -1.1052
    3MOL   O506 1630   6.146   0.284   1.799 -0.0362  0.1438 -0.3532
    3MOL   C507 1631   6.167   0.166   1.828  0.1038  0.5225  0.2466
    3MOL   O508 1632   6.224   0.067   1.754  0.5129 -0.4271  0.5955
    3MOL   C509 1633   6.131   0.129   1.959 -0.2292  0.2955  0.2530
    3MOL   C510 1634   6.058   0.221   2.039 -0.2181  0.3609  0.0901
    3MOL   C511 1635   6.043   0.199   2.174  0.2047 -1.2756 -0.0696
    3MOL   C512 1636   5.983   0.296   2.262  0.1831 -0.0330 -0.2122
    3MOL   C513 1637   6.000   0.282   2.400  0.5052  0.3201 -0.8370
    3MOL   C514 1638   6.056   0.166   2.462  0.6397 -0.5129  0.1504
    3MOL   C515 1639   6.052   0.152   2.608 -0.6354  0.3558  0.2312
    3MOL   O516 1640   6.064   0.028   2.651 -0.2594 -0.4217 -0.3970
    3MOL   C517 1641   6.067   8.248   2.790 -0.4996  0.1083  0.4878
    3MOL   C518 1642   5.978   8.125   2.821  0.0169  0.0618 -0.3607
    3MOL   O519 1643   6.030   0.243   2.679 -0.6077  0.4455 -0.1988
    3MOL   C520 1644   6.100   0.063   2.379  0.1183  0.2231 -0.2288
    3MOL   C521 1645   6.098   0.081   2.233 -0.1175  0.0684 -0.6122
    3MOL   C522 1646   6.147   8.229   2.154 -0.3762  0.1638  0.2578
    3MOL   C523 1647   6.176   0.005   2.019 -0.2482 -0.2576 -0.1501
    3MOL   H524 1648   6.022   0.316   2.000 -1.7008  1.3958  3.7731
    3MOL   H525 1649   5.937   0.383   2.217  1.1701  1.0049  0.7656
    3MOL   H526 1650   5.956   0.349   2.473  0.1160  0.9501 -1.6453
    3MOL   H527 1651   6.021   0.074   2.854 -1.2458 -1.6087  1.9918
    3MOL   H528 1652   6.171   8.244   2.823 -0.6317  0.3908  0.9410
    3MOL   H529 1653   5.875   8.162   2.820 -0.7258 -1.8777  0.3231
    3MOL   H530 1654   5.987   8.043   2.749 -0.9450 -0.8249  0.5153
    3MOL   H531 1655   6.143   8.221   2.419  2.0005  0.9500 -0.5189
    3MOL   H532 1656   6.180   8.133   2.192  1.8641  0.6114 -0.4949
    3MOL   H533 1657   6.216   8.171   1.963  0.4367  0.5441 -0.8717
    3MOL   O534 1658   5.819   7.947   2.930  0.0161 -0.2371  0.1235
    3MOL   C535 1659   5.901   8.006   3.004  0.0453  0.1994  0.3996
    3MOL   O536 1660   5.995   8.088   2.956 -0.4071  0.1592 -0.1077
    3MOL   C537 1661   5.909   7.985   3.150  0.7098  0.3445 -0.0064
    3MOL   C538 1662   5.828   7.883   3.206 -0.6100  0.1341 -0.5514
    3MOL   C539 1663   5.832   7.854   3.348 -0.0321 -0.2876  0.7835
    3MOL   C540 1664   5.751   7.759   3.405 -0.3766  0.3409 -0.3313
    3MOL   C541 1665   5.756   7.734   3.545  0.2502  0.2041  0.0386
    3MOL   C542 1666   5.856   7.784   3.629 -0.1215 -0.0425 -0.8599
    3MOL   C543 1667   5.856   7.749   3.774 -0.1612  0.5171 -0.0850
    3MOL   O544 1668   5.959   7.815   3.846  0.3904  0.0240  0.2997
    3MOL   C545 1669   5.955   7.784   3.991  0.9222 -0.2697  0.3501
    3MOL   C546 1670   6.093   7.812   4.052 -0.4558 -0.0737 -0.5444
    3MOL   O547 1671   5.773   7.674   3.825 -0.4035  0.0677  0.1349
    3MOL   C548 1672   5.938   7.878   3.569 -0.6430 -0.4678 -0.3649
    3MOL   C549 1673   5.926   7.917   3.432  0.2372 -0.4540 -0.7609
    3MOL   C550 1674   6.008   8.016   3.375 -0.0632  0.4847 -0.5624
    3MOL   C551 1675   6.000   8.049   3.238 -0.5208  0.6173  0.0839
    3MOL   H552 1676   5.751   7.827   3.154 -2.5481  2.3247 -0.1216
    3MOL   H553 1677   5.683   7.698   3.348  0.1297 -0.8424  0.3031
    3MOL   H554 1678   5.684   7.665   3.587  0.6704  0.2766  0.8855
    3MOL   H555 1679   5.926   7.680   4.007 -0.2153 -0.0545 -0.2041
    3MOL   H556 1680   5.875   7.841   4.038 -0.4038 -1.1098 -0.8455
    3MOL   H557 1681   6.104   7.920   4.058  0.6627 -0.1147 -1.6645
    3MOL   H558 1682   6.175   7.770   3.994 -2.1062 -3.8519 -0.3035
    3MOL   H559 1683   6.012   7.936   3.623 -1.3644  1.3404 -1.2944
    3MOL   H560 1684   6.088   8.060   3.434  1.2259 -1.8582 -0.5007
    3MOL   H561 1685   6.061   8.130   3.202 -1.8521  1.7408  0.3075
    3MOL   H562 1686   6.112   7.770   4.150  0.4546  0.0549 -0.6683
    4MOL     O1 1687   0.250   4.639   1.890  0.0279  0.4838  0.3140
    4MOL     C2 1688   0.167   4.726   1.901 -0.2972 -0.7530  0.1453
    4MOL     O3 1689   0.201   4.856   1.923 -0.1054  0.2741 -0.0435
    4MOL     C4 1690   0.022   4.694   1.885  0.7217  0.0123  0.3153
    4MOL     C5 1691   8.228   4.563   1.854 -0.2070 -0.1308  0.0383
    4MOL     C6 1692   8.091   4.532   1.850  0.3846 -0.4757 -0.0724
    4MOL     C7 1693   8.044   4.401   1.833  0.0702 -0.1247  0.5111
    4MOL     C8 1694   7.905   4.375   1.825  0.1301 -0.0161 -0.2900
    4MOL     C9 1695   7.811   4.475   1.828  0.0108 -0.2431 -0.9049
    4MOL    C10 1696   7.662   4.445   1.817 -0.4648 -0.1985  0.9064
    4MOL    O11 1697   7.631   4.314   1.795  0.5271 -0.1070  0.2006
    4MOL    C12 1698   7.493   4.287   1.763 -0.7717  0.2131  0.1341
    4MOL    C13 1699   7.422   4.216   1.883  0.1598  0.4972  0.1407
    4MOL    O14 1700   7.579   4.536   1.842  0.1135  0.2255  0.3269
    4MOL    C15 1701   7.855   4.609   1.853 -0.0449 -0.8288  0.5886
    4MOL    C16 1702   7.994   4.636   1.866 -0.0440 -0.0977 -0.0329
    4MOL    C17 1703   8.037   4.765   1.903 -0.3772 -0.7949  0.2922
    4MOL    C18 1704   8.174   4.792   1.923 -0.8454 -0.9057  0.6113
    4MOL    H19 1705   0.055   4.489   1.838  0.6314  0.4485  1.2262
    4MOL    H20 1706   8.112   4.317   1.831 -0.8662 -0.8650 -1.9838
    4MOL    H21 1707   7.872   4.274   1.805 -0.4589  0.2479 -0.6412
    4MOL    H22 1708   7.439   4.381   1.748 -2.2497 -0.6913 -0.3404
    4MOL    H23 1709   7.490   4.227   1.672 -0.3914  1.7274 -0.8886
    4MOL    H24 1710   7.498   4.202   1.960 -0.2011  0.8893  0.5639
    4MOL    H25 1711   7.342   4.282   1.916 -2.1428 -1.7996 -0.6763
    4MOL    H26 1712   7.782   4.688   1.856  0.3057 -0.3938 -1.6638
    4MOL    H27 1713   7.971   4.846   1.932  0.6832  0.1622  0.0865
    4MOL    H28 1714   8.202   4.885   1.969 -3.2138 -0.0514  0.3722
    4MOL    H29 1715   0.292   4.856   1.947  0.1042 -2.3431 -0.6190
    4MOL    O30 1716   7.548   3.990   1.773  0.4612 -0.8139  0.1755
    4MOL    C31 1717   7.427   3.989   1.791  0.1017  0.3127  0.3930
    4MOL    O32 1718   7.364   4.091   1.840  0.4948 -0.0183  0.2044
    4MOL    C33 1719   7.335   3.872   1.758 -0.1590 -0.9140  0.4798
    4MOL    C34 1720   7.393   3.757   1.711  0.0232  1.1776  0.5319
    4MOL    C35 1721   7.311   3.640   1.695 -0.2877  0.2325 -0.6051
    4MOL    C36 1722   7.366   3.522   1.647  1.0989 -0.4540 -0.3839
    4MOL    C37 1723   7.273   3.410   1.618 -0.6414 -1.0148 -0.6272
    4MOL    C38 1724   7.134   3.432   1.628  0.5375  0.5390  0.5710
    4MOL    C39 1725   7.039   3.333   1.573 -0.4007 -0.2977 -0.7221
    4MOL    O40 1726   7.092   3.210   1.568  0.7318  0.0869  0.3128
    4MOL    C41 1727   7.008   3.101   1.519 -0.1814  0.2632 -0.3288
    4MOL    C42 1728   7.044   3.077   1.373  0.0187  0.1132  0.0061
    4MOL    O43 1729   6.931   3.367   1.541  0.4763 -0.1385 -0.1955
    4MOL    C44 1730   7.086   3.555   1.675 -0.2487 -0.3318  0.8228
    4MOL    C45 1731   7.169   3.663   1.708 -1.2041  0.4102  0.1672
    4MOL    C46 1732   7.109   3.784   1.749 -0.0076  0.5338  0.4485
    4MOL    C47 1733   7.199   3.884   1.785  0.0468 -0.0195  0.1669
    4MOL    H48 1734   7.498   3.759   1.684  0.1820 -2.9524  0.5137
    4MOL    H49 1735   7.472   3.511   1.628  1.7765  0.3541  2.5756
    4MOL    H50 1736   7.313   3.315   1.584 -1.8277 -0.8878 -2.4237
    4MOL    H51 1737   6.902   3.125   1.533  0.0116  0.0580  1.6753
    4MOL    H52 1738   7.035   3.018   1.584  1.3371  0.1266 -1.1039
    4MOL    H53 1739   6.979   2.998   1.336 -0.6416  1.5737 -2.0545
    4MOL    H54 1740   7.020   3.164   1.312  0.6438  0.4922  0.2933
    4MOL    H55 1741   6.978   3.559   1.680 -0.3775 -0.2480 -1.5715
    4MOL    H56 1742   7.004   3.804   1.759 -0.1271  1.5737 -2.5707
    4MOL    H57 1743   7.169   3.975   1.835  1.0500  0.4656 -0.0941
    4MOL    O58 1744   7.229   3.246   1.280  0.1832  0.6260  0.0291
    4MOL    C59 1745   7.267   3.131   1.308  0.2440 -0.6819 -0.0955
    4MOL    O60 1746   7.183   3.036   1.358 -0.1882  0.2365 -0.3353
    4MOL    C61 1747   7.402   3.074   1.286 -0.1302 -0.1113 -0.1827
    4MOL    C62 1748   7.445   2.958   1.353 -0.2551 -0.9140 -0.0710
    4MOL    C63 1749   7.581   2.924   1.349 -0.0050  0.5247  0.5207
    4MOL    C64 1750   7.633   2.823   1.437  0.3957 -0.4254  0.5764
    4MOL    C65 1751   7.770   2.788   1.441  0.5886  0.2179 -0.5322
    4MOL    C66 1752   7.860   2.847   1.349 -0.3891 -0.3673  0.2379
    4MOL    C67 1753   8.001   2.795   1.339  0.7456  0.2512  0.7058
    4MOL    O68 1754   8.024   2.698   1.420  0.0103  1.0921  0.3169
    4MOL    C69 1755   8.152   2.626   1.422  1.0902  0.1759  0.9127
    4MOL    C70 1756   8.161   2.530   1.541 -0.6027  0.3038 -0.5542
    4MOL    O71 1757   8.090   2.838   1.263  0.4306  0.4105  0.4653
    4MOL    C72 1758   7.812   2.945   1.261  0.3073 -0.2750  0.9615
    4MOL    C73 1759   7.676   2.987   1.269 -0.1574 -0.5738  0.4198
    4MOL    C74 1760   7.631   3.103   1.197  0.2493 -0.0014  0.4801
    4MOL    C75 1761   7.500   3.146   1.209 -0.4137 -0.4240 -0.8539
    4MOL    H76 1762   7.386   2.901   1.424 -0.1265 -2.3783 -1.0981
    4MOL    H77 1763   7.570   2.766   1.503  1.1982  0.2781  1.9843
    4MOL    H78 1764   7.811   2.713   1.508 -2.0329 -1.2725 -0.5406
    4MOL    H79 1765   8.237   2.693   1.411 -0.0439  1.2828 -1.2586
    4MOL    H80 1766   8.151   2.561   1.334  0.5594 -2.8003  3.0132
    4MOL    H81 1767   0.006   2.475   1.545 -1.1890 -0.6549  0.0577
    4MOL    H82 1768   8.158   2.599   1.625 -2.5470  0.2290 -0.5372
    4MOL    H83 1769   7.885   2.983   1.190 -0.4959  0.7778  0.6980
    4MOL    H84 1770   7.708   3.159   1.146  1.0595 -1.5028  0.0349
    4MOL    H85 1771   7.475   3.234   1.151 -3.0845 -0.5046  0.1031
    4MOL    O86 1772   8.124   2.283   1.430 -0.5548  0.8175 -0.3844
    4MOL    C87 1773   8.034   2.324   1.503  0.6229 -0.1897  0.2003
    4MOL    O88 1774   8.042   2.448   1.557  0.3740 -0.1047  0.6532
    4MOL    C89 1775   7.916   2.249   1.557  0.2518  0.3945  0.0016
    4MOL    C90 1776   7.813   2.308   1.635  0.7412 -0.4344 -0.2961
    4MOL    C91 1777   7.710   2.221   1.687 -0.0748 -0.6431 -0.0355
    4MOL    C92 1778   7.614   2.275   1.775 -0.4314 -0.1813 -0.1913
    4MOL    C93 1779   7.507   2.200   1.821 -0.3246  0.7415  0.1591
    4MOL    C94 1780   7.486   2.064   1.780 -0.1230 -0.4114  0.3412
    4MOL    C95 1781   7.372   1.978   1.823  0.3798  0.4259 -0.5569
    4MOL    O96 1782   7.277   2.055   1.882  0.6603  0.0966  0.2565
    4MOL    C97 1783   7.150   2.005   1.918  0.1312 -0.1475 -0.1982
    4MOL    C98 1784   7.168   1.953   2.060  0.5917  0.0821 -0.1149
    4MOL    O99 1785   7.373   1.857   1.799  0.1172 -0.3315  0.0643
    4MOL   C100 1786   7.589   2.014   1.694  0.1734 -0.4967  0.9147
    4MOL   C101 1787   7.702   2.087   1.648 -0.0183  0.4765 -0.6734
    4MOL   C102 1788   7.800   2.036   1.550  0.2054  1.0245  0.0696
    4MOL   C103 1789   7.905   2.117   1.513 -0.2547  0.5474  0.1273
    4MOL   H104 1790   7.826   2.408   1.672  2.5282 -1.0621  0.8708
    4MOL   H105 1791   7.627   2.381   1.793  0.5928 -0.2707 -0.3697
    4MOL   H106 1792   7.437   2.245   1.890  1.8911  3.6881  0.6083
    4MOL   H107 1793   7.127   1.916   1.860  1.2413 -0.8797  0.4562
    4MOL   H108 1794   7.073   2.083   1.912 -0.8750 -1.0286  0.8273
    4MOL   H109 1795   7.230   2.022   2.118 -2.0519  0.9963  1.7166
    4MOL   H110 1796   7.076   1.936   2.115 -0.9526 -0.5888 -2.8091
    4MOL   H111 1797   7.582   1.910   1.663  0.0208 -0.3961  0.6013
    4MOL   H112 1798   7.785   1.940   1.503 -1.1325  0.2527  2.0200
    4MOL   H113 1799   7.980   2.063   1.457 -0.3105  0.6078 -0.0058
    4MOL   O114 1800   7.040   1.712   2.007 -0.7020  0.4897 -0.0754
    4MOL   C115 1801   7.156   1.708   2.039 -0.2800  0.0702  0.4303
    4MOL   O116 1802   7.237   1.824   2.067  0.1594  0.0613  0.5055
    4MOL   C117 1803   7.231   1.579   2.069 -0.4079 -0.3194  0.1953
    4MOL   C118 1804   7.367   1.572   2.112  0.6703  0.3558  0.5280
    4MOL   C119 1805   7.429   1.450   2.153 -0.0366 -0.5035  0.3237
    4MOL   C120 1806   7.562   1.441   2.190 -0.0387  0.0824  0.4544
    4MOL   C121 1807   7.612   1.323   2.244  0.6821  0.2367 -0.5019
    4MOL   C122 1808   7.531   1.209   2.264  0.2320  0.0800 -1.0825
    4MOL   C123 1809   7.577   1.090   2.343  0.1644 -0.1595 -0.4732
    4MOL   O124 1810   7.711   1.081   2.357  0.3063  0.5739  0.3159
    4MOL   C125 1811   7.759   0.984   2.451  0.3784  0.4589 -0.3646
    4MOL   C126 1812   7.758   0.845   2.389 -0.4771 -0.2850 -0.0305
    4MOL   O127 1813   7.491   1.010   2.385  0.3549 -0.2483 -0.0353
    4MOL   C128 1814   7.403   1.216   2.206  0.8909 -0.1259  0.2288
    4MOL   C129 1815   7.349   1.338   2.149 -0.1488 -0.1237  0.0095
    4MOL   C130 1816   7.216   1.342   2.110 -0.1726 -0.3669 -0.5009
    4MOL   C131 1817   7.155   1.460   2.067  0.6552  0.0067 -0.0988
    4MOL   H132 1818   7.429   1.660   2.118 -0.2364  1.1976 -1.8923
    4MOL   H133 1819   7.632   1.522   2.177  1.6138 -1.3787  0.0690
    4MOL   H134 1820   7.715   1.322   2.278  0.5345  0.3534 -0.0457
    4MOL   H135 1821   7.704   0.994   2.544 -0.4784  1.8996 -1.0108
    4MOL   H136 1822   7.857   1.012   2.489 -0.8747  1.9014  1.8670
    4MOL   H137 1823   7.749   0.762   2.460  2.4142 -1.3460 -0.8462
    4MOL   H138 1824   7.674   0.828   2.323 -1.0224  1.3188  0.2342
    4MOL   H139 1825   7.341   1.128   2.216  0.2604  0.3353  0.4412
    4MOL   H140 1826   7.155   1.253   2.111  0.0144 -0.5006  1.8696
    4MOL   H141 1827   7.053   1.463   2.032  0.3732 -1.8430  0.5107
    4MOL   O142 1828   8.033   0.865   2.463  0.0973 -0.2923  0.3766
    4MOL   C143 1829   8.004   0.822   2.351 -0.8957 -0.1111  0.2620
    4MOL   O144 1830   7.873   0.810   2.308 -0.3129 -0.5217  0.4878
    4MOL   C145 1831   8.102   0.770   2.261 -0.3700 -0.1829  0.4642
    4MOL   C146 1832   8.070   0.681   2.154  0.2670  0.3033 -0.4796
    4MOL   C147 1833   8.169   0.636   2.062  0.5408  0.3810  0.1492
    4MOL   C148 1834   8.140   0.552   1.960  0.2868  0.1979 -0.9371
    4MOL   C149 1835   8.239   0.509   1.872  0.7469  0.4067  0.1291
    4MOL   C150 1836   0.125   0.538   1.881  0.7572 -0.7257  0.1912
    4MOL   C151 1837   0.224   0.473   1.793 -0.2521  0.0230 -0.0299
    4MOL   O152 1838   0.340   0.531   1.808 -0.2547 -0.1648  0.5366
    4MOL   C153 1839   0.446   0.490   1.723  0.4480  0.2696  0.6172
    4MOL   C154 1840   0.576   0.545   1.779  0.2489  0.7646  0.0588
    4MOL   O155 1841   0.191   0.378   1.724 -0.4623 -0.0091 -0.0768
    4MOL   C156 1842   0.159   0.618   1.993  0.0334 -0.0716  0.5774
    4MOL   C157 1843   0.059   0.670   2.076 -0.2850  0.3422 -0.1096
    4MOL   C158 1844   0.087   0.753   2.181  0.4690  0.0895 -0.1728
    4MOL   C159 1845   8.244   0.806   2.272 -0.6656 -0.6096  0.1226
    4MOL   H160 1846   7.971   0.644   2.136  0.2299 -0.6944  1.6219
    4MOL   H161 1847   8.038   0.516   1.955 -0.1850  1.4180 -0.2722
    4MOL   H162 1848   8.210   0.447   1.789  0.7279  0.1821  0.3053
    4MOL   H163 1849   0.429   0.525   1.621 -0.7493  0.0882  0.7465
    4MOL   H164 1850   0.454   0.381   1.729  0.0352  0.3423  2.8779
    4MOL   H165 1851   0.652   0.520   1.705 -0.4645  3.2896 -1.5889
    4MOL   H166 1852   0.562   0.652   1.766  1.7607  0.8816 -0.7623
    4MOL   H167 1853   0.263   0.641   2.013  0.1343 -0.0508  0.0444
    4MOL   H168 1854   0.188   0.790   2.190  0.5085 -0.0751  0.0804
    4MOL   H169 1855   0.023   0.888   2.337 -0.2388  0.4725 -1.3996
    4MOL   O170 1856   0.735   0.318   1.862 -0.5820 -0.6554 -0.8424
    4MOL   C171 1857   0.672   0.389   1.949 -0.1866 -0.0441 -0.0363
    4MOL   O172 1858   0.613   0.504   1.916  0.5350 -0.8554 -0.3243
    4MOL   C173 1859   0.670   0.360   2.095  0.6243  0.2859  0.3599
    4MOL   C174 1860   0.564   0.417   2.175 -0.2500  0.1119  0.2041
    4MOL   C175 1861   0.563   0.389   2.317  0.7485  0.0922 -0.1079
    4MOL   C176 1862   0.453   0.440   2.394 -0.3194  0.1268  0.9658
    4MOL   C177 1863   0.455   0.411   2.534  0.5288 -0.7874  0.2081
    4MOL   C178 1864   0.559   0.339   2.599 -0.2123  0.5977 -0.0847
    4MOL   C179 1865   0.555   0.316   2.748 -0.0233  0.4281  0.5029
    4MOL   O180 1866   0.645   0.211   2.784  0.1142  0.3389  0.7633
    4MOL   C181 1867   0.676   0.182   2.916 -0.1329  0.9157  0.5347
    4MOL   C182 1868   0.662   0.027   2.930 -0.1674  0.2385 -0.1636
    4MOL   O183 1869   0.488   0.383   2.830 -0.0812 -0.0280 -0.0808
    4MOL   C184 1870   0.666   0.286   2.516  0.0532  0.5048  0.0319
    4MOL   C185 1871   0.663   0.312   2.377 -0.1808 -0.9542  0.3274
    4MOL   C186 1872   0.766   0.257   2.298  0.3497 -0.5158  1.4531
    4MOL   C187 1873   0.763   0.275   2.161  0.3116 -0.0627  0.5210
    4MOL   H188 1874   0.497   0.487   2.127  0.2363 -0.2560 -1.0359
    4MOL   H189 1875   0.377   0.503   2.351  0.1580  0.8055  1.1018
    4MOL   H190 1876   0.369   0.439   2.592  1.0981  0.7256  0.3404
    4MOL   H191 1877   0.616   0.238   2.988  1.4226  0.2232  2.4103
    4MOL   H192 1878   0.780   0.213   2.927  0.4539 -1.4248  1.8057
    4MOL   H193 1879   0.705   0.008   3.028  2.0305  1.1411 -0.9331
    4MOL   H194 1880   0.560   8.238   2.917 -0.7946  2.0392 -0.6755
    4MOL   H195 1881   0.744   0.227   2.562 -1.3450 -0.8813  0.7005
    4MOL   H196 1882   0.850   0.200   2.333  2.5730  1.4120 -0.5307
    4MOL   H197 1883   0.850   0.243   2.105 -0.2707  0.4020 -0.6731
    4MOL   O198 1884   0.911   8.157   2.924 -0.4748 -0.1217  0.4352
    4MOL   C199 1885   0.858   8.183   2.816  0.1899  0.0885 -0.0972
    4MOL   O200 1886   0.728   8.225   2.814 -0.8398 -0.6068 -0.4002
    4MOL   C201 1887   0.912   8.163   2.681  0.2883  0.4661  0.3642
    4MOL   C202 1888   1.035   8.091   2.671  0.6844 -0.1489  0.7211
    4MOL   C203 1889   1.089   8.057   2.545 -1.0329 -0.0560 -0.6676
    4MOL   C204 1890   1.209   7.985   2.540 -0.2674  0.4979 -0.6778
    4MOL   C205 1891   1.262   7.959   2.409  0.1442  0.2336  0.5668
    4MOL   C206 1892   1.201   8.003   2.287  0.2042  0.2178  0.5443
    4MOL   C207 1893   1.259   7.950   2.150 -0.4748  0.3248  0.4090
    4MOL   O208 1894   1.212   8.009   2.043  0.3824 -0.6721  0.4596
    4MOL   C209 1895   1.251   7.970   1.919  0.2238  0.4319  0.2344
    4MOL   C210 1896   1.358   8.063   1.865  1.0355  0.8038  0.6601
    4MOL   O211 1897   1.341   7.856   2.148  0.3537 -0.3333 -0.4052
    4MOL   C212 1898   1.084   8.081   2.299  0.3442 -0.0798  0.2431
    4MOL   C213 1899   1.024   8.111   2.427 -0.4634  0.1601 -0.3794
    4MOL   C214 1900   0.902   8.177   2.441 -0.6722 -0.4529 -0.0998
    4MOL   C215 1901   0.847   8.205   2.563 -0.0655 -0.5193 -0.8725
    4MOL   H216 1902   1.081   8.051   2.761 -1.0977 -0.3030  1.5972
    4MOL   H217 1903   1.250   7.949   2.633  1.9689 -1.0399 -2.1939
    4MOL   H218 1904   1.355   7.908   2.388 -0.5011 -0.5889 -0.3413
    4MOL   H219 1905   1.164   7.985   1.854  1.3061  0.0005 -1.3522
    4MOL   H220 1906   1.291   7.871   1.901 -0.0766  0.4266 -0.4036
    4MOL   H221 1907   1.368   8.056   1.757  2.6572  2.5816  0.6710
    4MOL   H222 1908   1.327   8.166   1.886 -2.1079  0.2573 -0.9381
    4MOL   H223 1909   1.032   8.107   2.208  0.9189  1.3426  0.3135
    4MOL   H224 1910   0.851   8.209   2.351 -1.6493 -0.9951  0.2509
    4MOL   H225 1911   0.753   0.008   2.576  0.9576  1.5683 -1.5862
    4MOL   O226 1912   1.615   8.135   1.767  0.6755  0.1689 -0.1107
    4MOL   C227 1913   1.596   8.060   1.866  0.0772  0.0092 -0.0842
    4MOL   O228 1914   1.480   8.024   1.924 -0.1833 -0.5914 -0.0340
    4MOL   C229 1915   1.705   8.002   1.939 -0.1682 -0.0049  0.4111
    4MOL   C230 1916   1.692   7.930   2.058 -0.2398  0.0318  0.1554
    4MOL   C231 1917   1.801   7.865   2.120 -0.3905  0.0043  0.2634
    4MOL   C232 1918   1.780   7.791   2.238 -0.4721  0.2848 -0.3224
    4MOL   C233 1919   1.894   7.740   2.303  0.6039  0.7824  0.3740
    4MOL   C234 1920   2.020   7.738   2.238 -0.4943  0.2229  0.3351
    4MOL   C235 1921   2.134   7.664   2.301  0.3497 -1.3704 -0.7874
    4MOL   O236 1922   2.093   7.568   2.397  0.0390 -0.1579  0.1679
    4MOL   C237 1923   2.181   7.472   2.454  0.4708  0.2328 -0.0596
    4MOL   C238 1924   2.191   7.343   2.369  0.5040 -0.2502 -0.4452
    4MOL   O239 1925   2.249   7.682   2.264  0.9196  0.0668  0.5833
    4MOL   C240 1926   2.033   7.805   2.116  0.4027 -0.2236  0.3623
    4MOL   C241 1927   1.927   7.875   2.058  0.2086  0.7697 -0.2407
    4MOL   C242 1928   1.942   7.943   1.933 -0.5899 -0.6995  0.0690
    4MOL   C243 1929   1.834   8.012   1.879  0.3913  0.9262 -0.2500
    4MOL   H244 1930   1.593   7.927   2.101 -0.4114  0.3360 -0.2194
    4MOL   H245 1931   1.680   7.784   2.279 -0.7231  0.3484 -0.9143
    4MOL   H246 1932   1.897   7.690   2.398 -1.5212 -0.8857 -0.3830
    4MOL   H247 1933   2.146   7.449   2.554  0.2830 -1.2494 -0.4614
    4MOL   H248 1934   2.281   7.512   2.464  0.1449  0.7738  1.0825
    4MOL   H249 1935   2.275   7.285   2.406  2.3623  2.2386 -0.6295
    4MOL   H250 1936   2.098   7.289   2.387  0.8681 -1.3029 -1.6246
    4MOL   H251 1937   2.134   7.813   2.080  1.1468 -2.4297  1.8443
    4MOL   H252 1938   2.042   7.948   1.891 -0.0283 -0.0491  1.4430
    4MOL   H253 1939   1.850   8.077   1.795  0.0721  0.0923 -0.9715
    4MOL   O254 1940   2.431   7.333   2.249 -0.4537 -0.0152 -0.0692
    4MOL   C255 1941   2.332   7.358   2.180 -0.1058  0.4266  0.8596
    4MOL   O256 1942   2.208   7.359   2.233  0.1426 -0.8696  0.3979
    4MOL   C257 1943   2.325   7.387   2.036  0.7033 -0.1204  0.0991
    4MOL   C258 1944   2.216   7.454   1.979  0.2990  0.3739  0.0549
    4MOL   C259 1945   2.216   7.480   1.840  0.1295 -0.0964 -1.1558
    4MOL   C260 1946   2.114   7.557   1.774  0.2181  0.2919  0.8715
    4MOL   C261 1947   2.108   7.567   1.632 -0.6272  0.1084 -0.5232
    4MOL   C262 1948   2.214   7.513   1.561  0.0364 -1.6132  0.2212
    4MOL   C263 1949   2.226   7.542   1.412  0.2463  0.4342 -0.7276
    4MOL   O264 1950   2.342   7.506   1.354  0.4374  0.3098 -0.3872
    4MOL   C265 1951   2.358   7.520   1.216 -0.5086  0.7417  0.5308
    4MOL   C266 1952   2.450   7.418   1.151 -0.0506  0.5533 -0.0445
    4MOL   O267 1953   2.145   7.612   1.355 -0.1014 -0.3130 -0.5351
    4MOL   C268 1954   2.324   7.449   1.627 -0.4108  0.7098 -0.1814
    4MOL   C269 1955   2.323   7.429   1.766  0.2808 -0.2715  0.4794
    4MOL   C270 1956   2.428   7.358   1.820  0.3574 -0.3925  0.7447
    4MOL   C271 1957   2.424   7.336   1.954 -1.1737 -0.1473  0.0821
    4MOL   H272 1958   2.137   7.491   2.043  3.0520  1.4837  2.9347
    4MOL   H273 1959   2.025   7.589   1.826 -0.2835 -1.1417  0.9221
    4MOL   H274 1960   2.022   7.617   1.590  0.6617  1.1635 -1.9803
    4MOL   H275 1961   2.418   7.609   1.196  0.2685  0.5826  2.0541
    4MOL   H276 1962   2.265   7.533   1.162  0.5909 -1.4848 -2.0040
    4MOL   H277 1963   2.502   7.470   1.071 -3.0232  2.5076 -0.7861
    4MOL   H278 1964   2.524   7.365   1.211 -0.4172  2.3918  2.0869
    4MOL   H279 1965   2.399   7.394   1.572 -1.8678  0.7189 -2.2404
    4MOL   H280 1966   2.509   7.323   1.757  0.3757  0.7465  0.1284
    4MOL   H281 1967   2.506   7.286   2.003 -1.3462  0.1635  0.6910
    4MOL   O282 1968   2.320   7.466   0.905 -0.4977  0.1667 -0.5756
    4MOL   C283 1969   2.308   7.356   0.963 -0.0637 -0.0208 -0.3109
    4MOL   O284 1970   2.378   7.322   1.082  0.1932  0.1330 -0.0395
    4MOL   C285 1971   2.227   7.245   0.904 -0.1895  0.5583 -0.6337
    4MOL   C286 1972   2.228   7.117   0.963 -0.7275  0.2699 -0.0930
    4MOL   C287 1973   2.146   7.011   0.912 -0.1968 -0.1545  0.4292
    4MOL   C288 1974   2.152   6.881   0.968  0.0474 -0.2218 -0.1653
    4MOL   C289 1975   2.066   6.786   0.920 -1.1584 -0.2660 -0.0314
    4MOL   C290 1976   1.986   6.805   0.806  0.1276  0.0827 -1.0203
    4MOL   C291 1977   1.903   6.696   0.757 -0.0595 -0.3560 -0.6970
    4MOL   O292 1978   1.791   6.738   0.702  0.5729  0.0345  0.2719
    4MOL   C293 1979   1.678   6.657   0.705 -0.4739 -0.3649  0.5610
    4MOL   C294 1980   1.586   6.737   0.795  0.2582  0.0788 -0.3809
    4MOL   O295 1981   1.932   6.577   0.782 -0.0320 -0.2904 -0.1144
    4MOL   C296 1982   1.984   6.931   0.748  0.0827  0.4094  0.1168
    4MOL   C297 1983   2.063   7.037   0.804  0.2486 -0.0380  0.8128
    4MOL   C298 1984   2.058   7.167   0.746  0.8023 -0.3800  0.3987
    4MOL   C299 1985   2.141   7.265   0.794  0.4263  0.3342  0.6973
    4MOL   H300 1986   2.287   7.093   1.050 -0.9214  0.1827  0.0142
    4MOL   H301 1987   2.212   6.874   1.057  0.6771  0.0199 -0.5689
    4MOL   H302 1988   2.069   6.693   0.975  1.6365 -0.4234 -0.3489
    4MOL   H303 1989   1.703   6.558   0.745  2.8685  0.0045 -0.4450
    4MOL   H304 1990   1.633   6.655   0.606 -1.0274  0.2897  0.8003
    4MOL   H305 1991   1.589   6.841   0.763  1.7406  0.4366  0.8485
    4MOL   H306 1992   1.482   6.705   0.790 -0.1955  1.3975  0.2820
    4MOL   H307 1993   1.929   6.965   0.662 -2.5740  1.3187  2.1319
    4MOL   H308 1994   1.987   7.183   0.666  1.0717 -0.0402  0.2240
    4MOL   H309 1995   2.132   7.361   0.744 -0.3044 -0.8080 -1.4608
    4MOL   O310 1996   1.495   6.549   0.983 -0.1167 -0.5420  1.0138
    4MOL   C311 1997   1.585   6.630   1.007 -0.5359  0.2881 -0.4688
    4MOL   O312 1998   1.629   6.735   0.926  0.1495 -0.0809  0.0610
    4MOL   C313 1999   1.664   6.621   1.126 -0.8331  0.3974  0.2409
    4MOL   C314 2000   1.771   6.710   1.150 -0.0216  1.1052  0.2118
    4MOL   C315 2001   1.854   6.695   1.263  0.3316 -0.4833  0.5490
    4MOL   C316 2002   1.967   6.778   1.277 -0.2758 -0.1793  0.0049
    4MOL   C317 2003   2.046   6.764   1.396  0.0601  0.0137  0.6476
    4MOL   C318 2004   2.016   6.659   1.487 -0.1238  0.1800  0.5278
    4MOL   C319 2005   2.117   6.640   1.597  0.2618  0.6377 -0.0747
    4MOL   O320 2006   2.120   6.509   1.629  0.2841  0.3455  0.0909
    4MOL   C321 2007   2.205   6.473   1.739  0.6267 -0.8458  0.4970
    4MOL   C322 2008   2.190   6.319   1.748  0.1092  0.0538 -0.0912
    4MOL   O323 2009   2.187   6.726   1.651 -1.4163 -0.0165 -0.2799
    4MOL   C324 2010   1.907   6.573   1.461 -0.7270 -0.0578 -0.7093
    4MOL   C325 2011   1.826   6.589   1.349 -0.0571  0.1997 -1.1259
    4MOL   C326 2012   1.722   6.496   1.333 -0.4205 -0.8553 -0.6824
    4MOL   C327 2013   1.642   6.512   1.219  0.1918 -0.3827  0.6467
    4MOL   H328 2014   1.800   6.783   1.076 -2.4893  1.8944  0.0036
    4MOL   H329 2015   1.981   6.868   1.218 -2.9253  1.2808  1.4594
    4MOL   H330 2016   2.132   6.827   1.413 -0.4818  0.0037  3.7681
    4MOL   H331 2017   2.181   6.527   1.830 -0.2124 -0.5702  0.1167
    4MOL   H332 2018   2.304   6.510   1.713 -0.5323  0.8594 -1.6000
    4MOL   H333 2019   2.229   6.276   1.655  1.8232  2.0634 -0.3405
    4MOL   H334 2020   2.246   6.272   1.829  0.6331 -1.2644 -1.1847
    4MOL   H335 2021   1.878   6.494   1.528  1.4480 -0.1051  0.2229
    4MOL   H336 2022   1.678   6.436   1.412 -1.9896  1.0442 -0.0652
    4MOL   H337 2023   1.559   6.445   1.203  0.4886 -0.6770  0.3413
    4MOL   O338 2024   2.039   6.355   1.976 -0.1047 -0.1414  0.1648
    4MOL   C339 2025   1.985   6.311   1.876 -0.8821  0.4033  0.5640
    4MOL   O340 2026   2.052   6.279   1.760 -0.3784  0.5738  1.1009
    4MOL   C341 2027   1.839   6.300   1.859  0.3202  0.7039 -0.2513
    4MOL   C342 2028   1.763   6.305   1.980 -1.2239 -0.0627 -0.0947
    4MOL   C343 2029   1.620   6.306   1.972  0.2134 -0.4406  0.8951
    4MOL   C344 2030   1.538   6.312   2.093 -0.3288 -0.1532  0.1881
    4MOL   C345 2031   1.403   6.325   2.075  0.3517  0.4537 -0.1949
    4MOL   C346 2032   1.338   6.297   1.952 -0.5545  0.1118  0.3090
    4MOL   C347 2033   1.195   6.298   1.949 -0.5631  0.4496 -0.1026
    4MOL   O348 2034   1.144   6.217   1.854 -0.0181 -0.4016 -0.2765
    4MOL   C349 2035   1.003   6.181   1.856 -0.3935 -0.2166  0.2272
    4MOL   C350 2036   0.984   6.065   1.960 -0.0359  0.6097  0.7398
    4MOL   O351 2037   1.129   6.357   2.032  0.2683  0.3335  0.1512
    4MOL   C352 2038   1.417   6.268   1.839  0.8054  0.4140  0.0492
    4MOL   C353 2039   1.557   6.286   1.847  0.2975 -0.5387 -0.4072
    4MOL   C354 2040   1.633   6.273   1.727  0.4632 -0.4958 -0.1668
    4MOL   C355 2041   1.776   6.277   1.733  0.0416  0.3363 -0.2710
    4MOL   H356 2042   1.807   6.320   2.077 -3.3403 -3.1497  1.4220
    4MOL   H357 2043   1.574   6.338   2.192 -1.1065 -2.4481  1.0960
    4MOL   H358 2044   1.341   6.350   2.160 -2.5252 -3.8376 -0.8634
    4MOL   H359 2045   0.967   6.161   1.755 -0.9349  3.4338 -0.3613
    4MOL   H360 2046   0.949   6.266   1.897 -0.7672 -0.4430  0.2108
    4MOL   H361 2047   0.893   6.008   1.938  0.3917 -0.1670  0.9501
    4MOL   H362 2048   1.064   5.998   1.930 -2.0094 -1.5921  0.1792
    4MOL   H363 2049   1.369   6.234   1.748 -2.0418 -0.4080  1.7943
    4MOL   H364 2050   1.576   6.260   1.636  1.4144  2.1450 -1.1674
    4MOL   H365 2051   1.835   6.272   1.643  2.4443 -0.7622  1.3084
    4MOL   O366 2052   0.775   6.186   2.086  0.5804  0.5642  0.5181
    4MOL   C367 2053   0.877   6.165   2.150 -0.1793  0.0926  0.3686
    4MOL   O368 2054   0.993   6.100   2.097  0.6220 -0.1029 -0.0059
    4MOL   C369 2055   0.893   6.193   2.291 -0.1436  0.4407 -0.4454
    4MOL   C370 2056   0.987   6.119   2.366  0.0632 -0.5429  0.3109
    4MOL   C371 2057   0.996   6.129   2.506 -0.0183  0.2936 -0.2059
    4MOL   C372 2058   1.074   6.045   2.587 -0.6910  0.3325 -0.7301
    4MOL   C373 2059   1.081   6.060   2.729  0.3080  0.3569 -0.4894
    4MOL   C374 2060   1.024   6.172   2.793  0.2663 -0.1195  0.3605
    4MOL   C375 2061   1.052   6.199   2.938 -0.5360  0.3415  0.4916
    4MOL   O376 2062   1.027   6.323   2.969 -0.6965 -0.7650 -0.0410
    4MOL   C377 2063   1.076   6.371   3.090  0.4272 -0.2967 -0.4596
    4MOL   C378 2064   1.028   6.520   3.121  0.2218  0.0464  0.3733
    4MOL   O379 2065   1.106   6.118   3.013  0.1813  0.0218 -0.2526
    4MOL   C380 2066   0.937   6.251   2.712  0.3171 -0.2372  0.0208
    4MOL   C381 2067   0.916   6.227   2.576 -0.1543 -0.7860 -0.2739
    4MOL   C382 2068   0.811   6.292   2.503  0.3370  0.0183 -0.2446
    4MOL   C383 2069   0.800   6.274   2.361 -0.0376  0.4853 -0.0153
    4MOL   H384 2070   1.064   6.060   2.318 -1.8439 -2.7909 -0.0485
    4MOL   H385 2071   1.137   5.965   2.552 -1.7434 -0.2200 -1.3946
    4MOL   H386 2072   1.147   6.001   2.790  2.6431  2.0384 -1.3078
    4MOL   H387 2073   1.185   6.365   3.081  0.5150  1.2548 -0.5903
    4MOL   H388 2074   1.041   6.310   3.173 -2.4982  1.4893 -0.3030
    4MOL   H389 2075   1.088   6.570   3.197  0.1734  0.8787 -0.1243
    4MOL   H390 2076   1.034   6.573   3.026  1.5693  2.0311  1.5345
    4MOL   H391 2077   0.876   6.327   2.759  1.3944 -0.2818  1.5291
    4MOL   H392 2078   0.743   6.365   2.545 -1.2865 -1.7784  0.2870
    4MOL   H393 2079   0.729   6.327   2.299 -1.4016  1.0048  1.9286
    4MOL   O394 2080   0.796   6.602   2.996 -0.5405 -0.0624 -0.2737
    4MOL   C395 2081   0.789   6.555   3.109 -0.2439  0.0593 -0.4812
    4MOL   O396 2082   0.899   6.522   3.186  0.3942  0.1183 -0.3469
    4MOL   C397 2083   0.670   6.545   3.184 -0.4884  0.1796 -0.5976
    4MOL   C398 2084   0.660   6.464   3.298  0.3436  0.1855  0.0980
    4MOL   C399 2085   0.540   6.457   3.364  0.0138 -0.4774  0.8701
    4MOL   C400 2086   0.537   6.383   3.481 -0.1007  0.5635 -0.5144
    4MOL   C401 2087   0.424   6.384   3.557  0.6232  0.4610  0.3765
    4MOL   C402 2088   0.305   6.446   3.512 -0.0483 -0.4290 -0.8705
    4MOL   C403 2089   0.177   6.427   3.588  0.4960 -0.1710 -0.5474
    4MOL   O404 2090   0.070   6.482   3.530  0.1023  0.0767  0.0141
    4MOL   C405 2091   8.191   6.488   3.587 -0.5834 -0.1091 -0.0445
    4MOL   C406 2092   8.110   6.357   3.560  0.0468 -0.3489 -0.4498
    4MOL   O407 2093   0.169   6.377   3.703 -0.2495 -0.1661 -0.3672
    4MOL   C408 2094   0.309   6.524   3.398 -0.3825 -0.0224  0.5239
    4MOL   C409 2095   0.431   6.532   3.325  0.6826 -0.0073  0.7036
    4MOL   C410 2096   0.434   6.597   3.197 -0.4279  0.1533  0.1278
    4MOL   C411 2097   0.553   6.609   3.128 -0.5382 -0.8707  0.0273
    4MOL   H412 2098   0.751   6.414   3.326  1.4330  0.0825 -3.3217
    4MOL   H413 2099   0.626   6.324   3.500  0.3600  1.2895 -0.4117
    4MOL   H414 2100   0.436   6.317   3.641  0.2159 -2.0533 -1.5254
    4MOL   H415 2101   8.144   6.575   3.542  0.5890 -0.3344 -1.7348
    4MOL   H416 2102   8.206   6.504   3.694  2.0011 -2.5835  0.0320
    4MOL   H417 2103   8.010   6.390   3.530  0.7133  2.5595  0.4630
    4MOL   H418 2104   8.159   6.301   3.480  0.9024  1.6008 -1.3076
    4MOL   H419 2105   0.223   6.574   3.358 -0.1231  1.9470  2.3681
    4MOL   H420 2106   0.344   6.643   3.157  0.4681  1.3750 -0.5298
    4MOL   H421 2107   0.570   6.665   3.037  2.7103  0.1148  1.1615
    4MOL   O422 2108   7.995   6.116   3.565 -0.2678 -0.1148  0.0005
    4MOL   C423 2109   8.066   6.148   3.657  0.4588 -0.0295  0.4344
    4MOL   O424 2110   8.109   6.266   3.671  0.0204 -0.1533  0.3693
    4MOL   C425 2111   8.094   6.066   3.786  0.4507  0.1609  0.2269
    4MOL   C426 2112   8.005   5.967   3.841  0.5735  0.8443  0.4066
    4MOL   C427 2113   8.035   5.895   3.960 -0.0934  0.9481 -0.2602
    4MOL   C428 2114   7.941   5.811   4.022 -0.7169 -0.2574  0.6021
    4MOL   C429 2115   7.985   5.741   4.141  0.5103 -0.2233  0.2510
    4MOL   C430 2116   8.106   5.754   4.204  0.0271  0.3301  0.0342
    4MOL   C431 2117   8.138   5.706   4.336  0.2049 -0.4218 -0.0251
    4MOL   O432 2118   8.241   5.757   4.394  0.1580 -0.5917  0.2770
    4MOL   C433 2119   0.046   5.695   4.512 -0.5745  0.0125  0.2055
    4MOL   C434 2120   8.237   5.768   4.630  0.1305  0.1099 -0.0949
    4MOL   O435 2121   8.066   5.622   4.393 -0.2617  0.3338 -0.6591
    4MOL   C436 2122   8.192   5.853   4.143  0.8797  0.3167 -0.4942
    4MOL   C437 2123   8.160   5.919   4.024  0.0790  0.1003 -0.1472
    4MOL   C438 2124   8.243   6.021   3.972  0.3421  0.2836 -0.1833
    4MOL   C439 2125   8.215   6.092   3.855  0.7676  0.4286  0.1905
    4MOL   H440 2126   7.908   5.961   3.793  0.2861 -1.3005  1.1930
    4MOL   H441 2127   7.838   5.793   3.997 -0.0165 -1.9074 -1.3271
    4MOL   H442 2128   7.911   5.683   4.194  1.8446 -4.3718 -2.2170
    4MOL   H443 2129   0.155   5.695   4.512 -0.5754 -1.0673 -0.3696
    4MOL   H444 2130   0.022   5.589   4.521 -1.3273  0.0848 -0.8623
    4MOL   H445 2131   8.156   5.829   4.590  0.5516  1.5401  1.1916
    4MOL   H446 2132   8.193   5.698   4.702  1.9991 -0.7547  0.2328
    4MOL   H447 2133   0.034   5.886   4.190  1.0209  0.2325 -0.7093
    4MOL   H448 2134   0.085   6.034   4.028 -0.7753  1.3500  1.4262
    4MOL   H449 2135   0.046   6.159   3.830  1.5088 -0.1727  0.9082
    4MOL   O450 2136   8.176   5.922   4.858 -0.8569  0.2932 -0.1502
    4MOL   C451 2137   0.043   5.913   4.810 -0.0843 -0.9319  0.5498
    4MOL   O452 2138   0.074   5.853   4.695  1.0762  0.4384  0.1324
    4MOL   C453 2139   0.159   5.987   4.871  0.4245 -0.2280 -0.1438
    4MOL   C454 2140   0.291   5.939   4.846  0.4530 -0.4176 -0.0281
    4MOL   C455 2141   0.393   6.016   4.912 -0.3279  0.7730 -0.2526
    4MOL   C456 2142   0.526   5.980   4.891  0.1671  0.4076 -0.2593
    4MOL   C457 2143   0.628   6.068   4.937  0.1025  0.9860 -0.0504
    4MOL   C458 2144   0.598   6.179   5.015 -0.1221 -0.3957 -0.0211
    4MOL   C459 2145   0.703   6.274   5.061  0.6467  0.7805 -0.2928
    4MOL   O460 2146   0.831   6.235   5.030  0.3623 -0.3594  0.1441
    4MOL   C461 2147   0.935   6.320   5.077 -0.0482  0.2120  0.7665
    4MOL   C462 2148   0.970   6.283   5.220 -0.4649  0.3307  0.3333
    4MOL   O463 2149   0.685   6.386   5.108  0.4168 -0.3962 -0.9329
    4MOL   C464 2150   0.460   6.203   5.041  0.9222  0.1282  0.6264
    4MOL   C465 2151   0.359   6.125   4.993  0.2162 -0.6805 -0.3601
    4MOL   C466 2152   0.226   6.156   5.025 -0.2334  0.5363 -0.6410
    4MOL   C467 2153   0.125   6.086   4.962 -0.1147  0.0454 -0.1033
    4MOL   H468 2154   0.320   5.855   4.785  0.7950  0.0816 -0.5542
    4MOL   H469 2155   0.552   5.895   4.831  0.8449 -1.0013  1.9481
    4MOL   H470 2156   0.731   6.036   4.928 -1.2836 -3.5235 -1.7249
    4MOL   H471 2157   0.903   6.420   5.048 -2.7817 -0.9920 -0.4748
    4MOL   H472 2158   1.012   6.288   5.006 -2.7756 -3.1882 -0.8342
    4MOL   H473 2159   0.948   6.178   5.234  0.4052  0.3555  2.1786
    4MOL   H474 2160   1.079   6.290   5.227 -0.4985 -0.7817  2.4474
    4MOL   H475 2161   0.434   6.280   5.111  0.8922 -0.4262  1.2215
    4MOL   H476 2162   0.205   6.249   5.075 -1.4300 -0.5927  0.9884
    4MOL   H477 2163   0.022   6.117   4.969 -0.2704 -0.5241  0.1646
    4MOL   O478 2164   1.059   6.535   5.246 -0.5570  0.8457  0.0097
    4MOL   C479 2165   0.961   6.501   5.317 -0.5249 -0.3320 -1.3714
    4MOL   O480 2166   0.910   6.375   5.312  0.1156 -0.3201 -0.2023
    4MOL   C481 2167   0.921   6.590   5.431  0.1403  0.5491  0.0931
    4MOL   C482 2168   0.956   6.726   5.435  0.6576  0.4881 -0.2569
    4MOL   C483 2169   0.899   6.815   5.532  0.3846 -0.3277  0.7298
    4MOL   C484 2170   0.925   6.949   5.530 -0.1008  1.0623  0.2426
    4MOL   C485 2171   0.881   7.030   5.637  0.2912  0.1741  0.0230
    4MOL   C486 2172   0.791   6.977   5.736  0.3324 -0.2306 -0.8701
    4MOL   C487 2173   0.730   7.062   5.838  0.7391 -0.4473 -0.5398
    4MOL   O488 2174   0.744   7.194   5.803  0.4390  0.5453 -0.6298
    4MOL   C489 2175   0.703   7.290   5.895  0.2242 -0.3675  1.1230
    4MOL   C490 2176   0.557   7.315   5.881  0.5417 -0.4544 -0.5290
    4MOL   O491 2177   0.688   7.031   5.948 -0.4118  0.0923 -0.1652
    4MOL   C492 2178   0.767   6.837   5.735 -0.0741 -0.1925 -0.1422
    4MOL   C493 2179   0.819   6.757   5.633  0.1172  0.4484 -0.2909
    4MOL   C494 2180   0.794   6.612   5.633  0.7214  0.2135 -0.3840
    4MOL   C495 2181   0.837   6.535   5.527  0.0073 -1.0259 -0.8050
    4MOL   H496 2182   1.008   6.769   5.351 -1.0218 -0.6660 -1.9604
    4MOL   H497 2183   0.991   6.988   5.454 -0.3762  0.0725 -0.5104
    4MOL   H498 2184   0.902   7.136   5.634 -1.2245  0.4357 -2.6588
    4MOL   H499 2185   0.742   7.389   5.870 -0.5477 -0.1547  0.7674
    4MOL   H500 2186   0.734   7.270   5.998 -1.1381 -2.9226  1.0819
    4MOL   H501 2187   0.537   7.412   5.928 -0.3222 -1.1346  0.5361
    4MOL   H502 2188   0.533   7.337   5.777  1.5800 -2.0974 -1.1207
    4MOL   H503 2189   0.700   6.788   5.804 -0.5533 -0.0261 -0.4880
    4MOL   H504 2190   0.741   6.566   5.715  1.6438 -0.8880 -0.3818
    4MOL   H505 2191   0.798   6.434   5.522  1.7631 -1.8199  0.9616
    4MOL   O506 2192   0.529   7.263   6.154  0.2968  0.8340 -0.3947
    4MOL   C507 2193   0.463   7.203   6.067 -0.0776  0.4492  0.0551
    4MOL   O508 2194   0.470   7.220   5.934 -0.7712  0.3543 -0.3280
    4MOL   C509 2195   0.353   7.109   6.108 -0.0905 -0.5566 -0.0624
    4MOL   C510 2196   0.267   7.051   6.018 -0.1131  0.1160 -0.5027
    4MOL   C511 2197   0.158   6.969   6.060 -0.0902  0.6165  0.0552
    4MOL   C512 2198   0.059   6.925   5.970  0.1828 -0.3211  0.2251
    4MOL   C513 2199   8.200   6.850   6.016 -0.1963 -0.8616  0.1737
    4MOL   C514 2200   8.191   6.804   6.149  0.0992 -0.8308  0.1283
    4MOL   C515 2201   8.079   6.719   6.197  0.5480  0.0074  0.6110
    4MOL   O516 2202   7.985   6.711   6.106  0.6947  0.3961  0.0073
    4MOL   C517 2203   7.876   6.618   6.122  0.5009  0.0071  0.2499
    4MOL   C518 2204   7.871   6.543   5.994  0.4954  0.0326  0.7729
    4MOL   O519 2205   8.079   6.663   6.305 -0.2817 -0.0995  0.6556
    4MOL   C520 2206   0.042   6.842   6.238 -0.0210 -0.2578 -1.2575
    4MOL   C521 2207   0.147   6.929   6.197  0.4520  0.0104 -0.3313
    4MOL   C522 2208   0.245   6.975   6.286 -0.3390 -0.2067 -0.1986
    4MOL   C523 2209   0.347   7.068   6.242  0.5153  0.3639  0.7483
    4MOL   H524 2210   0.279   7.080   5.915  0.8497 -0.6329 -0.6067
    4MOL   H525 2211   0.069   6.952   5.866  1.4193  3.3139  1.1907
    4MOL   H526 2212   8.136   6.799   5.946  2.4410 -1.3976 -1.9305
    4MOL   H527 2213   7.784   6.672   6.144  0.2090 -1.6466  3.4486
    4MOL   H528 2214   7.899   6.552   6.207  0.3638 -0.5880 -0.1704
    4MOL   H529 2215   7.935   6.455   5.990 -1.6323 -1.4585 -2.2417
    4MOL   H530 2216   7.773   6.500   5.976  0.6897 -0.9685  2.0262
    4MOL   H531 2217   0.028   6.815   6.342  0.4961  1.6996 -0.6435
    4MOL   H532 2218   0.249   6.939   6.388  1.0563  4.1623  1.3833
    4MOL   H533 2219   0.426   7.092   6.311  1.4412 -1.5748  0.3737
    4MOL   O534 2220   7.679   6.674   5.837  0.1474 -0.1230 -0.9235
    4MOL   C535 2221   7.799   6.705   5.827 -0.3874 -0.2646 -0.0767
    4MOL   O536 2222   7.902   6.634   5.887 -0.2102 -0.0627  0.6529
    4MOL   C537 2223   7.861   6.810   5.735  0.8764 -0.0067  0.1619
    4MOL   C538 2224   8.003   6.822   5.708  0.2772 -0.5380 -1.0553
    4MOL   C539 2225   8.053   6.924   5.625 -0.1753 -0.0235 -0.0694
    4MOL   C540 2226   8.192   6.946   5.604  0.3056  0.4401 -0.4386
    4MOL   C541 2227   8.237   7.058   5.527  0.4592  0.4791 -0.4927
    4MOL   C542 2228   8.150   7.154   5.466 -0.1647 -0.8300 -0.3524
    4MOL   C543 2229   8.199   7.264   5.385 -0.0195 -0.8569  0.1975
    4MOL   O544 2230   0.085   7.269   5.375  0.2079 -0.1027 -0.0702
    4MOL   C545 2231   0.152   7.362   5.285  0.1488 -0.2856 -0.0272
    4MOL   C546 2232   0.300   7.358   5.320  0.2754  0.7952  0.0810
    4MOL   O547 2233   8.127   7.333   5.313  0.2153  0.3427 -0.8922
    4MOL   C548 2234   8.015   7.134   5.497 -0.2607 -0.4845  0.0435
    4MOL   C549 2235   7.962   7.020   5.570  0.2598  0.0756 -0.3629
    4MOL   C550 2236   7.822   7.008   5.589  0.1844  0.5505 -0.0156
    4MOL   C551 2237   7.769   6.904   5.673  0.2129  0.7516 -0.3297
    4MOL   H552 2238   8.062   6.746   5.759  2.2243  1.5584 -0.0708
    4MOL   H553 2239   0.013   6.877   5.648  1.4729  0.4077 -2.2921
    4MOL   H554 2240   0.093   7.073   5.503  1.1136 -1.9099  0.7577
    4MOL   H555 2241   0.110   7.460   5.308  1.5743  0.9370 -2.4654
    4MOL   H556 2242   0.137   7.346   5.178  1.9224 -0.5499 -0.2575
    4MOL   H557 2243   0.321   7.387   5.423  0.0075  0.3915  0.2547
    4MOL   H558 2244   0.358   7.419   5.252 -0.5248  1.9903  0.4446
    4MOL   H559 2245   7.948   7.206   5.452  2.2617  1.1456 -1.2191
    4MOL   H560 2246   7.750   7.084   5.561  1.8742  0.9105 -3.6070
    4MOL   H561 2247   7.664   6.906   5.699  1.1278 -0.0775  3.7556
    4MOL   H562 2248   0.334   7.256   5.303  0.5256  1.1887 -1.8471
    5MOL     O1 2249   2.337   7.604   7.428  0.4889  0.4216  0.2553
    5MOL     C2 2250   2.232   7.649   7.385  0.6501 -0.4108 -0.4213
    5MOL     O3 2251   2.113   7.633   7.447 -0.4651  0.2149  0.3869
    5MOL     C4 2252   2.225   7.732   7.259 -0.4259  0.1313 -0.2240
    5MOL     C5 2253   2.328   7.717   7.160 -0.5249 -0.2432 -0.1497
    5MOL     C6 2254   2.330   7.792   7.042 -0.7451  0.1960  0.2523
    5MOL     C7 2255   2.432   7.769   6.951 -0.7337 -0.1150 -0.8643
    5MOL     C8 2256   2.430   7.844   6.836 -0.4581  0.3767  0.0200
    5MOL     C9 2257   2.323   7.931   6.801  0.6633  0.2952 -0.6703
    5MOL    C10 2258   2.331   8.009   6.674 -0.0100  0.1452  0.0435
    5MOL    O11 2259   2.227   8.092   6.653  0.5967 -0.2672 -0.1943
    5MOL    C12 2260   2.222   8.156   6.523  0.2350 -0.5761  0.5015
    5MOL    C13 2261   2.160   8.058   6.424  0.2518  1.1240  0.2069
    5MOL    O14 2262   2.431   8.021   6.601  0.3770  0.5632 -0.3295
    5MOL    C15 2263   2.211   7.945   6.889 -0.2136  0.4783  0.0822
    5MOL    C16 2264   2.225   7.881   7.013 -0.1117 -0.3307 -0.7057
    5MOL    C17 2265   2.127   7.894   7.110  0.7079 -0.0427  0.0119
    5MOL    C18 2266   2.119   7.819   7.227  1.0271 -0.1511  0.0776
    5MOL    H19 2267   2.412   7.653   7.182 -0.1299  0.2591 -0.2087
    5MOL    H20 2268   2.515   7.702   6.965  2.2804  3.3180 -1.5840
    5MOL    H21 2269   2.511   7.825   6.767 -0.4120 -0.9969  0.4338
    5MOL    H22 2270   2.157   8.244   6.529  0.9651  0.2908 -3.1894
    5MOL    H23 2271   2.313   8.194   6.477 -0.7981  1.2175 -0.1252
    5MOL    H24 2272   2.136   8.111   6.332 -0.0990  2.3338  0.9913
    5MOL    H25 2273   2.233   7.979   6.406 -0.6120  0.4428 -0.3507
    5MOL    H26 2274   2.129   8.016   6.884  0.0742  0.8608  0.7305
    5MOL    H27 2275   2.044   7.958   7.081 -0.5093 -1.2928  0.6569
    5MOL    H28 2276   2.033   7.832   7.291 -0.3876 -2.5853 -1.2277
    5MOL    H29 2277   2.137   7.613   7.536 -1.8469  4.1399  1.7690
    5MOL    O30 2278   1.909   8.159   6.447 -0.1821 -0.0528 -0.5584
    5MOL    C31 2279   1.940   8.058   6.509  0.0082 -0.0203  0.6244
    5MOL    O32 2280   2.051   7.990   6.484 -0.0999 -0.5150 -0.3671
    5MOL    C33 2281   1.858   7.992   6.604  0.0180 -0.5126  0.5615
    5MOL    C34 2282   1.905   7.882   6.678  0.2330 -0.1078 -0.5121
    5MOL    C35 2283   1.830   7.825   6.782  0.3294  0.6407 -0.2241
    5MOL    C36 2284   1.885   7.720   6.853  0.3286  0.5971 -0.0294
    5MOL    C37 2285   1.801   7.654   6.950  0.3545 -0.2931  0.3392
    5MOL    C38 2286   1.668   7.704   6.971 -0.1384  0.4302  0.0948
    5MOL    C39 2287   1.591   7.639   7.082 -0.0055 -0.0853  0.2747
    5MOL    O40 2288   1.479   7.702   7.111  0.6853 -0.1012 -0.0272
    5MOL    C41 2289   1.390   7.655   7.212 -0.2551  0.0633 -0.1233
    5MOL    C42 2290   1.243   7.714   7.196  0.6278 -0.4840  0.3031
    5MOL    O43 2291   1.622   7.527   7.135 -0.9936  0.3273 -0.0696
    5MOL    C44 2292   1.618   7.813   6.901 -0.3038 -0.1015 -0.0443
    5MOL    C45 2293   1.696   7.872   6.806 -0.1075 -0.2241 -0.4461
    5MOL    C46 2294   1.649   7.976   6.724  0.3538  0.2123  0.6109
    5MOL    C47 2295   1.727   8.037   6.626 -0.0403  0.4921  0.5947
    5MOL    H48 2296   2.007   7.846   6.672  0.0328 -1.3627  2.5513
    5MOL    H49 2297   1.979   7.671   6.830  0.5140  0.5636  0.8015
    5MOL    H50 2298   1.839   7.566   7.000  0.4564  0.0923  0.9514
    5MOL    H51 2299   1.432   7.697   7.303 -1.9998 -1.1364  1.2645
    5MOL    H52 2300   1.382   7.547   7.217  2.0956 -0.1080  0.2151
    5MOL    H53 2301   1.241   7.804   7.134 -0.5346 -0.2773  0.6270
    5MOL    H54 2302   1.182   7.645   7.138 -0.4684  1.5431 -1.0004
    5MOL    H55 2303   1.521   7.856   6.919  0.5767  1.4350  1.1471
    5MOL    H56 2304   1.547   8.009   6.732 -0.9926 -3.5147 -0.4189
    5MOL    H57 2305   1.692   8.129   6.580  0.2049 -0.3478 -1.3373
    5MOL    O58 2306   0.994   7.815   7.230  0.6417 -0.2269  0.3181
    5MOL    C59 2307   1.055   7.785   7.330  0.1888  0.2150 -0.5316
    5MOL    O60 2308   1.182   7.732   7.323  0.2459 -0.7422  0.9292
    5MOL    C61 2309   1.007   7.814   7.466 -0.7387  0.2741  1.0834
    5MOL    C62 2310   1.088   7.802   7.579 -0.3529  0.9966 -0.9958
    5MOL    C63 2311   1.032   7.841   7.699 -0.9874  0.1278  0.5871
    5MOL    C64 2312   1.118   7.866   7.803  0.2874 -0.3487  1.0899
    5MOL    C65 2313   1.069   7.908   7.930  0.6379  0.1552  0.1491
    5MOL    C66 2314   0.931   7.920   7.948  0.0713  0.5605  0.4372
    5MOL    C67 2315   0.884   7.975   8.075  0.2080 -0.4116 -0.6462
    5MOL    O68 2316   0.763   8.026   8.072  0.1498 -0.7259 -0.3058
    5MOL    C69 2317   0.683   8.059   8.190  0.4044  0.6089  0.5215
    5MOL    C70 2318   0.546   7.989   8.171 -0.0831  0.0416  0.9670
    5MOL    O71 2319   0.959   7.982   8.177  0.1348  0.2888 -0.5145
    5MOL    C72 2320   0.843   7.905   7.836 -0.1308 -0.6878  0.6075
    5MOL    C73 2321   0.892   7.872   7.712 -0.6461  0.5523 -0.3440
    5MOL    C74 2322   0.809   7.870   7.599  0.1187 -0.1669  0.4770
    5MOL    C75 2323   0.868   7.845   7.473 -0.7949 -0.4234  0.4560
    5MOL    H76 2324   1.191   7.773   7.577 -1.0224 -1.6142  0.0509
    5MOL    H77 2325   1.223   7.841   7.792  0.1412 -1.3823  1.8325
    5MOL    H78 2326   1.136   7.935   8.011  2.4873 -1.5982 -0.7542
    5MOL    H79 2327   0.666   8.167   8.187  1.0943  0.6911 -0.8282
    5MOL    H80 2328   0.734   8.023   0.030  0.6319  0.9467  0.5293
    5MOL    H81 2329   0.492   8.019   0.013 -0.6033 -2.7106  1.5930
    5MOL    H82 2330   0.486   8.009   8.083  0.0529  1.7075  1.2221
    5MOL    H83 2331   0.736   7.918   7.844  0.0544  1.2087  0.4451
    5MOL    H84 2332   0.705   7.898   7.601  0.1879  0.5983 -3.6536
    5MOL    H85 2333   0.813   7.852   7.381 -0.7309  2.0979  0.5766
    5MOL    O86 2334   0.565   7.788   7.984 -0.5520  0.2426 -0.1559
    5MOL    C87 2335   0.574   7.761   8.102 -0.0868  0.6089  0.2879
    5MOL    O88 2336   0.573   7.848   8.197  0.0521 -0.4150 -0.7334
    5MOL    C89 2337   0.580   7.622   8.165  0.4931 -0.1236  0.4186
    5MOL    C90 2338   0.551   7.510   8.083  0.1872  1.0562  0.3309
    5MOL    C91 2339   0.538   7.380   8.138  0.0555  0.0228 -0.3588
    5MOL    C92 2340   0.492   7.271   8.061 -0.6256 -0.5268  0.1376
    5MOL    C93 2341   0.470   7.147   8.115  0.1443  1.0832  0.2246
    5MOL    C94 2342   0.489   7.127   0.005 -0.1549 -0.0453  0.0682
    5MOL    C95 2343   0.473   6.993   0.069 -0.9551 -0.2273  0.3231
    5MOL    O96 2344   0.456   6.892   8.234 -0.6592 -0.4359  0.8372
    5MOL    C97 2345   0.423   6.759   0.037 -0.0827 -0.4152 -0.0200
    5MOL    C98 2346   0.461   6.655   8.187 -0.0194  0.2462 -0.0409
    5MOL    O99 2347   0.494   6.970   0.189 -0.5615 -0.0703  0.1070
    5MOL   C100 2348   0.533   7.233   0.085 -0.3012 -0.2686 -0.0589
    5MOL   C101 2349   0.558   7.361   0.030 -0.2231  0.2283  0.0122
    5MOL   C102 2350   0.595   7.470   0.113 -0.2579 -0.0993  0.2528
    5MOL   C103 2351   0.600   7.600   0.052 -0.0051 -0.5529  0.1502
    5MOL   H104 2352   0.529   7.530   7.979 -1.7903  2.5869  1.0023
    5MOL   H105 2353   0.486   7.280   7.953  1.1020 -0.9018  0.0030
    5MOL   H106 2354   0.433   7.068   8.052  0.4673 -0.8641  2.4077
    5MOL   H107 2355   0.317   6.760   0.060 -0.1007  1.0121 -0.1075
    5MOL   H108 2356   0.470   6.744   0.135 -1.9037 -0.4701  0.8582
    5MOL   H109 2357   0.368   6.617   8.146 -1.0164  0.1387  2.2470
    5MOL   H110 2358   0.503   6.690   8.093 -0.5939 -2.3245 -1.3098
    5MOL   H111 2359   0.566   7.217   0.186  0.0525  0.2937 -0.0867
    5MOL   H112 2360   0.615   7.442   0.216  0.3709 -1.1635 -0.1379
    5MOL   H113 2361   0.612   7.684   0.118 -0.5888  1.3572 -2.0969
    5MOL   O114 2362   0.398   6.444   0.078  0.4053  0.2266 -0.5553
    5MOL   C115 2363   0.514   6.456   0.050  0.2920  0.4380  0.1696
    5MOL   O116 2364   0.558   6.564   8.237 -0.2547  0.7846 -0.2790
    5MOL   C117 2365   0.614   6.348   0.067 -0.7659 -1.1559 -0.2766
    5MOL   C118 2366   0.755   6.373   0.054 -0.5420 -0.2634  0.0838
    5MOL   C119 2367   0.839   6.267   0.071 -0.3095  0.7816 -0.5882
    5MOL   C120 2368   0.975   6.295   0.077  1.0166 -0.2134 -0.4462
    5MOL   C121 2369   1.067   6.190   0.103  0.4766 -0.1447 -0.5814
    5MOL   C122 2370   1.028   6.055   0.119 -0.1069 -0.0649  0.4973
    5MOL   C123 2371   1.123   5.946   0.130 -0.0783  0.4571 -0.6708
    5MOL   O124 2372   1.241   5.970   0.088 -0.0148 -0.1194 -0.0466
    5MOL   C125 2373   1.338   5.862   0.071  0.0433  0.3067  0.4387
    5MOL   C126 2374   1.362   5.843   8.174  0.3350  0.5213  0.6694
    5MOL   O127 2375   1.083   5.833   0.154  0.0022  0.0480 -0.8661
    5MOL   C128 2376   0.881   6.034   0.121 -0.2061 -0.6785  0.5058
    5MOL   C129 2377   0.793   6.135   0.095 -0.1782 -1.0554 -0.3707
    5MOL   C130 2378   0.661   6.111   0.083  0.3705  0.0744  0.2993
    5MOL   C131 2379   0.566   6.219   0.081  0.0889  0.1604  0.2875
    5MOL   H132 2380   0.796   6.472   0.041 -2.5641  0.4277 -1.3992
    5MOL   H133 2381   1.010   6.396   0.058 -1.1771  1.1745  2.3981
    5MOL   H134 2382   1.170   6.219   0.094  0.1945  1.3127  0.6150
    5MOL   H135 2383   1.308   5.769   0.119  1.5639 -1.4486 -1.8746
    5MOL   H136 2384   1.434   5.893   0.112  0.5554  0.7778 -1.0664
    5MOL   H137 2385   1.272   5.789   8.145  1.5952 -0.2038 -1.9403
    5MOL   H138 2386   1.386   5.926   8.108 -2.8495  0.4111 -0.7476
    5MOL   H139 2387   0.843   5.933   0.130  0.4206 -0.9159  0.4624
    5MOL   H140 2388   0.621   6.011   0.083 -1.9235  0.9552 -1.2296
    5MOL   H141 2389   0.461   6.199   0.095 -0.3577  3.0993  1.2981
    5MOL   O142 2390   1.437   5.740   7.934 -0.2280  0.1630 -0.0851
    5MOL   C143 2391   1.497   5.706   8.037  0.3748 -0.7692  0.2921
    5MOL   O144 2392   1.468   5.756   8.163  0.2735  0.6991  0.2053
    5MOL   C145 2393   1.617   5.616   8.044 -0.5115  0.4227 -0.1678
    5MOL   C146 2394   1.676   5.564   7.925 -0.3694 -0.6642 -0.7362
    5MOL   C147 2395   1.780   5.468   7.937  0.2856  1.4103 -0.2733
    5MOL   C148 2396   1.827   5.399   7.823  0.5182 -0.3528 -0.6775
    5MOL   C149 2397   1.921   5.301   7.826 -0.2246  0.3913  0.2216
    5MOL   C150 2398   1.974   5.264   7.954  0.0547 -0.4286  0.6089
    5MOL   C151 2399   2.062   5.149   7.972 -0.5977 -0.2402  0.1153
    5MOL   O152 2400   2.076   5.065   7.869 -0.2923  0.4148  0.2697
    5MOL   C153 2401   2.141   4.941   7.886 -0.5743  0.0868 -0.6788
    5MOL   C154 2402   2.036   4.834   7.915  0.1411  0.4157  0.1300
    5MOL   O155 2403   2.124   5.128   8.080  0.1329  0.5274  0.1273
    5MOL   C156 2404   1.926   5.329   8.067  0.1536 -0.9043 -0.5168
    5MOL   C157 2405   1.830   5.429   8.060 -0.7821  0.0756  0.2310
    5MOL   C158 2406   1.777   5.480   8.179 -1.2454 -0.3930  0.1193
    5MOL   C159 2407   1.663   5.566   8.170  0.5305 -0.1357 -0.0280
    5MOL   H160 2408   1.630   5.599   7.834 -0.5989  0.2944 -0.2507
    5MOL   H161 2409   1.795   5.413   7.720  0.9762  0.8300 -0.6671
    5MOL   H162 2410   1.948   5.253   7.734 -1.3867 -0.1531  0.1536
    5MOL   H163 2411   2.230   4.936   7.950 -1.0077 -1.4966 -0.1573
    5MOL   H164 2412   2.159   4.915   7.782  1.2158 -2.9768  0.3378
    5MOL   H165 2413   1.948   4.861   7.856  1.1016 -0.3248 -1.6686
    5MOL   H166 2414   2.070   4.734   7.890  0.3633  0.6323 -0.4454
    5MOL   H167 2415   1.965   5.297   8.162  0.2946  1.4596  0.2358
    5MOL   H168 2416   1.810   5.443   0.025 -1.0696  0.1054  0.2516
    5MOL   H169 2417   1.624   5.600   0.016  1.5274  0.1756  0.2848
    5MOL   O170 2418   2.080   4.636   8.109 -0.3985  0.1151  0.2284
    5MOL   C171 2419   2.025   4.740   8.139  0.3715 -0.1927 -0.0037
    5MOL   O172 2420   2.003   4.838   8.052 -0.3401  0.2386 -0.3937
    5MOL   C173 2421   2.008   4.780   0.034  0.4372  0.8367  0.2911
    5MOL   C174 2422   2.015   4.684   0.136  0.4357  0.4454 -0.1127
    5MOL   C175 2423   2.005   4.713   0.272  0.4738 -0.2626  0.4203
    5MOL   C176 2424   2.002   4.615   0.366 -0.0564  0.7214 -0.4986
    5MOL   C177 2425   1.996   4.648   0.499 -0.9132  0.7427  0.0299
    5MOL   C178 2426   1.994   4.783   0.541  0.6003  0.2751 -1.0825
    5MOL   C179 2427   2.001   4.811   0.689  0.2914 -0.7917  0.3147
    5MOL   O180 2428   2.056   4.704   0.760  0.9820  0.0751 -0.2074
    5MOL   C181 2429   2.077   4.702   0.895  0.0023  0.6560 -0.2879
    5MOL   C182 2430   1.948   4.654   0.963 -0.3759  0.0136  0.1060
    5MOL   O183 2431   1.956   4.912   0.740 -0.0386  0.1884  0.3330
    5MOL   C184 2432   1.979   4.887   0.443  1.1738  0.2897  0.0034
    5MOL   C185 2433   1.980   4.849   0.313  0.2421  0.4918  0.3529
    5MOL   C186 2434   1.968   4.948   0.210  0.3329 -0.2711 -0.0110
    5MOL   C187 2435   1.974   4.911   0.072  0.5927 -0.1648 -0.0765
    5MOL   H188 2436   2.013   4.580   0.104 -1.1584 -0.4093  2.6319
    5MOL   H189 2437   2.016   4.512   0.337 -0.9525 -0.1211  1.9173
    5MOL   H190 2438   2.007   4.567   0.569  1.6773 -0.0571 -1.2668
    5MOL   H191 2439   2.110   4.802   0.922 -0.0417  0.8904 -1.1021
    5MOL   H192 2440   2.155   4.635   0.932  0.3337  0.9376 -0.4850
    5MOL   H193 2441   1.893   4.606   0.883 -2.7629  1.2516  0.9609
    5MOL   H194 2442   1.965   4.577   1.039  1.5659  1.2968  1.0197
    5MOL   H195 2443   2.000   4.986   0.480 -1.4355  0.3101  1.5288
    5MOL   H196 2444   1.944   5.050   0.236  2.1449  0.3035 -0.5001
    5MOL   H197 2445   1.966   4.985   8.243  1.8299 -1.4261 -1.4278
    5MOL   O198 2446   1.980   4.732   1.228 -0.1902 -0.0847  0.4887
    5MOL   C199 2447   1.896   4.786   1.157 -0.3822 -0.0211 -0.5361
    5MOL   O200 2448   1.881   4.761   1.024 -0.0609  0.2499  0.3764
    5MOL   C201 2449   1.806   4.892   1.205 -0.8175 -0.4933 -0.0651
    5MOL   C202 2450   1.759   4.881   1.341 -0.1088  0.4112  0.4270
    5MOL   C203 2451   1.669   4.979   1.387  0.3627  0.2422  0.0053
    5MOL   C204 2452   1.630   4.982   1.525 -0.4000  0.1667  0.4558
    5MOL   C205 2453   1.533   5.076   1.563  0.5239 -0.0035 -0.6165
    5MOL   C206 2454   1.476   5.174   1.477 -0.3930  0.8152 -0.3882
    5MOL   C207 2455   1.388   5.275   1.530 -0.1589  0.5614 -0.2349
    5MOL   O208 2456   1.327   5.224   1.646 -0.5923 -0.4300 -0.2297
    5MOL   C209 2457   1.260   5.309   1.743 -0.3115 -0.2244  0.3482
    5MOL   C210 2458   1.331   5.312   1.872  0.0497  0.0650  0.3393
    5MOL   O211 2459   1.367   5.381   1.478  0.7216 -0.1364  0.1312
    5MOL   C212 2460   1.529   5.182   1.344 -0.7326  0.3756 -0.8437
    5MOL   C213 2461   1.627   5.087   1.301  0.6082  0.3870  0.6318
    5MOL   C214 2462   1.677   5.096   1.171 -0.0101 -0.6000 -0.4812
    5MOL   C215 2463   1.755   4.997   1.120 -0.2942  0.8406 -0.7776
    5MOL   H216 2464   1.792   4.810   1.415 -1.3772  0.6482  1.2353
    5MOL   H217 2465   1.672   4.913   1.597  1.6399  2.1445  1.2199
    5MOL   H218 2466   1.492   5.067   1.662  1.9545  0.9229  0.0686
    5MOL   H219 2467   1.160   5.271   1.762 -1.2578  2.2756  0.5180
    5MOL   H220 2468   1.249   5.405   1.694  2.6560  0.4943  1.0054
    5MOL   H221 2469   1.377   5.218   1.902 -0.7801 -0.7044 -0.7654
    5MOL   H222 2470   1.414   5.382   1.860  0.2207 -0.3622 -1.1201
    5MOL   H223 2471   1.486   5.262   1.285 -2.9666  0.7826  1.2910
    5MOL   H224 2472   1.639   5.174   1.107  2.3947  1.5061  0.5291
    5MOL   H225 2473   1.776   5.014   1.015 -1.7245  1.7300 -0.9396
    5MOL   O226 2474   1.348   5.556   2.004 -0.0450 -0.8288  0.2178
    5MOL   C227 2475   1.273   5.467   2.041 -0.1022  0.4648 -0.1407
    5MOL   O228 2476   1.252   5.354   1.976 -0.6803 -0.8355  0.3800
    5MOL   C229 2477   1.193   5.471   2.168 -0.0147  0.4671  0.0437
    5MOL   C230 2478   1.145   5.594   2.216 -0.1017  0.0358 -0.1014
    5MOL   C231 2479   1.077   5.598   2.341 -0.7676 -0.2611  0.0548
    5MOL   C232 2480   1.042   5.720   2.404 -0.5594  0.2420 -0.2968
    5MOL   C233 2481   0.960   5.724   2.519 -0.2740 -0.2441 -0.1065
    5MOL   C234 2482   0.930   5.605   2.585 -0.1278  0.3542  0.3045
    5MOL   C235 2483   0.868   5.620   2.722  0.8204  0.4592  0.2729
    5MOL   O236 2484   0.854   5.497   2.769  0.5357 -0.1573  0.3225
    5MOL   C237 2485   0.798   5.463   2.901  0.1168 -0.0532  0.5609
    5MOL   C238 2486   0.869   5.335   2.953  0.5114  0.2366 -0.2698
    5MOL   O239 2487   0.841   5.726   2.780  0.5771  0.3708  0.5262
    5MOL   C240 2488   0.964   5.485   2.521 -0.0214  0.3348  0.0048
    5MOL   C241 2489   1.036   5.483   2.402  0.7213 -0.2022 -0.1297
    5MOL   C242 2490   1.058   5.360   2.346  0.3952  0.5974  0.4326
    5MOL   C243 2491   1.137   5.352   2.229  0.0653  0.5962  0.4284
    5MOL   H244 2492   1.179   5.682   2.162 -2.3408 -0.2542 -2.0257
    5MOL   H245 2493   1.053   5.818   2.360 -0.5982  0.3144 -0.1425
    5MOL   H246 2494   0.946   5.824   2.557 -0.3368  0.7839 -2.7327
    5MOL   H247 2495   0.690   5.457   2.895  0.0644  1.2474 -0.1480
    5MOL   H248 2496   0.810   5.548   2.969 -1.6371  1.9554 -1.5946
    5MOL   H249 2497   0.973   5.337   2.921 -0.1937 -0.5832 -2.7152
    5MOL   H250 2498   0.871   5.331   3.062  1.7768 -1.4719 -0.3289
    5MOL   H251 2499   0.932   5.393   2.567 -0.1140 -0.0846 -0.8689
    5MOL   H252 2500   1.046   5.267   2.399  2.0740  0.5212  0.7265
    5MOL   H253 2501   1.149   5.254   2.185  0.9857  0.8463  0.1014
    5MOL   O254 2502   0.655   5.226   3.067 -0.2199  0.0100 -0.0444
    5MOL   C255 2503   0.688   5.182   2.959 -0.2011  0.0361 -0.3114
    5MOL   O256 2504   0.802   5.220   2.896  0.0921  0.2627  0.3490
    5MOL   C257 2505   0.616   5.088   2.873 -0.7989  0.1012 -0.1790
    5MOL   C258 2506   0.491   5.040   2.911  0.9976  0.9079 -0.4724
    5MOL   C259 2507   0.426   4.933   2.845 -0.2294 -0.4487 -0.8289
    5MOL   C260 2508   0.297   4.889   2.880 -0.2093  0.0744 -0.3070
    5MOL   C261 2509   0.238   4.785   2.814  0.2402  0.5582  0.0880
    5MOL   C262 2510   0.300   4.729   2.699 -0.2450  0.6491 -0.5312
    5MOL   C263 2511   0.235   4.612   2.631  0.1035  0.2414  0.2200
    5MOL   O264 2512   0.311   4.557   2.542 -0.1130 -0.0300  0.1541
    5MOL   C265 2513   0.277   4.444   2.462 -0.0794 -0.3597 -0.0379
    5MOL   C266 2514   0.384   4.406   2.360 -0.3690  0.1442  0.2696
    5MOL   O267 2515   0.120   4.571   2.656 -0.5057 -0.3512 -0.2368
    5MOL   C268 2516   0.425   4.782   2.656 -0.7758  0.2730  0.2820
    5MOL   C269 2517   0.486   4.882   2.727 -0.0471  0.1584 -0.9270
    5MOL   C270 2518   0.608   4.936   2.687 -0.2681  0.0709  0.0030
    5MOL   C271 2519   0.681   5.032   2.763 -0.3116 -0.3960 -0.0854
    5MOL   H272 2520   0.440   5.073   3.000  1.4135  1.6400 -0.5018
    5MOL   H273 2521   0.241   4.929   2.963  0.5279  0.4568  0.0102
    5MOL   H274 2522   0.141   4.742   2.836  0.5582 -0.6088 -0.7440
    5MOL   H275 2523   0.183   4.458   2.408 -0.5312 -0.4334  0.7162
    5MOL   H276 2524   0.251   4.362   2.529  0.6371 -0.6138 -0.0623
    5MOL   H277 2525   0.448   4.490   2.332 -0.1648  1.0116  3.2355
    5MOL   H278 2526   0.456   4.336   2.403  0.4994  1.6836  1.3436
    5MOL   H279 2527   0.477   4.747   2.568 -2.4118  1.3322 -1.1425
    5MOL   H280 2528   0.648   4.901   2.593  2.1737  0.0664  0.9979
    5MOL   H281 2529   0.780   5.067   2.734 -0.1767 -1.2185 -0.6349
    5MOL   O282 2530   0.304   4.160   2.297  0.1698 -0.2465  0.5709
    5MOL   C283 2531   0.290   4.242   2.210  0.5483 -0.0211 -0.7794
    5MOL   O284 2532   0.329   4.369   2.227 -0.3080  0.2487  0.1913
    5MOL   C285 2533   0.256   4.205   2.071 -0.2647  0.0828 -0.3611
    5MOL   C286 2534   0.231   4.069   2.045  0.8693 -0.0193  1.0377
    5MOL   C287 2535   0.182   4.020   1.918 -0.2175 -0.6642 -0.5114
    5MOL   C288 2536   0.154   3.882   1.891 -0.3119 -0.3161 -0.0991
    5MOL   C289 2537   0.106   3.855   1.761  0.8894  0.1409  0.3635
    5MOL   C290 2538   0.092   3.950   1.654 -0.1729  0.4390 -0.2066
    5MOL   C291 2539   0.069   3.916   1.510  0.1459  0.0422  0.9855
    5MOL   O292 2540   0.085   3.786   1.492 -0.6868  0.1252 -0.2419
    5MOL   C293 2541   0.111   3.737   1.360  0.1721 -0.2594  0.3234
    5MOL   C294 2542   0.254   3.781   1.315  0.7784  0.3578 -0.1074
    5MOL   O295 2543   0.034   3.997   1.422 -0.0891 -0.6314  0.9066
    5MOL   C296 2544   0.108   4.082   1.687 -1.4597 -0.3734  0.1155
    5MOL   C297 2545   0.161   4.119   1.813 -0.4481  0.3379  0.0856
    5MOL   C298 2546   0.209   4.251   1.835 -0.0929  0.1937 -0.0245
    5MOL   C299 2547   0.247   4.298   1.967  0.1717  0.1073 -0.4270
    5MOL   H300 2548   0.265   3.998   2.119  2.2567 -0.0922  0.3494
    5MOL   H301 2549   0.183   3.803   1.958  2.1594 -0.4613 -1.2746
    5MOL   H302 2550   0.084   3.753   1.733 -0.8878  1.0974 -1.9196
    5MOL   H303 2551   0.035   3.773   1.291  0.2329 -1.0022 -0.1251
    5MOL   H304 2552   0.104   3.629   1.369 -1.1338 -0.3931 -1.9872
    5MOL   H305 2553   0.268   3.735   1.217  2.3137 -0.2194  0.3519
    5MOL   H306 2554   0.265   3.889   1.307 -1.0142  0.4999 -0.8454
    5MOL   H307 2555   0.085   4.163   1.620  2.6092 -1.3814 -2.6671
    5MOL   H308 2556   0.191   4.323   1.756 -0.6750 -1.4194 -1.3854
    5MOL   H309 2557   0.273   4.399   1.993  2.3497 -1.0949  2.3462
    5MOL   O310 2558   0.382   3.896   1.510 -0.5259 -0.3292 -0.0851
    5MOL   C311 2559   0.405   3.777   1.489  0.5308  0.4122  0.3168
    5MOL   O312 2560   0.349   3.711   1.393  0.2310  0.4450  0.3027
    5MOL   C313 2561   0.473   3.693   1.594  0.3729  0.1973 -0.2567
    5MOL   C314 2562   0.543   3.576   1.570  0.0766 -0.3636 -0.1004
    5MOL   C315 2563   0.623   3.518   1.675  0.0955 -0.4949 -0.7413
    5MOL   C316 2564   0.702   3.400   1.643  0.3568  0.1492 -0.0434
    5MOL   C317 2565   0.762   3.328   1.747  0.1421  0.2016  0.1630
    5MOL   C318 2566   0.754   3.375   1.883 -0.3557  0.2486  0.5625
    5MOL   C319 2567   0.822   3.312   2.001 -0.7832  0.6285  0.0603
    5MOL   O320 2568   0.828   3.183   1.980  0.0897 -0.5675  0.3235
    5MOL   C321 2569   0.886   3.096   2.072 -0.1578 -0.1850  0.3230
    5MOL   C322 2570   0.785   2.992   2.128 -0.8193 -0.5783  0.2351
    5MOL   O323 2571   0.859   3.369   2.099 -0.0502  0.2032 -0.7148
    5MOL   C324 2572   0.682   3.494   1.913 -1.3909 -0.3202  0.9261
    5MOL   C325 2573   0.606   3.558   1.808 -0.1033 -0.3483 -0.1152
    5MOL   C326 2574   0.529   3.665   1.841  0.2798 -0.2855 -0.6598
    5MOL   C327 2575   0.468   3.736   1.728  0.0855  0.0773  1.0385
    5MOL   H328 2576   0.547   3.532   1.471  0.0102 -0.4758 -0.0529
    5MOL   H329 2577   0.698   3.362   1.542 -0.7683 -0.5817  0.2657
    5MOL   H330 2578   0.815   3.236   1.728 -0.2597 -0.2200  1.0843
    5MOL   H331 2579   0.950   3.142   2.147 -1.8750 -1.9015  2.8974
    5MOL   H332 2580   0.953   3.046   2.001 -2.7787 -2.2999 -0.7723
    5MOL   H333 2581   0.715   2.969   2.047 -0.0673  0.8425 -0.8570
    5MOL   H334 2582   0.829   2.897   2.161  0.7277  0.3908  1.0079
    5MOL   H335 2583   0.695   3.530   2.014  0.5834 -0.2894  0.6754
    5MOL   H336 2584   0.516   3.695   1.944  0.1051 -1.3779 -0.3533
    5MOL   H337 2585   0.423   3.831   1.754  0.1301  0.3090  0.2831
    5MOL   O338 2586   0.558   3.162   2.131 -0.2106 -0.6781  0.0613
    5MOL   C339 2587   0.604   3.121   2.238  0.8593  0.1836  0.6110
    5MOL   O340 2588   0.713   3.043   2.245  0.0463 -0.2683  0.0114
    5MOL   C341 2589   0.537   3.144   2.366 -0.3623 -0.2975 -0.1917
    5MOL   C342 2590   0.615   3.141   2.485  0.4027  0.4199  0.0644
    5MOL   C343 2591   0.554   3.165   2.608 -0.1963 -0.0749  0.8162
    5MOL   C344 2592   0.620   3.176   2.727  0.6482 -0.6962 -0.0196
    5MOL   C345 2593   0.559   3.212   2.846 -0.6102 -0.0681  0.2464
    5MOL   C346 2594   0.427   3.258   2.852 -0.3544  0.1751 -0.5641
    5MOL   C347 2595   0.373   3.310   2.977  0.3195  0.1822 -0.4890
    5MOL   O348 2596   0.234   3.288   2.973 -0.0614  0.2281 -0.0180
    5MOL   C349 2597   0.163   3.351   3.084 -0.2646  0.6496 -0.6788
    5MOL   C350 2598   0.081   3.465   3.035 -0.8828  0.0439 -0.0215
    5MOL   O351 2599   0.438   3.361   3.060  0.2479 -0.0839 -0.7187
    5MOL   C352 2600   0.351   3.250   2.729 -0.3732 -0.4671  0.5599
    5MOL   C353 2601   0.416   3.205   2.610  0.2835 -0.3005  0.0716
    5MOL   C354 2602   0.341   3.210   2.490 -0.2238 -0.0462 -0.0369
    5MOL   C355 2603   0.397   3.172   2.368  0.5161 -0.3001 -0.9701
    5MOL   H356 2604   0.719   3.114   2.493  0.0150 -1.0110  0.4634
    5MOL   H357 2605   0.721   3.137   2.739  0.7462  0.0496  1.7314
    5MOL   H358 2606   0.604   3.198   2.943 -0.6681 -1.6783  0.0546
    5MOL   H359 2607   0.228   3.376   3.167 -2.1607 -0.3663  1.1466
    5MOL   H360 2608   0.101   3.270   3.122  1.5981  0.0420  1.1653
    5MOL   H361 2609   0.008   3.443   2.956  0.6310 -0.3684 -1.3314
    5MOL   H362 2610   0.023   3.505   3.118 -1.1045 -1.5556  0.6177
    5MOL   H363 2611   0.251   3.290   2.723 -0.8819 -1.7841  0.1596
    5MOL   H364 2612   0.241   3.252   2.491  0.7129  2.2903 -0.4539
    5MOL   H365 2613   0.339   3.172   2.277 -1.0970 -1.1976  0.0428
    5MOL   O366 2614   0.157   3.683   3.187 -0.2986  0.3440  0.5572
    5MOL   C367 2615   0.196   3.674   3.071  0.0611 -0.2119  0.2129
    5MOL   O368 2616   0.166   3.569   2.992 -0.1070 -0.1746  0.4075
    5MOL   C369 2617   0.277   3.777   2.991  0.4490  1.2198 -0.4796
    5MOL   C370 2618   0.311   3.899   3.052 -0.3214 -0.0400 -0.9272
    5MOL   C371 2619   0.389   3.994   2.986 -0.2251  0.4057  0.0153
    5MOL   C372 2620   0.447   4.109   3.047  0.2179 -1.0797 -0.2224
    5MOL   C373 2621   0.516   4.209   2.964  0.4735  0.2661  0.0443
    5MOL   C374 2622   0.529   4.190   2.826  0.0318  0.2948  0.5244
    5MOL   C375 2623   0.592   4.288   2.737 -0.0507  0.0546 -0.1331
    5MOL   O376 2624   0.676   4.373   2.798  0.4149  0.3472  0.1172
    5MOL   C377 2625   0.761   4.466   2.721 -0.0678 -0.9967 -0.6052
    5MOL   C378 2626   0.685   4.571   2.641  0.7940  0.6078  0.0194
    5MOL   O379 2627   0.571   4.281   2.612  0.3756  0.1389  0.3401
    5MOL   C380 2628   0.490   4.071   2.776 -0.1446 -0.2247 -0.1160
    5MOL   C381 2629   0.416   3.974   2.848 -0.2259 -0.7147  0.5838
    5MOL   C382 2630   0.372   3.852   2.783  0.0035 -0.0279  0.5103
    5MOL   C383 2631   0.309   3.755   2.858 -0.4156 -0.1105 -0.2928
    5MOL   H384 2632   0.296   3.905   3.159  0.5451  2.3459 -0.9185
    5MOL   H385 2633   0.443   4.124   3.154 -2.1901  4.2538 -0.9075
    5MOL   H386 2634   0.577   4.287   3.008  0.2569  0.2670  0.3364
    5MOL   H387 2635   0.817   4.401   2.654  1.7695 -1.6863  1.5251
    5MOL   H388 2636   0.830   4.515   2.789 -1.1394 -2.4093  1.5485
    5MOL   H389 2637   0.600   4.517   2.600 -0.6317 -0.3347  3.9513
    5MOL   H390 2638   0.643   4.637   2.717  0.6797  0.6860 -0.1114
    5MOL   H391 2639   0.511   4.052   2.671  2.1149 -0.0659  0.2914
    5MOL   H392 2640   0.397   3.834   2.679  0.1265  4.2244 -0.2610
    5MOL   H393 2641   0.271   3.666   2.810  0.6188 -0.6057 -0.2260
    5MOL   O394 2642   0.866   4.787   2.659 -0.2404 -0.2758  0.4440
    5MOL   C395 2643   0.848   4.734   2.553  0.3258 -0.6154 -0.0508
    5MOL   O396 2644   0.762   4.634   2.536 -0.7445  0.2494 -0.2509
    5MOL   C397 2645   0.904   4.791   2.422  0.1841 -0.2516  0.0028
    5MOL   C398 2646   0.889   4.715   2.307 -0.5753  0.0852 -0.3517
    5MOL   C399 2647   0.950   4.761   2.185 -0.0066 -0.0872 -0.2877
    5MOL   C400 2648   0.962   4.676   2.077 -0.0443 -0.0011  0.0795
    5MOL   C401 2649   1.039   4.701   1.963  0.0228 -0.9384 -0.0504
    5MOL   C402 2650   1.108   4.823   1.960  0.0954 -0.7757  0.0509
    5MOL   C403 2651   1.198   4.865   1.845 -0.0874  0.6414 -0.3706
    5MOL   O404 2652   1.169   4.788   1.738  0.3025 -0.1130  0.4700
    5MOL   C405 2653   1.244   4.790   1.622 -0.4959  0.4630  0.3670
    5MOL   C406 2654   1.385   4.730   1.636 -0.1418  0.2007 -0.1892
    5MOL   O407 2655   1.287   4.952   1.845  0.4104  0.1942  0.2656
    5MOL   C408 2656   1.098   4.915   2.066  0.3724 -0.1860  0.4754
    5MOL   C409 2657   1.016   4.885   2.180 -0.0714 -0.1214  0.2370
    5MOL   C410 2658   1.012   4.964   2.294  0.2805  0.2328 -0.4313
    5MOL   C411 2659   0.954   4.922   2.415  0.6203 -0.0372 -0.2935
    5MOL   H412 2660   0.837   4.621   2.320  0.5958 -0.4002  1.0722
    5MOL   H413 2661   0.912   4.580   2.083  1.1070 -0.6762 -0.8272
    5MOL   H414 2662   1.045   4.630   1.882  0.7095 -1.8446  0.7842
    5MOL   H415 2663   1.255   4.895   1.593  0.7188  0.6347  1.4044
    5MOL   H416 2664   1.191   4.738   1.542  1.6954 -1.5287  0.1939
    5MOL   H417 2665   1.461   4.797   1.594  0.7609 -0.3615  0.5164
    5MOL   H418 2666   1.419   4.726   1.740 -1.0668  1.9441  0.1989
    5MOL   H419 2667   1.164   5.000   2.072  1.0463 -0.7130  0.6986
    5MOL   H420 2668   1.057   5.062   2.299  0.5828  0.0602  0.2711
    5MOL   H421 2669   0.967   4.974   2.509  0.0964  0.1678 -0.3371
    5MOL   O422 2670   1.604   4.605   1.506 -0.1613  0.6077 -0.0065
    5MOL   C423 2671   1.508   4.541   1.542  0.7849 -0.4251  0.1295
    5MOL   O424 2672   1.392   4.599   1.585  0.5466 -0.3433 -0.4610
    5MOL   C425 2673   1.504   4.394   1.523 -0.4938 -0.0607  0.3192
    5MOL   C426 2674   1.388   4.321   1.562 -0.7638 -0.4757  0.8916
    5MOL   C427 2675   1.381   4.185   1.526 -0.3560  0.4885  0.4591
    5MOL   C428 2676   1.265   4.115   1.554  0.2618  0.4126 -0.0093
    5MOL   C429 2677   1.246   3.983   1.514 -0.3964 -0.7051  0.5373
    5MOL   C430 2678   1.344   3.923   1.430 -0.0630 -0.1110 -0.2287
    5MOL   C431 2679   1.309   3.796   1.360  0.6830  0.3370  0.0655
    5MOL   O432 2680   1.418   3.732   1.308 -0.2035 -0.1201  0.4262
    5MOL   C433 2681   1.402   3.638   1.204 -0.7179 -0.6215  1.1335
    5MOL   C434 2682   1.437   3.713   1.073  0.5538  0.3761 -0.3997
    5MOL   O435 2683   1.187   3.766   1.341  0.2260 -0.4802 -0.3372
    5MOL   C436 2684   1.460   3.996   1.397 -0.2158  0.0415  0.2869
    5MOL   C437 2685   1.482   4.124   1.456 -0.1729  0.5074  0.7272
    5MOL   C438 2686   1.605   4.191   1.425  0.2591  0.2157 -0.7351
    5MOL   C439 2687   1.615   4.327   1.461  0.1226  0.5293 -0.1657
    5MOL   H440 2688   1.308   4.363   1.622 -2.4807 -2.5015  0.0994
    5MOL   H441 2689   1.195   4.170   1.616  0.8889  1.1659  0.0302
    5MOL   H442 2690   1.157   3.927   1.539 -0.8122 -0.8167 -1.0823
    5MOL   H443 2691   1.300   3.606   1.187 -0.5695 -0.7865  0.5145
    5MOL   H444 2692   1.472   3.559   1.232 -0.7014 -1.2481 -0.6245
    5MOL   H445 2693   1.406   3.662   0.982  0.1777 -0.3517  0.1240
    5MOL   H446 2694   1.384   3.808   1.071  1.6187  1.0704  2.1871
    5MOL   H447 2695   1.536   3.961   1.329 -0.3750  0.8469 -0.3046
    5MOL   H448 2696   1.689   4.144   1.376  1.7174  0.6183  1.3066
    5MOL   H449 2697   1.709   4.374   1.438  0.3994  0.7555  1.3329
    5MOL   O450 2698   1.571   3.958   1.079 -0.3401 -0.2521 -0.3219
    5MOL   C451 2699   1.635   3.852   1.070 -0.1180 -0.0208  0.6863
    5MOL   O452 2700   1.574   3.724   1.062 -0.4877  0.2234 -0.2484
    5MOL   C453 2701   1.781   3.847   1.056  0.3426 -0.3091  1.3602
    5MOL   C454 2702   1.843   3.741   0.988  0.1340 -0.5516  0.1633
    5MOL   C455 2703   1.980   3.733   0.976  0.2754 -0.4583 -0.1112
    5MOL   C456 2704   2.031   3.619   0.917 -0.2666  0.6679  0.7662
    5MOL   C457 2705   2.173   3.619   0.890  0.7043  0.6130  0.4637
    5MOL   C458 2706   2.249   3.732   0.922 -0.4036 -0.0280 -0.1281
    5MOL   C459 2707   2.396   3.720   0.904  0.1028  0.0405 -0.0445
    5MOL   O460 2708   2.461   3.833   0.881  0.2165 -0.2105 -0.2378
    5MOL   C461 2709   2.601   3.856   0.872  0.3253  0.0320  0.0925
    5MOL   C462 2710   2.650   3.986   0.941  0.0639 -0.2714 -0.1042
    5MOL   O463 2711   2.449   3.608   0.905 -0.7688  0.4366 -0.1800
    5MOL   C464 2712   2.196   3.848   0.978 -0.7283 -0.4025  0.6960
    5MOL   C465 2713   2.057   3.849   1.004 -0.3210 -0.1200  0.3931
    5MOL   C466 2714   1.994   3.962   1.064 -0.4899 -0.3749 -0.6693
    5MOL   C467 2715   1.861   3.954   1.101  0.3575  0.1105  0.2872
    5MOL   H468 2716   1.782   3.662   0.947  0.7831 -0.6987 -0.5419
    5MOL   H469 2717   1.968   3.540   0.878  1.3826 -0.1873 -0.2109
    5MOL   H470 2718   2.212   3.530   0.844 -1.1764  0.5199 -1.0293
    5MOL   H471 2719   2.623   3.870   0.767 -1.4191 -1.2975 -0.4801
    5MOL   H472 2720   2.657   3.769   0.906  1.1561  0.5308 -0.0114
    5MOL   H473 2721   2.630   3.971   1.048 -1.6678  1.7060 -0.1115
    5MOL   H474 2722   2.759   3.989   0.937  0.0503  0.2385 -0.1726
    5MOL   H475 2723   2.259   3.931   1.008 -0.7639  1.2105 -3.3712
    5MOL   H476 2724   2.041   4.056   1.088  2.7657 -0.7917 -4.8584
    5MOL   H477 2725   1.811   4.040   1.143 -0.6735  0.3902 -1.4682
    5MOL   O478 2726   2.602   4.251   1.052 -0.3284 -0.5335  0.0687
    5MOL   C479 2727   2.537   4.197   0.965 -0.1451  0.4908 -0.3726
    5MOL   O480 2728   2.581   4.098   0.886 -0.2565  0.1415  0.2862
    5MOL   C481 2729   2.389   4.217   0.947  0.1513 -0.0517 -0.0470
    5MOL   C482 2730   2.314   4.273   1.053 -0.8104 -0.0516  0.3674
    5MOL   C483 2731   2.176   4.293   1.042  0.5629 -0.0736 -0.6543
    5MOL   C484 2732   2.097   4.338   1.149  0.0246  0.6700 -0.5021
    5MOL   C485 2733   1.957   4.350   1.136 -0.8169  0.1196 -0.8156
    5MOL   C486 2734   1.892   4.321   1.011 -1.2665  0.1865  0.3294
    5MOL   C487 2735   1.746   4.340   0.992  0.6251 -0.1781  0.4716
    5MOL   O488 2736   1.681   4.365   1.106  0.3321 -0.5942 -0.5358
    5MOL   C489 2737   1.546   4.404   1.100  0.5115 -0.2132  0.5518
    5MOL   C490 2738   1.455   4.281   1.078 -0.3789  0.2450  0.9197
    5MOL   O491 2739   1.692   4.337   0.882 -0.1259 -0.3281  0.1202
    5MOL   C492 2740   1.973   4.282   0.901  0.1356  0.6509 -0.1663
    5MOL   C493 2741   2.113   4.257   0.923 -0.2831 -0.7270 -0.5425
    5MOL   C494 2742   2.184   4.205   0.813  0.3713  0.0253  0.2391
    5MOL   C495 2743   2.321   4.181   0.824  0.0945 -0.4972  0.5192
    5MOL   H496 2744   2.364   4.289   1.147  1.2492 -0.1496 -0.6761
    5MOL   H497 2745   2.141   4.347   1.247 -2.1812 -0.7027  0.6470
    5MOL   H498 2746   1.905   4.381   1.225  0.1839 -0.8213  0.1006
    5MOL   H499 2747   1.523   4.479   1.024 -3.7339 -1.2120  0.6995
    5MOL   H500 2748   1.515   4.464   1.185 -2.0435 -1.6413  0.6911
    5MOL   H501 2749   1.455   4.241   0.977 -0.0338  0.0257  1.0045
    5MOL   H502 2750   1.487   4.197   1.139  1.4423 -3.1453 -4.4612
    5MOL   H503 2751   1.914   4.261   0.813 -0.6749 -1.1042  0.7529
    5MOL   H504 2752   2.135   4.183   0.719 -0.7239 -0.3659  0.8977
    5MOL   H505 2753   2.371   4.138   0.738 -2.2160 -1.2774 -0.4817
    5MOL   O506 2754   1.241   4.092   1.114  0.6139  0.0181 -0.3081
    5MOL   C507 2755   1.230   4.211   1.139  0.0016 -0.2096  0.3618
    5MOL   O508 2756   1.322   4.309   1.115 -0.0519  0.3051  0.1587
    5MOL   C509 2757   1.096   4.263   1.170  0.0162 -0.0729 -0.1909
    5MOL   C510 2758   0.986   4.185   1.124  0.2848  0.1127 -0.0172
    5MOL   C511 2759   0.859   4.246   1.110 -0.6240 -0.1433 -0.5658
    5MOL   C512 2760   0.757   4.173   1.050 -0.0405  0.3406 -0.3324
    5MOL   C513 2761   0.636   4.239   1.032  0.0871  0.8521  0.3772
    5MOL   C514 2762   0.613   4.371   1.072  0.7942 -0.6254  0.5197
    5MOL   C515 2763   0.480   4.436   1.056 -1.0399  0.5324  0.6076
    5MOL   O516 2764   0.408   4.376   0.953 -0.0596  0.7757  0.1123
    5MOL   C517 2765   0.296   4.426   0.894  0.0160  0.1630  0.3503
    5MOL   C518 2766   0.326   4.559   0.818  0.5509  0.3047  0.3656
    5MOL   O519 2767   0.438   4.536   1.121 -0.0558  0.2114 -0.0106
    5MOL   C520 2768   0.712   4.442   1.145  0.4003 -0.0619 -0.0759
    5MOL   C521 2769   0.837   4.379   1.154  0.3601 -0.0255 -0.2877
    5MOL   C522 2770   0.943   4.454   1.213 -0.1058 -0.1289 -0.3570
    5MOL   C523 2771   1.073   4.398   1.216 -0.5029 -0.2504  0.9244
    5MOL   H524 2772   1.001   4.098   1.062  1.7040  0.5213 -0.2750
    5MOL   H525 2773   0.768   4.067   1.031  0.6488  0.0849  1.3640
    5MOL   H526 2774   0.556   4.178   0.993 -0.8930  2.5478 -0.2912
    5MOL   H527 2775   0.213   4.433   0.964 -0.3161  0.1298 -0.0401
    5MOL   H528 2776   0.266   4.347   0.825  2.6510 -1.0555  0.5350
    5MOL   H529 2777   0.234   4.607   0.784  0.3056 -1.1456 -1.0247
    5MOL   H530 2778   0.371   4.630   0.889  1.6547  1.8953 -1.8644
    5MOL   H531 2779   0.691   4.541   1.183  2.6975  1.2347 -2.0388
    5MOL   H532 2780   0.925   4.552   1.253 -0.8162  0.1453 -1.3402
    5MOL   H533 2781   1.151   4.460   1.258 -3.8527  2.5758  3.2081
    5MOL   O534 2782   0.512   4.731   0.719 -0.1669  0.3936 -0.1087
    5MOL   C535 2783   0.503   4.616   0.678  0.0710  0.5967  0.1780
    5MOL   O536 2784   0.409   4.531   0.714 -0.6010  0.5907 -0.0222
    5MOL   C537 2785   0.599   4.558   0.581 -0.6044  1.0458  0.7807
    5MOL   C538 2786   0.583   4.434   0.506  0.5091 -0.8489 -1.3715
    5MOL   C539 2787   0.671   4.397   0.403 -0.2381 -0.2204  0.6078
    5MOL   C540 2788   0.649   4.280   0.330 -0.6417 -1.3323  0.0055
    5MOL   C541 2789   0.743   4.242   0.231  0.6081  0.2433  0.0103
    5MOL   C542 2790   0.856   4.326   0.204 -0.0482 -0.2407 -0.3028
    5MOL   C543 2791   0.958   4.274   0.110 -0.2991  0.6225 -0.3448
    5MOL   O544 2792   0.913   4.195   0.014  0.6339  0.5848  0.4651
    5MOL   C545 2793   0.990   4.161   8.154 -0.3059  0.0911  0.5982
    5MOL   C546 2794   1.085   4.041   8.173 -0.3170  0.1066 -0.2920
    5MOL   O547 2795   1.075   4.310   0.122  0.5540  0.4731  0.8681
    5MOL   C548 2796   0.870   4.447   0.277 -0.1511 -0.5146 -0.0623
    5MOL   C549 2797   0.779   4.486   0.374 -0.4160  0.2454  0.5331
    5MOL   C550 2798   0.798   4.606   0.448 -1.2574  0.2971 -0.1900
    5MOL   C551 2799   0.711   4.645   0.548 -0.4585  0.4764 -0.2119
    5MOL   H552 2800   0.499   4.370   0.525  0.5639 -0.1071  1.6303
    5MOL   H553 2801   0.566   4.218   0.360 -1.3331 -0.2065  0.4546
    5MOL   H554 2802   0.727   4.145   0.187 -1.9337  0.2382  0.8833
    5MOL   H555 2803   1.032   4.253   8.114 -1.5080 -0.9848 -3.3535
    5MOL   H556 2804   0.919   4.133   8.076 -0.7295  0.0757  0.9856
    5MOL   H557 2805   1.122   4.026   8.072  0.1280  1.6157 -0.3669
    5MOL   H558 2806   1.033   3.952   8.208  0.9624 -0.7917 -0.6457
    5MOL   H559 2807   0.954   4.512   0.256 -1.2913  1.0641  0.1594
    5MOL   H560 2808   0.884   4.665   0.417 -0.1400 -2.9442 -3.5989
    5MOL   H561 2809   0.725   4.742   0.593 -2.5603  1.6671 -2.0079
    5MOL   H562 2810   1.174   4.057   8.235  0.8462  0.0807 -1.9326
    6MOL     O1 2811   2.352   3.310   1.140  0.0343 -0.5756 -0.1256
    6MOL     C2 2812   2.421   3.264   1.052  0.2309 -0.4316  0.4548
    6MOL     O3 2813   2.514   3.340   0.981  0.7225  0.2215 -0.0071
    6MOL     C4 2814   2.405   3.130   0.994  0.8333  0.5263  0.0452
    6MOL     C5 2815   2.487   3.085   0.886 -0.8259  0.3399 -0.4913
    6MOL     C6 2816   2.472   2.954   0.835 -0.0511 -0.1878  0.4818
    6MOL     C7 2817   2.558   2.901   0.743  0.7963  0.2384  0.7482
    6MOL     C8 2818   2.550   2.765   0.709  0.0594  0.4687  0.7016
    6MOL     C9 2819   2.450   2.683   0.758 -0.3892  0.5976 -0.0175
    6MOL    C10 2820   2.444   2.541   0.719  0.3500 -0.1537 -0.0803
    6MOL    O11 2821   2.552   2.503   0.647 -0.0688 -0.3149 -0.2652
    6MOL    C12 2822   2.559   2.372   0.584  0.6996  0.8170 -1.0207
    6MOL    C13 2823   2.590   2.258   0.683 -0.6322 -0.2482  0.1311
    6MOL    O14 2824   2.350   2.465   0.743 -0.6935 -0.6390  0.0870
    6MOL    C15 2825   2.354   2.737   0.837 -0.0041  0.3090  0.1136
    6MOL    C16 2826   2.370   2.869   0.888  0.2239 -0.5734 -0.4250
    6MOL    C17 2827   2.283   2.912   0.983 -0.1209 -0.4488 -0.4083
    6MOL    C18 2828   2.299   3.046   1.035  0.7203  1.2016 -1.0651
    6MOL    H19 2829   2.565   3.145   0.842 -0.0489 -0.8228 -0.7221
    6MOL    H20 2830   2.643   2.949   0.696 -0.2347  0.3230 -1.0680
    6MOL    H21 2831   2.621   2.722   0.639  1.9101 -2.1558  3.9726
    6MOL    H22 2832   2.462   2.360   0.537 -0.4877 -0.3312  1.5903
    6MOL    H23 2833   2.624   2.375   0.497 -1.1050  0.2675 -2.3978
    6MOL    H24 2834   2.692   2.283   0.710 -0.5096  0.4172 -0.9378
    6MOL    H25 2835   2.522   2.261   0.769  1.7117  1.6602  1.9800
    6MOL    H26 2836   2.273   2.674   0.873  0.5437 -1.5196 -1.7947
    6MOL    H27 2837   2.205   2.846   1.018 -1.1461  1.0016  0.0869
    6MOL    H28 2838   2.233   3.078   1.114  0.1713 -1.0772 -0.5553
    6MOL    H29 2839   2.510   3.431   1.009 -0.2238  0.1830  0.0015
    6MOL    O30 2840   2.365   2.146   0.558 -0.2315 -0.5053 -0.1702
    6MOL    C31 2841   2.477   2.094   0.543 -0.3950 -0.0768  0.0229
    6MOL    O32 2842   2.588   2.132   0.620  0.5446 -0.4460  0.1662
    6MOL    C33 2843   2.502   1.983   0.448 -0.6594  0.3473 -0.2832
    6MOL    C34 2844   2.399   1.946   0.361 -0.1396 -0.0539  0.0238
    6MOL    C35 2845   2.410   1.827   0.282  0.5375  0.2086  0.2921
    6MOL    C36 2846   2.300   1.778   0.211 -0.1898  0.6161 -0.2474
    6MOL    C37 2847   2.310   1.651   0.144 -0.1892 -0.4528 -0.0784
    6MOL    C38 2848   2.431   1.577   0.142 -0.6896 -0.0466 -0.0699
    6MOL    C39 2849   2.432   1.439   0.088  0.4884  0.4121  0.2240
    6MOL    O40 2850   2.550   1.375   0.117  0.1707 -0.5906  0.2534
    6MOL    C41 2851   2.569   1.242   0.080 -0.4095 -0.0957  0.2226
    6MOL    C42 2852   2.632   1.227   8.187  0.1938 -0.5352  0.3392
    6MOL    O43 2853   2.343   1.387   0.025  0.2891 -0.0907 -0.4405
    6MOL    C44 2854   2.541   1.626   0.221  0.0794  0.3029 -0.2164
    6MOL    C45 2855   2.533   1.757   0.281  0.5704 -0.6312  0.3029
    6MOL    C46 2856   2.642   1.808   0.354  0.2080 -0.1544 -0.1673
    6MOL    C47 2857   2.631   1.924   0.432  0.1844 -0.0259 -0.0081
    6MOL    H48 2858   2.305   1.999   0.354 -0.8724 -1.0606  1.8990
    6MOL    H49 2859   2.207   1.832   0.215  0.6207  1.8695  2.5144
    6MOL    H50 2860   2.224   1.614   0.090 -0.9782 -0.9637  1.4887
    6MOL    H51 2861   2.472   1.194   0.078 -0.2615 -0.3823 -0.1542
    6MOL    H52 2862   2.629   1.195   0.158  1.5084 -0.1789 -1.2545
    6MOL    H53 2863   2.597   1.129   8.153  0.6708 -0.0504 -1.5979
    6MOL    H54 2864   2.595   1.297   8.111  1.5930 -1.5573 -1.3398
    6MOL    H55 2865   2.624   1.560   0.239 -0.9615 -1.2886 -1.0774
    6MOL    H56 2866   2.733   1.752   0.343  0.2088 -0.5270  1.5537
    6MOL    H57 2867   2.717   1.963   0.485 -1.2793  3.4104 -0.0422
    6MOL    O58 2868   2.819   1.446   8.224 -0.1757 -0.3617  0.3219
    6MOL    C59 2869   2.857   1.328   8.212  0.5835  0.2810  0.3737
    6MOL    O60 2870   2.777   1.219   8.187 -0.8408 -0.5354  0.3855
    6MOL    C61 2871   3.007   1.297   8.216 -0.7946  0.3401  0.6691
    6MOL    C62 2872   3.060   1.168   8.241  0.0603 -0.0600  0.0712
    6MOL    C63 2873   3.195   1.140   8.240 -0.3947 -0.0161 -0.8412
    6MOL    C64 2874   3.239   1.011   0.026 -0.9512  0.4254 -0.5183
    6MOL    C65 2875   3.378   0.988   0.043 -0.1194 -0.2353 -0.4729
    6MOL    C66 2876   3.467   1.087   0.007 -0.9340 -0.3992 -0.7793
    6MOL    C67 2877   3.617   1.049   0.016 -0.1289  0.3568 -0.0312
    6MOL    O68 2878   3.638   0.931   0.061  0.0681  0.5322 -0.3607
    6MOL    C69 2879   3.766   0.876   0.070 -0.7843  0.0505 -0.0590
    6MOL    C70 2880   3.845   0.910   0.202 -0.5488  0.5447 -0.7490
    6MOL    O71 2881   3.699   1.133   8.236 -0.1140 -0.5163 -0.7616
    6MOL    C72 2882   3.426   1.211   8.207  0.1011 -0.5136 -0.1609
    6MOL    C73 2883   3.287   1.248   8.206 -0.1174 -0.2025  0.2420
    6MOL    C74 2884   3.233   1.376   8.180 -0.1523 -0.0019  0.3866
    6MOL    C75 2885   3.096   1.406   8.186  0.3471  0.2876  0.6001
    6MOL    H76 2886   2.988   1.087   8.244 -0.3863  0.2565 -1.5187
    6MOL    H77 2887   3.167   0.931   0.038 -0.2412 -0.2299 -0.6180
    6MOL    H78 2888   3.408   0.892   0.082  0.5360  1.2586  2.8149
    6MOL    H79 2889   3.830   0.912   8.239  1.3897  1.6813  2.3115
    6MOL    H80 2890   3.753   0.768   0.061 -2.0538  0.1385  0.5241
    6MOL    H81 2891   3.915   0.991   0.186  0.0580  0.4092  1.0711
    6MOL    H82 2892   3.784   0.936   0.288 -2.1072  0.5245 -1.8199
    6MOL    H83 2893   3.496   1.288   8.177 -0.2454 -0.3509 -0.5509
    6MOL    H84 2894   3.302   1.459   8.181  0.7780 -0.7188 -1.3634
    6MOL    H85 2895   3.054   1.505   8.173 -2.5881 -1.0953 -0.9087
    6MOL    O86 2896   3.723   0.697   0.352  0.2714 -0.0099  0.0903
    6MOL    C87 2897   3.845   0.696   0.326  0.6223 -0.1074  0.2439
    6MOL    O88 2898   3.913   0.794   0.253 -0.0136  0.2846 -0.4149
    6MOL    C89 2899   3.926   0.590   0.375  0.1941  0.1117 -0.5077
    6MOL    C90 2900   3.870   0.488   0.454 -0.1435 -0.6120  0.1564
    6MOL    C91 2901   3.949   0.394   0.507 -0.3810  0.3443  0.7084
    6MOL    C92 2902   3.886   0.299   0.593 -0.7815 -0.0270 -0.4886
    6MOL    C93 2903   3.964   0.198   0.640 -0.8048  0.7389 -0.0962
    6MOL    C94 2904   4.101   0.189   0.607  0.2764 -0.5787  0.1214
    6MOL    C95 2905   4.170   0.070   0.668 -0.6018 -0.4749 -0.0543
    6MOL    O96 2906   4.290   0.057   0.618  0.3929  0.4856  0.3487
    6MOL    C97 2907   4.381   8.214   0.659  0.6679  0.1256  0.7282
    6MOL    C98 2908   4.457   0.008   0.786  0.1490 -0.4248 -1.0372
    6MOL    O99 2909   4.127   0.008   0.761 -0.0318  0.5176  0.2038
    6MOL   C100 2910   4.164   0.296   0.544 -0.2719  0.1993  0.2271
    6MOL   C101 2911   4.090   0.395   0.488  0.5959 -0.2206  0.0723
    6MOL   C102 2912   4.156   0.497   0.414  0.3419  0.0794 -0.0194
    6MOL   C103 2913   4.069   0.599   0.365  0.1073 -0.5402 -0.3540
    6MOL   H104 2914   3.764   0.473   0.469 -0.1996  0.2361  0.6475
    6MOL   H105 2915   3.782   0.302   0.622 -1.0055  1.0505 -1.3582
    6MOL   H106 2916   3.924   0.129   0.712 -0.1865 -0.3684 -0.7968
    6MOL   H107 2917   4.448   8.202   0.573 -2.9161  3.1818 -2.7186
    6MOL   H108 2918   4.328   8.119   0.654  0.1087  0.4520  0.3159
    6MOL   H109 2919   4.387   0.017   0.869 -0.8658  0.8521 -2.0203
    6MOL   H110 2920   4.533   8.182   0.810 -0.6687 -0.4506  1.6821
    6MOL   H111 2921   4.270   0.284   0.525 -0.4240  1.2505 -1.3396
    6MOL   H112 2922   4.264   0.499   0.401  0.2971  0.4920 -0.3502
    6MOL   H113 2923   4.112   0.679   0.307  0.0033 -0.9811 -1.0495
    6MOL   O114 2924   4.713   0.084   0.695 -0.1092  0.2766 -0.0449
    6MOL   C115 2925   4.623   0.167   0.703  1.0033  0.7625  0.6583
    6MOL   O116 2926   4.503   0.143   0.757 -0.1222  0.3059 -0.0895
    6MOL   C117 2927   4.633   0.310   0.660 -0.4553 -0.3432 -0.3216
    6MOL   C118 2928   4.526   0.394   0.657 -0.5290 -0.2423  0.2448
    6MOL   C119 2929   4.532   0.529   0.620 -0.3679  0.5443 -0.5644
    6MOL   C120 2930   4.414   0.606   0.622  0.2057 -0.6546  0.2343
    6MOL   C121 2931   4.424   0.742   0.575  0.8368 -0.2713 -0.8612
    6MOL   C122 2932   4.551   0.800   0.551  0.0233 -0.0002 -0.3105
    6MOL   C123 2933   4.555   0.940   0.510 -0.2468  0.4955 -0.4805
    6MOL   O124 2934   4.439   0.978   0.442 -0.5095 -0.0308 -0.3948
    6MOL   C125 2935   4.424   1.108   0.385  0.3868  0.5478 -0.0639
    6MOL   C126 2936   4.413   1.221   0.489  0.1498  0.5470  0.3712
    6MOL   O127 2937   4.654   1.013   0.518  0.9594 -0.6474 -0.6017
    6MOL   C128 2938   4.664   0.719   0.553 -0.1570  0.1007  0.1418
    6MOL   C129 2939   4.657   0.582   0.575 -1.1464 -0.2278  0.4869
    6MOL   C130 2940   4.768   0.492   0.564 -0.0857 -0.0169 -0.6554
    6MOL   C131 2941   4.754   0.358   0.611  0.1363  0.1638  0.2542
    6MOL   H132 2942   4.431   0.356   0.690  0.0586 -0.7004  1.4268
    6MOL   H133 2943   4.317   0.561   0.639 -1.3570  1.7369 -1.9156
    6MOL   H134 2944   4.330   0.795   0.578  0.7888 -0.3876 -0.0563
    6MOL   H135 2945   4.331   1.105   0.328 -1.0491  0.3918  2.2378
    6MOL   H136 2946   4.507   1.127   0.317  0.1058  1.6344 -0.1079
    6MOL   H137 2947   4.327   1.204   0.554 -1.0956  0.8522 -1.1503
    6MOL   H138 2948   4.500   1.218   0.553  1.6362 -0.2880 -1.6437
    6MOL   H139 2949   4.756   0.763   0.517  0.4398 -1.0934  0.1740
    6MOL   H140 2950   4.860   0.543   0.537 -0.3186  0.8029  0.0572
    6MOL   H141 2951   4.836   0.289   0.601  0.4636  0.6501 -0.4582
    6MOL   O142 2952   4.299   1.442   0.577 -0.3910  0.1642 -0.4181
    6MOL   C143 2953   4.353   1.448   0.471  0.3032  0.0614  0.8440
    6MOL   O144 2954   4.412   1.338   0.417  0.0186 -0.7766  0.3684
    6MOL   C145 2955   4.382   1.571   0.390  0.5173  0.0510  0.7107
    6MOL   C146 2956   4.327   1.696   0.427  0.3827  0.5393  0.6567
    6MOL   C147 2957   4.352   1.810   0.353 -0.4651 -0.1833  0.4294
    6MOL   C148 2958   4.314   1.941   0.402 -0.1763 -0.5330  0.2450
    6MOL   C149 2959   4.344   2.054   0.324 -0.0560 -0.5463 -0.0465
    6MOL   C150 2960   4.415   2.044   0.199 -0.0873  0.3443 -0.1874
    6MOL   C151 2961   4.453   2.165   0.122  0.5649 -0.1680 -0.2020
    6MOL   O152 2962   4.400   2.283   0.187  0.3077  0.4055  0.1759
    6MOL   C153 2963   4.436   2.405   0.132  0.6254 -0.5692 -0.2744
    6MOL   C154 2964   4.406   2.515   0.237 -0.0506 -0.0812  0.5685
    6MOL   O155 2965   4.524   2.163   0.021  0.1244  0.0831  0.4524
    6MOL   C156 2966   4.452   1.919   0.151 -0.2497  0.2569  0.1127
    6MOL   C157 2967   4.429   1.802   0.230  0.5434  0.1835 -0.0955
    6MOL   C158 2968   4.478   1.677   0.187 -0.2089  0.4571  0.5687
    6MOL   C159 2969   4.450   1.563   0.263 -0.1986  0.0015 -0.3478
    6MOL   H160 2970   4.260   1.695   0.511  0.1474 -0.6629  0.4613
    6MOL   H161 2971   4.268   1.965   0.497 -0.0431 -0.7479  0.3635
    6MOL   H162 2972   4.330   2.153   0.363 -0.8559 -0.2389 -1.0774
    6MOL   H163 2973   4.379   2.414   0.040 -1.2095 -1.0127  0.7900
    6MOL   H164 2974   4.544   2.403   0.115  0.7031  1.7363 -0.3054
    6MOL   H165 2975   4.367   2.609   0.199 -1.8843 -1.4786 -1.1274
    6MOL   H166 2976   4.325   2.470   0.294  0.1528  1.4758  2.1170
    6MOL   H167 2977   4.496   1.916   0.053  1.3541 -0.3659  0.8359
    6MOL   H168 2978   4.533   1.673   0.094  0.5007 -0.9691  1.0351
    6MOL   H169 2979   4.492   1.467   0.238  4.2701  1.8808 -0.6123
    6MOL   O170 2980   4.588   2.718   0.186  0.7105  0.1097  0.4015
    6MOL   C171 2981   4.609   2.634   0.271  0.4254  0.2665  0.0132
    6MOL   O172 2982   4.522   2.537   0.307 -0.4388 -0.0151 -0.4582
    6MOL   C173 2983   4.735   2.619   0.357 -0.4021  0.6796  0.4260
    6MOL   C174 2984   4.836   2.718   0.351 -0.5769  0.1631 -0.1676
    6MOL   C175 2985   4.954   2.703   0.434  0.5523  0.0373 -0.8140
    6MOL   C176 2986   5.056   2.798   0.425 -0.3209  0.1210  0.1795
    6MOL   C177 2987   5.174   2.782   0.503 -0.6185  0.8424  0.1668
    6MOL   C178 2988   5.186   2.674   0.592 -0.1092 -0.6857 -0.1121
    6MOL   C179 2989   5.312   2.659   0.671 -0.3378 -0.3905 -0.5596
    6MOL   O180 2990   5.317   2.556   0.744 -0.2659  0.5894  0.5597
    6MOL   C181 2991   5.427   2.534   0.826 -0.0999 -0.4358 -0.2115
    6MOL   C182 2992   5.436   2.651   0.932  0.3547  0.2523  0.2006
    6MOL   O183 2993   5.399   2.742   0.665  0.2769  0.0615  1.0584
    6MOL   C184 2994   5.087   2.575   0.593 -0.5121  0.8732 -0.1941
    6MOL   C185 2995   4.975   2.587   0.511  0.1592  0.9408  0.4771
    6MOL   C186 2996   4.869   2.492   0.516 -0.9243 -0.5721  0.0734
    6MOL   C187 2997   4.752   2.509   0.445  1.4800 -0.4730  0.5144
    6MOL   H188 2998   4.820   2.806   0.289  2.0475  0.4688 -0.4634
    6MOL   H189 2999   5.049   2.883   0.359 -0.4201 -0.1623 -0.1784
    6MOL   H190 3000   5.252   2.856   0.505  0.5467 -0.3445 -0.6382
    6MOL   H191 3001   5.515   2.524   0.763 -1.3472 -0.3749 -1.9796
    6MOL   H192 3002   5.419   2.448   0.892  0.6023 -0.0160  0.4290
    6MOL   H193 3003   5.518   2.627   0.999  0.6225  3.7382  1.2196
    6MOL   H194 3004   5.458   2.750   0.894 -1.9624  0.4973 -0.6255
    6MOL   H195 3005   5.098   2.495   0.664  2.9666  0.2844 -1.3335
    6MOL   H196 3006   4.875   2.400   0.572 -0.2340 -1.7683 -1.9117
    6MOL   H197 3007   4.671   2.442   0.470  1.9210 -1.5563 -0.9351
    6MOL   O198 3008   5.337   2.483   1.139 -0.1196 -0.2547 -0.6465
    6MOL   C199 3009   5.280   2.587   1.119 -0.9142 -0.3192  0.3671
    6MOL   O200 3010   5.316   2.664   1.015 -0.2536  0.3972 -0.0130
    6MOL   C201 3011   5.179   2.646   1.208  0.3472 -0.4831 -0.4496
    6MOL   C202 3012   5.167   2.605   1.345 -0.3308  0.2048  0.0815
    6MOL   C203 3013   5.077   2.675   1.427  0.0576 -0.3641 -0.8187
    6MOL   C204 3014   5.058   2.640   1.567 -0.5637 -0.1916  0.2231
    6MOL   C205 3015   4.971   2.717   1.642 -0.6825 -0.0953  0.0792
    6MOL   C206 3016   4.884   2.818   1.587 -0.4834 -0.7936  0.4339
    6MOL   C207 3017   4.789   2.904   1.662 -0.7287 -0.0334 -0.2895
    6MOL   O208 3018   4.777   2.861   1.792 -0.1313 -0.3517  0.0590
    6MOL   C209 3019   4.680   2.923   1.879 -0.2552 -0.0182  0.7577
    6MOL   C210 3020   4.551   2.848   1.887  0.2170  0.3020 -0.2893
    6MOL   O211 3021   4.724   2.991   1.611 -0.3158 -0.0379  0.0655
    6MOL   C212 3022   4.894   2.840   1.445  0.2161 -0.0899 -0.6506
    6MOL   C213 3023   4.986   2.773   1.368 -0.3459 -0.2811 -0.3372
    6MOL   C214 3024   4.996   2.806   1.233 -0.0989  0.2371 -0.2963
    6MOL   C215 3025   5.091   2.736   1.155 -0.0238  0.2560 -0.4485
    6MOL   H216 3026   5.229   2.527   1.384 -1.8249 -0.8524  0.3871
    6MOL   H217 3027   5.125   2.564   1.603  0.8198  0.5301 -0.7578
    6MOL   H218 3028   4.956   2.691   1.746 -0.1257  0.0976  0.2103
    6MOL   H219 3029   4.663   3.028   1.854  3.3050  1.3371  3.5944
    6MOL   H220 3030   4.729   2.918   1.976 -1.3756 -0.1308  1.3168
    6MOL   H221 3031   4.557   2.741   1.908 -0.3302  0.2501 -0.4045
    6MOL   H222 3032   4.490   2.887   1.969  0.5856 -0.8829  0.5680
    6MOL   H223 3033   4.829   2.913   1.400  1.6216  1.0345 -0.8514
    6MOL   H224 3034   4.943   2.887   1.185 -2.5393 -0.0464  1.8011
    6MOL   H225 3035   5.083   2.745   1.048  1.5574 -0.7058 -0.6647
    6MOL   O226 3036   4.335   2.705   1.834  0.3645 -0.2032 -0.3590
    6MOL   C227 3037   4.364   2.793   1.752  0.2073  0.3841 -0.0371
    6MOL   O228 3038   4.470   2.875   1.771  0.8270 -0.5194 -0.1020
    6MOL   C229 3039   4.281   2.820   1.631  0.1332  0.7583 -0.7932
    6MOL   C230 3040   4.338   2.896   1.525 -0.4512 -0.3096 -0.3054
    6MOL   C231 3041   4.255   2.922   1.410 -0.1427 -0.3640  0.2241
    6MOL   C232 3042   4.309   2.995   1.301 -0.5807 -0.2912  0.3889
    6MOL   C233 3043   4.231   3.022   1.186 -0.2124 -0.1554 -0.3275
    6MOL   C234 3044   4.101   2.969   1.175 -0.6367  0.1036  0.1739
    6MOL   C235 3045   4.017   3.005   1.055  0.0542 -0.5153 -0.3902
    6MOL   O236 3046   4.067   3.115   0.984  0.3673 -0.6336 -0.2946
    6MOL   C237 3047   3.973   3.169   0.890  0.3834  0.3437  0.2139
    6MOL   C238 3048   4.031   3.291   0.830  0.1981 -0.9791 -0.4569
    6MOL   O239 3049   3.908   2.953   1.021  0.5259 -0.8515 -0.6138
    6MOL   C240 3050   4.046   2.887   1.282  0.1604  0.1836 -0.2458
    6MOL   C241 3051   4.123   2.872   1.402  0.6350  0.0959  0.6373
    6MOL   C242 3052   4.067   2.799   1.508 -0.0504 -0.3608 -0.0324
    6MOL   C243 3053   4.145   2.770   1.622 -0.2764  0.2360  0.3697
    6MOL   H244 3054   4.442   2.924   1.534 -0.4427 -0.3701 -0.2113
    6MOL   H245 3055   4.412   3.028   1.300 -1.0522  1.3171  1.7395
    6MOL   H246 3056   4.284   3.066   1.103 -2.2090  1.7514 -0.6336
    6MOL   H247 3057   3.884   3.198   0.945 -0.9830 -0.4674 -1.5454
    6MOL   H248 3058   3.946   3.100   0.811  0.0092  0.2811  0.3962
    6MOL   H249 3059   3.945   3.352   0.802  0.2189  0.3979  2.3134
    6MOL   H250 3060   4.081   3.350   0.907 -0.7949  0.9710 -1.2497
    6MOL   H251 3061   3.946   2.847   1.273  0.3538 -0.4816  0.4782
    6MOL   H252 3062   3.962   2.772   1.510  0.1505 -1.1815 -0.3585
    6MOL   H253 3063   4.102   2.709   1.700  0.6943  0.6010  1.2161
    6MOL   O254 3064   3.981   3.354   0.566 -0.6553  0.2511 -0.0948
    6MOL   C255 3065   4.084   3.289   0.595  0.6073  0.1126  0.1125
    6MOL   O256 3066   4.120   3.267   0.722  0.0369  0.6231 -0.3062
    6MOL   C257 3067   4.181   3.235   0.492 -0.0951 -0.1392 -0.6584
    6MOL   C258 3068   4.144   3.235   0.358  0.1940  0.3122  0.3314
    6MOL   C259 3069   4.232   3.175   0.266 -0.6005  0.4185  1.5656
    6MOL   C260 3070   4.192   3.161   0.132 -0.5047  0.7506 -0.1086
    6MOL   C261 3071   4.276   3.114   0.029 -0.4050  0.7096  0.2574
    6MOL   C262 3072   4.408   3.078   0.065 -0.5363  0.1968 -0.5862
    6MOL   C263 3073   4.499   3.025   8.203 -0.2960  0.1719 -0.1803
    6MOL   O264 3074   4.629   3.004   0.007  0.3693 -0.1499 -0.5191
    6MOL   C265 3075   4.740   2.979   8.176 -0.1041 -0.0822  0.7084
    6MOL   C266 3076   4.761   2.827   8.166 -0.1813  0.2939  0.1161
    6MOL   O267 3077   4.463   3.004   8.085 -0.3636  0.4677 -0.0539
    6MOL   C268 3078   4.451   3.089   0.201  0.0724 -0.7579  0.1892
    6MOL   C269 3079   4.365   3.142   0.297 -0.1491  0.7374 -0.4352
    6MOL   C270 3080   4.398   3.150   0.432  0.2614 -0.7490 -0.1758
    6MOL   C271 3081   4.312   3.196   0.530 -0.5779  0.2409 -0.0741
    6MOL   H272 3082   4.044   3.260   0.326  0.8214 -0.7464 -2.5963
    6MOL   H273 3083   4.101   3.200   0.090  0.4170  0.0057 -2.8934
    6MOL   H274 3084   4.240   3.106   8.176  0.1680 -1.6059  0.1929
    6MOL   H275 3085   4.834   3.024   8.210 -0.2756  1.2966 -0.5732
    6MOL   H276 3086   4.720   3.020   8.077 -0.5246  1.7264  1.5367
    6MOL   H277 3087   4.843   2.795   8.102  0.9545 -0.3380  1.8674
    6MOL   H278 3088   4.789   2.800   0.018  0.9513  2.5944  0.4501
    6MOL   H279 3089   4.550   3.060   0.233  0.3238 -1.3152 -1.0422
    6MOL   H280 3090   4.493   3.109   0.461  1.0048 -0.5784 -2.2784
    6MOL   H281 3091   4.352   3.211   0.629  0.4072 -0.3065 -0.3743
    6MOL   O282 3092   4.716   2.558   8.203  0.0940  0.2417  0.2383
    6MOL   C283 3093   4.633   2.624   8.142 -0.3291 -0.1829 -0.1362
    6MOL   O284 3094   4.646   2.753   8.124 -0.7064 -0.1771 -0.5765
    6MOL   C285 3095   4.513   2.566   8.082  0.2954  0.4362 -0.3331
    6MOL   C286 3096   4.493   2.428   8.066 -0.7285 -0.4728 -0.0722
    6MOL   C287 3097   4.377   2.378   8.013 -0.2444 -1.0011 -0.0279
    6MOL   C288 3098   4.375   2.244   7.966 -0.1265 -0.0786 -0.0519
    6MOL   C289 3099   4.269   2.195   7.901  0.0214  0.8003 -0.3528
    6MOL   C290 3100   4.150   2.268   7.897 -0.0302 -0.3146 -0.4130
    6MOL   C291 3101   4.027   2.225   7.828 -0.3644 -0.3211  0.8965
    6MOL   O292 3102   4.051   2.118   7.748 -0.7806  0.4753 -0.1871
    6MOL   C293 3103   3.967   2.100   7.637 -0.3607  0.0683 -0.2968
    6MOL   C294 3104   4.034   1.987   7.556  0.3939 -0.3682  0.3711
    6MOL   O295 3105   3.915   2.276   7.834  0.1322 -0.2728  0.1703
    6MOL   C296 3106   4.147   2.395   7.955 -0.3529 -0.5541 -0.0762
    6MOL   C297 3107   4.265   2.461   8.002  0.5847 -0.4025 -0.6765
    6MOL   C298 3108   4.271   2.598   8.041 -0.0622  0.3990 -0.4596
    6MOL   C299 3109   4.401   2.650   8.072  0.1462 -0.2702 -0.1178
    6MOL   H300 3110   4.566   2.357   8.103  0.6240  1.3808  0.9620
    6MOL   H301 3111   4.461   2.179   7.963  0.0126 -0.0407  2.1720
    6MOL   H302 3112   4.280   2.091   7.874  0.7231  0.9158 -0.5105
    6MOL   H303 3113   3.951   2.188   7.575  1.2493 -0.0265 -0.8804
    6MOL   H304 3114   3.867   2.067   7.665 -0.7033  0.3963 -1.1181
    6MOL   H305 3115   4.134   2.017   7.522 -0.3790  3.1339  0.9897
    6MOL   H306 3116   4.052   1.902   7.621  1.1886 -0.8238 -0.4354
    6MOL   H307 3117   4.052   2.447   7.965  0.0984  0.3332 -0.2865
    6MOL   H308 3118   4.180   2.656   8.045 -0.4350 -0.2143 -0.0122
    6MOL   H309 3119   4.414   2.756   8.089 -0.4503 -0.3556  0.9408
    6MOL   O310 3120   3.938   2.109   7.314 -0.3751 -0.0282  0.3479
    6MOL   C311 3121   3.930   1.983   7.328  0.4317  0.3516  0.3552
    6MOL   O312 3122   3.953   1.917   7.450 -0.5460 -0.3538  0.8251
    6MOL   C313 3123   3.898   1.892   7.217 -0.2811 -0.1340 -0.1078
    6MOL   C314 3124   3.882   1.757   7.242 -0.1863  0.2030 -0.3356
    6MOL   C315 3125   3.837   1.668   7.142  0.5031  0.2827 -0.5140
    6MOL   C316 3126   3.825   1.531   7.174  0.2210  0.3801 -0.1826
    6MOL   C317 3127   3.759   1.447   7.085 -0.7602 -0.0860  0.2031
    6MOL   C318 3128   3.724   1.493   6.956  0.0248 -0.0987 -0.7070
    6MOL   C319 3129   3.661   1.389   6.869 -0.4188 -0.2464 -0.1622
    6MOL   O320 3130   3.604   1.441   6.759  0.0269  0.1653 -0.3724
    6MOL   C321 3131   3.504   1.368   6.684 -0.1190 -0.0390 -0.4576
    6MOL   C322 3132   3.366   1.368   6.753  0.7570  0.0172  0.6401
    6MOL   O323 3133   3.665   1.270   6.904 -0.4811  0.6477  0.5668
    6MOL   C324 3134   3.748   1.631   6.916 -0.9724 -0.1842  0.1912
    6MOL   C325 3135   3.805   1.717   7.012 -0.1978 -0.0224 -0.0109
    6MOL   C326 3136   3.822   1.855   6.986 -0.1146 -0.5083  0.2880
    6MOL   C327 3137   3.873   1.945   7.088  0.0719 -0.0163  0.1745
    6MOL   H328 3138   3.899   1.722   7.342  1.5209  0.8467 -0.3725
    6MOL   H329 3139   3.855   1.493   7.270 -2.1743  0.7924  0.7710
    6MOL   H330 3140   3.732   1.348   7.119 -0.6557 -0.4103 -0.6435
    6MOL   H331 3141   3.535   1.267   6.657  0.5798  0.4793 -1.6139
    6MOL   H332 3142   3.489   1.424   6.592  1.0748  0.5124 -0.3272
    6MOL   H333 3143   3.351   1.467   6.798  0.0804 -0.5964  1.7937
    6MOL   H334 3144   3.289   1.370   6.677 -0.3931  1.6635  1.8053
    6MOL   H335 3145   3.713   1.657   6.817 -0.7983  2.4995  0.8117
    6MOL   H336 3146   3.805   1.895   6.887  1.3431 -0.6831 -0.0441
    6MOL   H337 3147   3.893   2.048   7.063  1.8287 -0.4114 -0.1056
    6MOL   O338 3148   3.221   1.154   6.688 -0.1604 -0.6365  0.3405
    6MOL   C339 3149   3.308   1.146   6.778  0.3481 -0.4486 -0.3382
    6MOL   O340 3150   3.370   1.249   6.832 -1.0495 -1.0569  0.2131
    6MOL   C341 3151   3.335   1.022   6.843  0.1769  0.2387 -0.0921
    6MOL   C342 3152   3.449   1.008   6.926  0.1743  0.2141 -0.1433
    6MOL   C343 3153   3.464   0.874   6.983 -0.0547 -1.0653  0.4734
    6MOL   C344 3154   3.571   0.850   7.069 -0.4480  0.1324 -0.0555
    6MOL   C345 3155   3.571   0.728   7.132  0.9128  0.3715 -0.1813
    6MOL   C346 3156   3.482   0.619   7.101  0.5724  0.3314  0.3111
    6MOL   C347 3157   3.488   0.489   7.175 -0.4359 -0.5256  0.3600
    6MOL   O348 3158   3.567   0.502   7.276 -0.0701  0.6872 -0.6585
    6MOL   C349 3159   3.586   0.400   7.371  0.2223 -0.1936 -0.5140
    6MOL   C350 3160   3.731   0.400   7.421  0.2575 -0.1067  0.3233
    6MOL   O351 3161   3.427   0.384   7.151  0.2497 -0.1893 -0.3531
    6MOL   C352 3162   3.384   0.636   7.001 -0.4835  0.7539 -0.6978
    6MOL   C353 3163   3.376   0.770   6.944 -0.1026 -0.2517 -0.7872
    6MOL   C354 3164   3.265   0.791   6.862 -0.4770  0.1646  0.3270
    6MOL   C355 3165   3.241   0.919   6.814  0.0322 -0.6248 -0.4140
    6MOL   H356 3166   3.508   1.091   6.959  0.9099 -1.3968  2.8041
    6MOL   H357 3167   3.646   0.921   7.100 -0.9685 -0.4030  2.5295
    6MOL   H358 3168   3.648   0.705   7.204  1.6842 -1.1029 -1.4243
    6MOL   H359 3169   3.571   0.304   7.320  2.5847 -0.1301 -1.3760
    6MOL   H360 3170   3.520   0.398   7.458 -1.7011 -1.2969 -1.9382
    6MOL   H361 3171   3.756   0.321   7.493 -0.4175 -0.6783 -0.0698
    6MOL   H362 3172   3.794   0.379   7.335  0.9197 -0.0166  0.7757
    6MOL   H363 3173   3.310   0.560   6.977 -0.4747  0.8142 -0.9101
    6MOL   H364 3174   3.188   0.717   6.851  0.2634 -0.6171  0.3782
    6MOL   H365 3175   3.153   0.936   6.754  1.4327 -2.9122 -3.2066
    6MOL   O366 3176   3.664   0.470   7.683 -0.5217  0.5256  0.1320
    6MOL   C367 3177   3.700   0.553   7.605  0.6636  0.1126 -0.1539
    6MOL   O368 3178   3.747   0.528   7.482 -0.0327  0.4905 -0.4953
    6MOL   C369 3179   3.681   0.698   7.628 -0.7291  0.4523 -0.4626
    6MOL   C370 3180   3.690   0.787   7.521  0.3980  0.0301  0.2276
    6MOL   C371 3181   3.670   0.929   7.545 -0.2074  0.6083  0.2624
    6MOL   C372 3182   3.662   1.022   7.437  0.8530  0.2464 -0.2695
    6MOL   C373 3183   3.636   1.159   7.457 -0.2839  0.2233  0.0330
    6MOL   C374 3184   3.625   1.207   7.591  0.3564 -0.1942 -0.2484
    6MOL   C375 3185   3.590   1.345   7.615  0.2782  0.2499  0.9975
    6MOL   O376 3186   3.540   1.409   7.509 -0.5487 -0.2225 -0.6255
    6MOL   C377 3187   3.515   1.545   7.512 -0.0043 -0.8315  0.1530
    6MOL   C378 3188   3.641   1.629   7.495  0.1407 -0.6367 -0.4260
    6MOL   O379 3189   3.599   1.400   7.722 -0.2487  0.5600 -0.5279
    6MOL   C380 3190   3.634   1.117   7.701 -0.0531  0.1202 -0.1870
    6MOL   C381 3191   3.653   0.980   7.677  0.3372 -0.1485 -0.0246
    6MOL   C382 3192   3.651   0.891   7.789  0.2007  0.1413 -0.1914
    6MOL   C383 3193   3.662   0.750   7.760  0.9195 -0.1631  0.5084
    6MOL   H384 3194   3.699   0.755   7.419 -1.5168 -0.5992  0.2480
    6MOL   H385 3195   3.678   0.987   7.336  0.5574 -1.3813  0.2291
    6MOL   H386 3196   3.646   1.230   7.377  0.3368 -0.0168 -0.1058
    6MOL   H387 3197   3.488   1.579   7.612  0.9220 -2.1579  0.8726
    6MOL   H388 3198   3.440   1.569   7.436  0.2927 -0.4174 -0.0098
    6MOL   H389 3199   3.713   1.605   7.574 -1.4939 -2.5546  0.5184
    6MOL   H390 3200   3.693   1.595   7.406  0.7792 -0.3003 -0.1846
    6MOL   H391 3201   3.614   1.156   7.799  1.1953  0.3004  0.0010
    6MOL   H392 3202   3.631   0.917   7.892  1.5677 -0.2629  0.1851
    6MOL   H393 3203   3.647   0.680   7.840 -1.1327 -0.2660  0.0714
    6MOL   O394 3204   3.633   1.824   7.681 -0.3020 -0.1189  0.6533
    6MOL   C395 3205   3.624   1.853   7.560 -0.6028  0.2077  0.2749
    6MOL   O396 3206   3.615   1.762   7.466  0.2178 -0.2505 -0.2812
    6MOL   C397 3207   3.616   1.989   7.508 -0.4384  0.1846  0.9095
    6MOL   C398 3208   3.614   2.026   7.368  0.2807 -0.3915  0.1905
    6MOL   C399 3209   3.556   2.148   7.325  0.1929 -0.8402 -0.6052
    6MOL   C400 3210   3.542   2.171   7.189 -0.3204 -0.4680 -0.1927
    6MOL   C401 3211   3.469   2.285   7.154 -0.3457 -0.1262  0.8262
    6MOL   C402 3212   3.416   2.375   7.252  0.4585 -0.1977  0.5868
    6MOL   C403 3213   3.357   2.507   7.208  0.8001  0.9064 -0.2964
    6MOL   O404 3214   3.367   2.529   7.080 -0.3059  0.6945 -0.3489
    6MOL   C405 3215   3.338   2.653   7.024  0.3814  0.3774  0.0553
    6MOL   C406 3216   3.325   2.650   6.871 -0.7085  0.0744  0.7195
    6MOL   O407 3217   3.312   2.594   7.283 -0.2558 -0.2338  0.0585
    6MOL   C408 3218   3.436   2.359   7.386 -0.1219 -0.2668  0.6493
    6MOL   C409 3219   3.503   2.236   7.420  1.1211 -0.1949 -0.0239
    6MOL   C410 3220   3.521   2.206   7.564 -0.3718 -0.1163  0.6568
    6MOL   C411 3221   3.575   2.086   7.605  0.1231  0.2178 -0.1452
    6MOL   H412 3222   3.648   1.951   7.298  0.0923 -1.7101  1.4879
    6MOL   H413 3223   3.584   2.100   7.119  1.3348 -1.1195  1.4305
    6MOL   H414 3224   3.453   2.309   7.050  0.9909  0.6357  0.7744
    6MOL   H415 3225   3.402   2.735   7.057 -1.6647  1.4713  1.3605
    6MOL   H416 3226   3.235   2.675   7.050 -0.0138 -1.9749  0.6333
    6MOL   H417 3227   3.264   2.566   6.837  0.9560 -0.3229 -1.3762
    6MOL   H418 3228   3.273   2.735   6.829  0.0537 -0.0398 -0.4773
    6MOL   H419 3229   3.411   2.430   7.463  0.0178  1.1726 -0.6204
    6MOL   H420 3230   3.486   2.273   7.641  0.0089  0.3249  0.4532
    6MOL   H421 3231   3.578   2.065   7.711 -1.3361  0.5638 -0.0226
    6MOL   O422 3232   3.447   2.417   6.798 -0.2231  0.1980 -0.1910
    6MOL   C423 3233   3.504   2.523   6.775 -0.5604 -0.8625  0.2647
    6MOL   O424 3234   3.450   2.642   6.817  0.1500 -0.0437  0.4092
    6MOL   C425 3235   3.631   2.544   6.693 -0.1528 -0.2608 -0.1838
    6MOL   C426 3236   3.721   2.649   6.721  0.2880 -0.0693 -1.3450
    6MOL   C427 3237   3.817   2.677   6.622  0.4571 -0.3659  0.0478
    6MOL   C428 3238   3.900   2.787   6.643  0.0205  0.1377  0.1941
    6MOL   C429 3239   3.998   2.818   6.549  0.5153 -0.4032  0.7582
    6MOL   C430 3240   4.013   2.744   6.429  0.0144  0.4204 -0.6577
    6MOL   C431 3241   4.114   2.785   6.327 -0.7449 -0.1701 -0.4017
    6MOL   O432 3242   4.174   2.901   6.364 -0.4059  0.3229 -0.8105
    6MOL   C433 3243   4.263   2.969   6.281  0.2199 -0.2049 -0.3318
    6MOL   C434 3244   4.186   3.074   6.200 -0.1585 -0.1388  1.1585
    6MOL   O435 3245   4.140   2.723   6.224  0.4697 -0.3522 -0.2759
    6MOL   C436 3246   3.930   2.628   6.409  0.2414  0.8112 -0.4490
    6MOL   C437 3247   3.829   2.602   6.503  0.0728 -0.3155  0.0692
    6MOL   C438 3248   3.752   2.489   6.487  0.5669 -0.1309  0.1592
    6MOL   C439 3249   3.647   2.461   6.576  0.4339  0.0596  0.3891
    6MOL   H440 3250   3.709   2.710   6.809 -0.0033 -1.2627 -0.5488
    6MOL   H441 3251   3.882   2.845   6.732 -0.0679  2.8521 -1.5419
    6MOL   H442 3252   4.055   2.909   6.562 -2.1726  1.5406 -0.5516
    6MOL   H443 3253   4.315   2.900   6.214  1.4223  0.5109 -0.1359
    6MOL   H444 3254   4.339   3.018   6.341 -0.2865 -0.0038  0.1546
    6MOL   H445 3255   4.255   3.152   6.166 -2.6029  1.0981 -1.1000
    6MOL   H446 3256   4.136   3.037   6.111  3.6395  0.2483 -1.2969
    6MOL   H447 3257   3.949   2.570   6.320  1.2306  0.4461 -0.0085
    6MOL   H448 3258   3.756   2.419   6.405  0.9856 -2.7970  2.4114
    6MOL   H449 3259   3.574   2.386   6.551  1.2906 -0.3363 -0.9959
    6MOL   O450 3260   4.241   3.232   6.424 -0.2360 -0.1305 -0.0963
    6MOL   C451 3261   4.126   3.214   6.380  0.2358 -0.3144 -0.0449
    6MOL   O452 3262   4.088   3.138   6.280  0.4248  0.4603  0.2780
    6MOL   C453 3263   4.007   3.288   6.450 -0.1729 -0.0690 -0.2380
    6MOL   C454 3264   3.891   3.320   6.379 -0.4369  0.1475  0.5606
    6MOL   C455 3265   3.781   3.374   6.446 -0.7032  0.0229 -0.3960
    6MOL   C456 3266   3.660   3.402   6.375 -0.2312  0.2671 -0.3046
    6MOL   C457 3267   3.555   3.472   6.438  0.2029 -0.5197  0.8647
    6MOL   C458 3268   3.572   3.506   6.573  0.1367  0.2244  0.2663
    6MOL   C459 3269   3.474   3.590   6.650 -0.8643  0.4009  0.2647
    6MOL   O460 3270   3.399   3.675   6.564  0.0121 -0.2662 -0.0367
    6MOL   C461 3271   3.298   3.769   6.626 -1.0606 -0.4632  0.0743
    6MOL   C462 3272   3.165   3.699   6.666 -0.8735  0.1305 -0.2716
    6MOL   O463 3273   3.472   3.590   6.774 -1.2680  0.2648 -0.0537
    6MOL   C464 3274   3.688   3.476   6.644  0.0181 -0.5483  0.5079
    6MOL   C465 3275   3.789   3.411   6.583  0.1864  0.6231  0.1261
    6MOL   C466 3276   3.906   3.380   6.652 -0.1359  0.5140 -0.7291
    6MOL   C467 3277   4.018   3.332   6.583  0.3064  0.2219 -0.5284
    6MOL   H468 3278   3.883   3.293   6.274  0.5886  1.7485  0.0602
    6MOL   H469 3279   3.670   3.378   6.270  2.4617  0.9517 -0.2702
    6MOL   H470 3280   3.468   3.501   6.380  3.0232  1.0952 -2.7267
    6MOL   H471 3281   3.282   3.848   6.552  0.2017 -0.4390 -0.1882
    6MOL   H472 3282   3.344   3.816   6.712 -0.3786 -0.7344 -0.1354
    6MOL   H473 3283   3.081   3.767   6.671  0.5783  1.9594 -0.2405
    6MOL   H474 3284   3.142   3.627   6.587 -0.5695  0.7037 -0.8795
    6MOL   H475 3285   3.710   3.498   6.748 -1.2503  2.0681  0.2654
    6MOL   H476 3286   3.926   3.406   6.755 -1.5783  1.2426 -0.6131
    6MOL   H477 3287   4.104   3.318   6.647 -0.1377 -1.8724 -0.3607
    6MOL   O478 3288   3.104   3.812   6.899 -0.1575  0.2967  0.0623
    6MOL   C479 3289   3.145   3.692   6.900  0.1970  0.6967  0.4427
    6MOL   O480 3290   3.183   3.627   6.789  0.2214 -0.3047  0.5000
    6MOL   C481 3291   3.164   3.618   7.024  0.0376  0.2372  0.1090
    6MOL   C482 3292   3.132   3.679   7.145 -0.0908  0.2769 -0.0393
    6MOL   C483 3293   3.155   3.618   7.269  0.2734  0.1114  0.3986
    6MOL   C484 3294   3.119   3.679   7.389 -0.3968 -0.5841 -0.3592
    6MOL   C485 3295   3.147   3.616   7.509 -0.3711  0.3177 -0.3385
    6MOL   C486 3296   3.226   3.494   7.514 -0.7933  0.4130  0.0899
    6MOL   C487 3297   3.249   3.427   7.644  0.0104 -0.0664  0.2758
    6MOL   O488 3298   3.167   3.459   7.744  0.4685  0.3908 -0.5102
    6MOL   C489 3299   3.162   3.371   7.857 -0.2517 -0.4454  0.3043
    6MOL   C490 3300   3.022   3.316   7.888  0.5373  0.0192 -0.2869
    6MOL   O491 3301   3.345   3.354   7.656 -0.7408  0.0513  0.3924
    6MOL   C492 3302   3.258   3.432   7.393 -0.1833  0.3102 -0.6975
    6MOL   C493 3303   3.228   3.497   7.277  0.3425 -0.2671  0.4646
    6MOL   C494 3304   3.265   3.438   7.152  0.2256  0.2443 -0.5907
    6MOL   C495 3305   3.233   3.493   7.027  0.1430  0.8870 -0.0733
    6MOL   H496 3306   3.093   3.779   7.144  0.8434  0.6424 -0.0789
    6MOL   H497 3307   3.075   3.777   7.385  0.9472 -0.0239 -1.6473
    6MOL   H498 3308   3.120   3.663   7.603  0.4175 -2.3473  1.2637
    6MOL   H499 3309   3.210   3.427   7.937  2.4707 -1.3088 -0.6754
    6MOL   H500 3310   3.216   3.280   7.832  0.6186  0.3784 -0.9091
    6MOL   H501 3311   2.982   3.268   7.799 -0.9897 -0.6056  0.7072
    6MOL   H502 3312   3.025   3.233   7.960 -2.1278  0.1075 -0.0385
    6MOL   H503 3313   3.305   3.334   7.396 -2.3822 -0.7272  2.0480
    6MOL   H504 3314   3.317   3.345   7.135  0.7474  0.8344 -2.3427
    6MOL   H505 3315   3.265   3.433   6.943 -0.6453  0.5712 -0.1509
    6MOL   O506 3316   3.017   3.374   8.151  0.3651  0.5424  0.4073
    6MOL   C507 3317   2.948   3.435   8.074  0.4859  0.2698 -0.1886
    6MOL   O508 3318   2.937   3.411   7.945  0.1693 -0.1086 -0.2356
    6MOL   C509 3319   2.871   3.560   8.105  0.5153 -0.0846 -0.8798
    6MOL   C510 3320   2.884   3.609   8.235 -0.0925  0.1371  0.0224
    6MOL   C511 3321   2.819   3.725   0.024  0.2450  0.3940 -0.7522
    6MOL   C512 3322   2.836   3.770   0.156  1.1847  0.1255  0.1598
    6MOL   C513 3323   2.789   3.892   0.199  0.2620  0.3179  0.4590
    6MOL   C514 3324   2.721   3.972   0.101 -0.0021  0.2413 -0.6670
    6MOL   C515 3325   2.667   4.108   0.128 -0.3993 -0.0893  0.1895
    6MOL   O516 3326   2.700   4.154   0.254  0.5066 -0.5124 -0.3666
    6MOL   C517 3327   2.628   4.247   0.311  0.2283  0.1593 -0.2190
    6MOL   C518 3328   2.574   4.209   0.455  0.3920 -0.2514 -0.4794
    6MOL   O519 3329   2.596   4.170   0.051  0.1669 -0.1137  0.0921
    6MOL   C520 3330   2.701   3.923   8.216 -0.0323  0.3035 -0.5330
    6MOL   C521 3331   2.749   3.802   8.175 -0.1495  0.0367  0.4453
    6MOL   C522 3332   2.740   3.761   8.040  0.4687 -0.1397 -0.2323
    6MOL   C523 3333   2.800   3.637   8.006 -0.6565  0.2766  0.9235
    6MOL   H524 3334   2.940   3.552   0.058 -0.8614 -1.1626 -0.3976
    6MOL   H525 3335   2.877   3.700   0.228 -3.9580 -1.3498  1.8711
    6MOL   H526 3336   2.789   3.919   0.303 -2.2821 -1.3908  0.9762
    6MOL   H527 3337   2.544   4.267   0.244  0.3984  0.5948 -0.2976
    6MOL   H528 3338   2.698   4.330   0.313  0.0063  0.3303  0.5717
    6MOL   H529 3339   2.484   4.261   0.489  0.7099  0.4780 -0.7369
    6MOL   H530 3340   2.548   4.106   0.432 -1.3596  0.2618 -0.9167
    6MOL   H531 3341   2.648   3.987   8.146 -0.3715  1.2037  0.5342
    6MOL   H532 3342   2.691   3.819   7.963 -0.9653  0.9531  1.4805
    6MOL   H533 3343   2.785   3.590   7.911  0.2353  0.7300  0.5491
    6MOL   O534 3344   2.723   3.984   0.525 -0.8430 -0.1638  0.2785
    6MOL   C535 3345   2.748   4.096   0.575  0.5804 -0.2169  0.7352
    6MOL   O536 3346   2.681   4.211   0.550  0.3068 -0.3297  0.1708
    6MOL   C537 3347   2.859   4.111   0.669  0.0970  0.0504 -0.1316
    6MOL   C538 3348   2.881   4.234   0.741 -0.2673 -0.1127 -0.5545
    6MOL   C539 3349   2.981   4.247   0.836  0.1772  0.1904 -0.6357
    6MOL   C540 3350   2.993   4.364   0.911  0.3624 -0.5089 -0.2393
    6MOL   C541 3351   3.083   4.362   1.019  0.7435  0.2025 -0.4529
    6MOL   C542 3352   3.158   4.248   1.050  0.1706 -0.4339  0.1382
    6MOL   C543 3353   3.251   4.236   1.167  0.0334 -0.4160 -0.1733
    6MOL   O544 3354   3.278   4.347   1.226 -0.3940 -0.0509  0.0771
    6MOL   C545 3355   3.356   4.342   1.342 -0.5681  0.1972  0.4903
    6MOL   C546 3356   3.431   4.473   1.348  0.7881  0.1013  0.0083
    6MOL   O547 3357   3.284   4.128   1.216 -0.1127 -0.1045 -0.3484
    6MOL   C548 3358   3.156   4.137   0.965 -0.7268 -0.0181  1.1852
    6MOL   C549 3359   3.067   4.138   0.858 -1.4505  0.0396 -0.0957
    6MOL   C550 3360   3.050   4.024   0.781  0.3275  0.6807  1.1515
    6MOL   C551 3361   2.947   4.005   0.690 -0.5177 -0.7992  0.2355
    6MOL   H552 3362   2.817   4.321   0.732 -1.1080 -0.6273  0.3549
    6MOL   H553 3363   2.930   4.451   0.903 -0.7000 -1.3509 -1.1672
    6MOL   H554 3364   3.090   4.457   1.070 -1.5163  1.0453 -1.6081
    6MOL   H555 3365   3.435   4.268   1.344  0.0035  0.7592 -0.5495
    6MOL   H556 3366   3.287   4.329   1.425  0.1234  4.8180  1.9492
    6MOL   H557 3367   3.502   4.482   1.430  0.5343 -0.2225  0.2661
    6MOL   H558 3368   3.355   4.551   1.363  0.2982 -0.4365  0.3524
    6MOL   H559 3369   3.227   4.056   0.973 -1.2149 -0.7616 -1.4539
    6MOL   H560 3370   3.120   3.942   0.792 -0.6158 -0.3998 -0.7380
    6MOL   H561 3371   2.937   3.913   0.635  1.0055 -1.0982  0.4460
    6MOL   H562 3372   3.477   4.505   1.255  1.0569 -3.0418 -0.9810
    7MOL     O1 3373   5.148   3.080   7.055  0.5986 -0.8203  0.0082
    7MOL     C2 3374   5.100   2.972   7.081  0.4987 -0.0831 -1.0616
    7MOL     O3 3375   5.136   2.857   7.023  0.1006 -0.0994  0.3441
    7MOL     C4 3376   4.984   2.949   7.180 -0.1656  0.2316  0.2842
    7MOL     C5 3377   4.943   2.815   7.207  1.2693 -0.9947  0.5994
    7MOL     C6 3378   4.835   2.795   7.298 -0.6218 -0.2801  1.6484
    7MOL     C7 3379   4.787   2.664   7.314 -0.8341 -0.2341 -0.0712
    7MOL     C8 3380   4.688   2.639   7.403 -0.3530 -0.1014 -0.2587
    7MOL     C9 3381   4.636   2.750   7.486  0.5835  0.2462  0.6956
    7MOL    C10 3382   4.551   2.718   7.605  0.1385  0.0820  0.2150
    7MOL    O11 3383   4.558   2.584   7.645 -0.3521  0.1159 -0.5021
    7MOL    C12 3384   4.457   2.530   7.726  0.2107  0.3725  1.0444
    7MOL    C13 3385   4.323   2.505   7.655  0.3042 -0.7909 -0.3154
    7MOL    O14 3386   4.472   2.799   7.648 -0.3441 -0.3695 -0.4756
    7MOL    C15 3387   4.684   2.880   7.468  0.1249  0.5959 -0.2285
    7MOL    C16 3388   4.782   2.905   7.371 -0.6257 -0.6511  0.3444
    7MOL    C17 3389   4.828   3.037   7.351 -0.2235  0.7342 -0.3123
    7MOL    C18 3390   4.929   3.056   7.256 -0.0848  0.1881  0.1420
    7MOL    H19 3391   4.978   2.728   7.154  0.3215 -0.2306 -1.3242
    7MOL    H20 3392   4.831   2.578   7.266 -2.4814 -0.8188 -0.5554
    7MOL    H21 3393   4.654   2.540   7.429  0.9922 -0.2937  0.8472
    7MOL    H22 3394   4.486   2.430   7.761 -0.7449  0.1167  1.1097
    7MOL    H23 3395   4.448   2.593   7.814 -2.1132 -0.5231  1.4906
    7MOL    H24 3396   4.262   2.440   7.718 -0.7214  0.9040  0.4908
    7MOL    H25 3397   4.275   2.598   7.623 -2.7160 -1.5673  1.6945
    7MOL    H26 3398   4.638   2.955   7.531  0.4695  0.6256 -0.0110
    7MOL    H27 3399   4.792   3.123   7.406  2.4142 -0.5145  3.6062
    7MOL    H28 3400   4.957   3.156   7.228  0.3736  0.3142  1.0268
    7MOL    H29 3401   5.164   2.876   6.935 -0.9685 -0.9430 -0.1926
    7MOL    O30 3402   4.196   2.280   7.542 -0.3906  0.1241 -0.3445
    7MOL    C31 3403   4.292   2.333   7.483  0.1071 -0.6178 -0.4276
    7MOL    O32 3404   4.363   2.439   7.525  0.2835 -0.3108  0.4061
    7MOL    C33 3405   4.343   2.291   7.352 -0.0679 -0.0657  1.0763
    7MOL    C34 3406   4.473   2.322   7.309  0.6695  0.3455  0.5615
    7MOL    C35 3407   4.520   2.275   7.185 -0.2829  0.0289  0.2963
    7MOL    C36 3408   4.645   2.320   7.139 -0.4446 -0.4443 -0.3985
    7MOL    C37 3409   4.690   2.280   7.010 -0.5909  0.6936  0.0470
    7MOL    C38 3410   4.607   2.203   6.924 -0.3260 -0.2689  0.0503
    7MOL    C39 3411   4.653   2.170   6.793  0.0915  0.0787  0.6934
    7MOL    O40 3412   4.551   2.131   6.714  0.0700 -0.2816 -0.4436
    7MOL    C41 3413   4.568   2.097   6.576  0.4093  0.4877  0.2666
    7MOL    C42 3414   4.583   2.228   6.475  0.7621  0.7732 -0.4242
    7MOL    O43 3415   4.770   2.169   6.751  0.0664 -0.2301 -0.0528
    7MOL    C44 3416   4.479   2.168   6.968  0.1608  1.3556  0.1751
    7MOL    C45 3417   4.443   2.196   7.098  0.0755 -0.5074 -0.7095
    7MOL    C46 3418   4.315   2.160   7.143  0.1314 -0.4387 -0.3572
    7MOL    C47 3419   4.264   2.209   7.260 -0.1666 -0.2833  0.1866
    7MOL    H48 3420   4.521   2.407   7.357  0.1728  0.7571  0.3292
    7MOL    H49 3421   4.706   2.383   7.202 -1.2701  2.7221 -2.6188
    7MOL    H50 3422   4.790   2.305   6.979 -0.0390  0.9010  1.9383
    7MOL    H51 3423   4.480   2.037   6.554  1.5604 -1.3742  0.5577
    7MOL    H52 3424   4.653   2.028   6.586  0.6019  0.4466 -1.5710
    7MOL    H53 3425   4.564   2.197   6.373  0.2440  1.4075 -0.5246
    7MOL    H54 3426   4.501   2.297   6.497  0.0190 -0.2258 -0.0461
    7MOL    H55 3427   4.415   2.103   6.911  1.8138  0.3049 -0.5491
    7MOL    H56 3428   4.255   2.098   7.078 -0.4825 -0.0073 -0.2112
    7MOL    H57 3429   4.164   2.186   7.295 -0.2413 -0.3163 -0.0485
    7MOL    O58 3430   4.647   2.489   6.597  0.7758  0.3453  0.6073
    7MOL    C59 3431   4.733   2.415   6.543 -0.0373 -0.1270  0.3498
    7MOL    O60 3432   4.713   2.297   6.485  0.4249 -0.2245 -0.2597
    7MOL    C61 3433   4.880   2.426   6.574 -0.6414 -0.2357 -0.4695
    7MOL    C62 3434   4.936   2.504   6.686  0.3567  0.7980  0.6851
    7MOL    C63 3435   5.073   2.519   6.705 -0.0200 -0.1051  0.2572
    7MOL    C64 3436   5.128   2.594   6.817  0.2223 -0.4336  0.0783
    7MOL    C65 3437   5.269   2.588   6.836 -0.3767 -0.3225  0.2244
    7MOL    C66 3438   5.349   2.517   6.747  0.1765  0.2907  0.1243
    7MOL    C67 3439   5.491   2.504   6.781  0.6615 -0.7059  0.1853
    7MOL    O68 3440   5.527   2.375   6.750 -0.5291  0.5110  0.0124
    7MOL    C69 3441   5.657   2.331   6.749 -0.2005 -0.2576  0.2723
    7MOL    C70 3442   5.732   2.409   6.637 -0.1462 -0.4458 -0.0826
    7MOL    O71 3443   5.568   2.594   6.827  0.6970 -0.3175 -0.7759
    7MOL    C72 3444   5.297   2.453   6.636  0.8294  0.3292 -0.2802
    7MOL    C73 3445   5.161   2.449   6.617  1.1440 -0.8835 -0.0274
    7MOL    C74 3446   5.105   2.369   6.515  0.5726 -0.2070  0.5161
    7MOL    C75 3447   4.970   2.368   6.493 -0.1647 -1.0439  0.8280
    7MOL    H76 3448   4.866   2.550   6.754  0.3119  0.1796  1.0519
    7MOL    H77 3449   5.052   2.636   6.881  2.9446  1.5452  2.1172
    7MOL    H78 3450   5.318   2.642   6.916  0.0725  2.1871 -1.6579
    7MOL    H79 3451   5.659   2.226   6.721 -3.0591 -0.0145 -0.9890
    7MOL    H80 3452   5.703   2.352   6.846 -0.2956  0.1887  0.2187
    7MOL    H81 3453   5.673   2.401   6.546 -0.5417 -3.3138  0.3907
    7MOL    H82 3454   5.744   2.513   6.667  1.7020 -1.6824  3.7095
    7MOL    H83 3455   5.361   2.406   6.563  1.1338 -0.7883  0.6963
    7MOL    H84 3456   5.167   2.320   6.441 -1.6522 -1.4290 -0.6124
    7MOL    H85 3457   4.931   2.316   6.406  0.6515 -0.5956  0.1842
    7MOL    O86 3458   5.919   2.426   6.828  0.6251 -0.3832  0.8317
    7MOL    C87 3459   5.941   2.360   6.722  0.3162  0.6111 -0.4419
    7MOL    O88 3460   5.852   2.352   6.620 -0.6164 -0.0024 -0.2381
    7MOL    C89 3461   6.080   2.299   6.701  0.0760  0.1138 -0.0513
    7MOL    C90 3462   6.096   2.225   6.586  0.2591  0.0792 -0.3678
    7MOL    C91 3463   6.210   2.147   6.560  1.0075  0.5623 -0.1061
    7MOL    C92 3464   6.224   2.077   6.436 -0.5575 -0.9578 -0.4533
    7MOL    C93 3465   6.341   2.005   6.412  0.1255  0.3701  0.5051
    7MOL    C94 3466   6.447   2.014   6.504  0.6261  0.5318  0.2179
    7MOL    C95 3467   6.576   1.945   6.477 -0.4125 -0.1355 -0.2785
    7MOL    O96 3468   6.580   1.870   6.362 -0.0537  0.4764 -0.2465
    7MOL    C97 3469   6.700   1.831   6.294  0.6955 -0.4172 -0.2791
    7MOL    C98 3470   6.692   1.860   6.149 -1.3475 -0.1462  0.2183
    7MOL    O99 3471   6.672   1.952   6.548 -0.3237 -0.2604 -0.6951
    7MOL   C100 3472   6.436   2.098   6.616 -0.0966  0.1118  0.1931
    7MOL   C101 3473   6.318   2.162   6.647 -0.0921  0.5735 -0.0557
    7MOL   C102 3474   6.306   2.241   6.760 -0.5017  1.3597 -0.4770
    7MOL   C103 3475   6.189   2.307   6.790 -0.4702  0.0137 -0.0663
    7MOL   H104 3476   6.012   2.217   6.517 -0.1140 -0.4393  0.1443
    7MOL   H105 3477   6.148   2.080   6.358  0.6846 -2.0809 -1.7373
    7MOL   H106 3478   6.354   1.946   6.323  1.2018 -0.1190  0.9750
    7MOL   H107 3479   6.718   1.727   6.321 -3.3787 -0.5092  2.6333
    7MOL   H108 3480   6.775   1.907   6.317 -1.1032  1.6612 -1.0311
    7MOL   H109 3481   6.635   1.781   6.100  0.5422 -3.5147  3.2520
    7MOL   H110 3482   6.637   1.954   6.139  1.9284  1.8829  0.3385
    7MOL   H111 3483   6.520   2.096   6.683 -1.3556  2.3814  1.9146
    7MOL   H112 3484   6.382   2.247   6.836 -1.0924  0.9136  0.1523
    7MOL   H113 3485   6.175   2.366   6.879 -1.2626  0.9455 -0.7961
    7MOL   O114 3486   6.865   1.652   6.088  0.5185  0.1269 -0.1381
    7MOL   C115 3487   6.894   1.766   6.047 -0.1889 -0.2671 -0.0300
    7MOL   O116 3488   6.817   1.876   6.086 -0.3620 -0.8649 -0.1354
    7MOL   C117 3489   7.012   1.803   5.971 -0.3058  0.7178  0.6764
    7MOL   C118 3490   7.109   1.695   5.940  0.8540  0.1973 -0.4665
    7MOL   C119 3491   7.226   1.714   5.860 -0.0938 -0.8550 -0.1960
    7MOL   C120 3492   7.313   1.605   5.827  0.3002 -0.3116 -0.3918
    7MOL   C121 3493   7.426   1.614   5.746  0.1009  0.1555 -0.2256
    7MOL   C122 3494   7.444   1.744   5.687  0.1925  0.8205  0.6643
    7MOL   C123 3495   7.559   1.757   5.584  0.0660  0.1661 -0.7562
    7MOL   O124 3496   7.583   1.883   5.545  0.1192 -0.4484  0.3450
    7MOL   C125 3497   7.702   1.911   5.472  0.5193 -0.1629  0.4113
    7MOL   C126 3498   7.708   2.047   5.401 -0.0813  0.2938 -0.7526
    7MOL   O127 3499   7.619   1.664   5.538  0.6367 -0.3572  0.0050
    7MOL   C128 3500   7.353   1.850   5.718  0.0161 -0.1852  0.1734
    7MOL   C129 3501   7.241   1.840   5.801 -0.7165 -0.0570 -0.5855
    7MOL   C130 3502   7.161   1.951   5.842 -0.0041  0.0765  0.6744
    7MOL   C131 3503   7.054   1.931   5.930  0.1703 -0.6468  0.0417
    7MOL   H132 3504   7.086   1.600   5.984 -0.9505  1.6289  1.8305
    7MOL   H133 3505   7.288   1.505   5.858  0.0535  0.0206  0.4837
    7MOL   H134 3506   7.489   1.530   5.723  0.9134 -0.1658  2.9129
    7MOL   H135 3507   7.713   1.824   5.406  1.7064  0.1814  0.1434
    7MOL   H136 3508   7.784   1.886   5.539  0.4262 -0.6783  0.3383
    7MOL   H137 3509   7.610   2.060   5.356 -0.9848  1.8818  1.5385
    7MOL   H138 3510   7.736   2.127   5.470  0.0086  0.0294 -0.4809
    7MOL   H139 3511   7.364   1.939   5.657 -1.4913 -0.4316 -0.4649
    7MOL   H140 3512   7.189   2.046   5.800 -0.0659 -0.4244 -0.5203
    7MOL   H141 3513   7.018   2.027   5.964 -0.5583  0.4431 -3.5383
    7MOL   O142 3514   7.972   2.093   5.409  0.7804 -0.4285 -0.0065
    7MOL   C143 3515   7.929   2.053   5.299 -0.0419 -0.4603 -0.1466
    7MOL   O144 3516   7.794   2.038   5.288  0.3145 -0.3004 -0.7067
    7MOL   C145 3517   8.006   2.014   5.179  0.8309  0.0663 -0.3764
    7MOL   C146 3518   7.938   1.981   5.060  0.2379  0.1341 -0.4781
    7MOL   C147 3519   8.018   1.925   4.953  0.4406  0.8265  0.5515
    7MOL   C148 3520   7.964   1.883   4.829  0.5057  0.2111 -1.1180
    7MOL   C149 3521   8.045   1.837   4.727  0.5965 -0.3002 -0.0762
    7MOL   C150 3522   8.181   1.823   4.742 -0.1266  0.5678  0.6135
    7MOL   C151 3523   0.016   1.770   4.628  0.1243 -1.0349  0.1854
    7MOL   O152 3524   8.190   1.712   4.531 -0.4223  0.1452 -0.3610
    7MOL   C153 3525   8.242   1.678   4.402 -0.2741 -0.1848  0.4373
    7MOL   C154 3526   0.011   1.804   4.322 -0.3341  0.0464  0.0139
    7MOL   O155 3527   0.138   1.765   4.629 -0.3355 -0.8451  0.0241
    7MOL   C156 3528   8.232   1.865   4.862 -0.3971 -0.1199 -0.0899
    7MOL   C157 3529   8.158   1.912   4.965 -0.1028 -0.3504 -0.5656
    7MOL   C158 3530   8.216   1.953   5.081  0.2783  0.2534  0.4248
    7MOL   C159 3531   8.145   2.003   5.187 -0.0922  0.3052  0.3000
    7MOL   H160 3532   7.835   2.009   5.042  1.1482  2.3443 -2.5775
    7MOL   H161 3533   7.857   1.878   4.815  0.2152  0.0315  0.9138
    7MOL   H162 3534   7.995   1.809   4.635 -1.3317  0.6461  0.6649
    7MOL   H163 3535   8.172   1.618   4.343  0.8251  0.5593 -1.6838
    7MOL   H164 3536   0.089   1.627   4.415 -0.5418 -0.9160 -0.3470
    7MOL   H165 3537   0.087   1.871   4.364 -0.6771  0.1645  0.4513
    7MOL   H166 3538   0.038   1.774   4.221 -0.3609  1.0034 -0.2825
    7MOL   H167 3539   0.091   1.865   4.866 -0.3219 -0.6785 -1.6298
    7MOL   H168 3540   0.074   1.948   5.094  0.0985  0.2995  2.1172
    7MOL   H169 3541   8.196   2.030   5.279 -1.0222  0.1033  0.8802
    7MOL   O170 3542   8.179   2.000   4.150 -0.8028  0.0260 -0.3783
    7MOL   C171 3543   8.097   1.967   4.232 -0.7519  0.7275  0.2704
    7MOL   O172 3544   8.139   1.878   4.329  0.0590  0.2163  0.3221
    7MOL   C173 3545   7.965   2.029   4.259 -0.1947 -0.4309  0.6801
    7MOL   C174 3546   7.890   2.024   4.380  0.5236 -0.1458  0.9499
    7MOL   C175 3547   7.782   2.113   4.407  0.3168 -0.2507  0.0973
    7MOL   C176 3548   7.717   2.114   4.528 -0.2735  0.2952  1.0924
    7MOL   C177 3549   7.603   2.191   4.558 -0.1263  0.1521  0.3160
    7MOL   C178 3550   7.554   2.275   4.458  0.1310  0.0794 -0.0131
    7MOL   C179 3551   7.433   2.361   4.480 -0.4159  0.4456 -0.0705
    7MOL   O180 3552   7.369   2.397   4.371 -0.4547 -0.3865  0.5538
    7MOL   C181 3553   7.254   2.481   4.382 -0.0063  0.0347  0.5388
    7MOL   C182 3554   7.204   2.506   4.239 -0.9547 -0.1161  0.4050
    7MOL   O183 3555   7.383   2.387   4.592  0.0365 -0.3882  0.1943
    7MOL   C184 3556   7.627   2.289   4.337  0.0173  0.4889  0.2193
    7MOL   C185 3557   7.741   2.209   4.314  0.2324  0.4467  0.5988
    7MOL   C186 3558   7.808   2.207   4.191  0.3394  0.9733  0.2276
    7MOL   C187 3559   7.924   2.129   4.164  0.2522  0.1223  0.3490
    7MOL   H188 3560   7.911   1.962   4.466 -1.0826  0.7143  1.9997
    7MOL   H189 3561   7.743   2.036   4.599  1.3769  0.0575  0.2366
    7MOL   H190 3562   7.564   2.178   4.658 -0.5972 -0.6184  0.0338
    7MOL   H191 3563   7.297   2.577   4.411  3.0946 -0.8916 -0.7957
    7MOL   H192 3564   7.177   2.445   4.450 -0.3538  2.9247  1.7690
    7MOL   H193 3565   7.177   2.414   4.187 -1.7086  1.2454 -1.7190
    7MOL   H194 3566   7.116   2.569   4.227 -1.2074 -0.7131 -0.9901
    7MOL   H195 3567   7.595   2.356   4.258 -0.3981 -0.7279 -0.6654
    7MOL   H196 3568   7.775   2.268   4.108  0.2462 -0.4365 -0.7945
    7MOL   H197 3569   7.968   2.134   4.065 -0.9731 -0.4161 -0.2451
    7MOL   O198 3570   7.158   2.598   3.989 -0.1880 -0.3095 -0.0755
    7MOL   C199 3571   7.267   2.609   4.037  0.3498  0.2150 -0.1613
    7MOL   O200 3572   7.309   2.566   4.161 -0.1160 -0.5239  0.3278
    7MOL   C201 3573   7.381   2.657   3.954  0.3771 -0.5482 -0.0411
    7MOL   C202 3574   7.517   2.622   3.981 -0.4999  0.1119 -0.0092
    7MOL   C203 3575   7.623   2.652   3.890 -0.2709 -0.0522  0.8063
    7MOL   C204 3576   7.753   2.626   3.920  0.3442  1.1338  0.0880
    7MOL   C205 3577   7.851   2.666   3.826  0.3726 -0.2107 -0.0101
    7MOL   C206 3578   7.814   2.729   3.706 -0.0657  0.2895 -0.1923
    7MOL   C207 3579   7.908   2.778   3.600  0.2033 -0.8197  0.0038
    7MOL   O208 3580   8.029   2.721   3.614 -0.0991  0.5684 -0.0208
    7MOL   C209 3581   8.134   2.761   3.531  0.4586 -0.3968  0.2567
    7MOL   C210 3582   0.012   2.680   3.561 -0.5816  0.0745 -0.3169
    7MOL   O211 3583   7.888   2.860   3.509  0.7381 -0.0856 -0.5672
    7MOL   C212 3584   7.677   2.756   3.676 -0.4825  0.4156  0.2581
    7MOL   C213 3585   7.587   2.716   3.770 -0.1536  0.7077  0.4464
    7MOL   C214 3586   7.454   2.744   3.743 -0.0562  0.6831  0.3012
    7MOL   C215 3587   7.351   2.713   3.831 -0.0847  0.0003 -0.7482
    7MOL   H216 3588   7.540   2.569   4.073 -2.3800  1.3983  1.2358
    7MOL   H217 3589   7.782   2.586   4.016  1.6026  1.4137 -0.1638
    7MOL   H218 3590   7.956   2.650   3.845  0.7089  0.5633 -1.1671
    7MOL   H219 3591   8.152   2.866   3.553  1.0152 -0.4138 -0.1045
    7MOL   H220 3592   8.114   2.757   3.424 -0.0672  1.8775  0.2565
    7MOL   H221 3593   0.097   2.686   3.492  1.0085 -0.2124  1.5673
    7MOL   H222 3594   0.053   2.702   3.659  1.0232  1.0099 -1.1631
    7MOL   H223 3595   7.659   2.809   3.584  1.1691 -1.1709 -1.0089
    7MOL   H224 3596   7.423   2.795   3.653  0.3675  0.7759  0.2061
    7MOL   H225 3597   7.253   2.743   3.797  1.3862  2.6162 -2.8098
    7MOL   O226 3598   0.030   2.493   3.760  0.3927  0.3843 -0.4257
    7MOL   C227 3599   8.230   2.461   3.653 -0.1043  0.1933  0.4579
    7MOL   O228 3600   8.220   2.543   3.551  0.1123  0.3619 -0.6621
    7MOL   C229 3601   8.160   2.327   3.620  0.6075 -0.0015  0.0905
    7MOL   C230 3602   8.122   2.291   3.485 -0.3402 -1.0422 -0.4563
    7MOL   C231 3603   8.085   2.158   3.454  0.5671 -0.4898 -0.1381
    7MOL   C232 3604   8.060   2.121   3.320  0.0817 -0.6712 -0.1172
    7MOL   C233 3605   8.021   1.985   3.289 -0.0671 -0.2338  0.3432
    7MOL   C234 3606   8.014   1.887   3.390  0.8700  0.5321 -0.0206
    7MOL   C235 3607   7.958   1.755   3.369  0.2047  0.1746  0.5931
    7MOL   O236 3608   7.950   1.724   3.234 -0.5729 -0.7108 -0.4142
    7MOL   C237 3609   7.930   1.589   3.202  0.3222 -0.9094  0.3950
    7MOL   C238 3610   7.777   1.564   3.176  0.1262  0.0667 -0.7279
    7MOL   O239 3611   7.920   1.682   3.462 -0.1132 -0.6227  0.0362
    7MOL   C240 3612   8.039   1.931   3.522 -0.2162 -0.1860 -0.0157
    7MOL   C241 3613   8.070   2.064   3.555 -1.0650 -0.1529 -0.2875
    7MOL   C242 3614   8.095   2.096   3.689  0.0090  0.0943  0.8113
    7MOL   C243 3615   8.144   2.223   3.720 -0.2213  0.6318 -0.2533
    7MOL   H244 3616   8.120   2.378   3.422 -2.4464 -0.5203  0.2649
    7MOL   H245 3617   8.066   2.194   3.241 -0.2950  1.1892  1.5184
    7MOL   H246 3618   7.990   1.970   3.186 -2.3722  1.7974  0.6864
    7MOL   H247 3619   7.967   1.520   3.278  1.8064 -0.1037  0.4238
    7MOL   H248 3620   7.992   1.564   3.116  0.4722  0.8579 -0.0248
    7MOL   H249 3621   7.766   1.459   3.148 -1.2131 -0.6230  2.1468
    7MOL   H250 3622   7.714   1.578   3.264 -0.3877 -0.0745 -1.0771
    7MOL   H251 3623   8.035   1.849   3.592 -3.6561 -0.9453 -0.9925
    7MOL   H252 3624   8.075   2.033   3.774 -3.2309  0.1020  0.1286
    7MOL   H253 3625   8.163   2.252   3.823  1.0976 -0.2786 -0.2390
    7MOL   O254 3626   7.816   1.528   2.907 -0.5944  0.4107 -0.8146
    7MOL   C255 3627   7.745   1.621   2.945  0.0673 -0.0079  0.4027
    7MOL   O256 3628   7.732   1.654   3.073  0.1090 -0.2848 -0.0475
    7MOL   C257 3629   7.670   1.710   2.849 -0.1383  0.2295  0.5025
    7MOL   C258 3630   7.571   1.800   2.893 -0.5051  0.4293 -0.0924
    7MOL   C259 3631   7.479   1.859   2.807 -0.6818  0.7102  0.2794
    7MOL   C260 3632   7.385   1.947   2.851  0.1638 -0.6560 -0.3773
    7MOL   C261 3633   7.302   2.019   2.758 -0.7867  0.0372  0.0699
    7MOL   C262 3634   7.313   1.992   2.617  0.4906  0.6876  0.1978
    7MOL   C263 3635   7.231   2.063   2.521 -0.5676 -0.6744  0.8101
    7MOL   O264 3636   7.139   2.147   2.572  0.1472  0.8209  0.2545
    7MOL   C265 3637   7.045   2.208   2.476 -0.7739  0.1140 -0.2029
    7MOL   C266 3638   7.104   2.331   2.421  0.3073  0.2034  0.0527
    7MOL   O267 3639   7.243   2.044   2.401  0.5527  1.0698 -0.3200
    7MOL   C268 3640   7.408   1.898   2.575  0.2465 -0.6455  0.2900
    7MOL   C269 3641   7.493   1.830   2.669 -0.4654  0.3380  0.5123
    7MOL   C270 3642   7.590   1.735   2.624  0.4064 -0.2536 -0.1707
    7MOL   C271 3643   7.678   1.681   2.715  0.1135 -0.0501 -0.6145
    7MOL   H272 3644   7.560   1.823   2.998 -1.0539 -0.2526  0.0018
    7MOL   H273 3645   7.376   1.975   2.955 -1.1995 -1.5160 -0.2533
    7MOL   H274 3646   7.228   2.082   2.805 -0.8184  1.5245 -1.9211
    7MOL   H275 3647   6.961   2.247   2.533 -1.7416 -1.6933 -0.3552
    7MOL   H276 3648   7.017   2.134   2.401  0.8825 -2.6180  1.7828
    7MOL   H277 3649   7.121   2.410   2.494  0.2372  0.7103 -0.4771
    7MOL   H278 3650   7.197   2.311   2.368 -0.1748 -2.5422  0.2023
    7MOL   H279 3651   7.423   1.873   2.471  0.6363 -0.1438  0.2259
    7MOL   H280 3652   7.605   1.706   2.521 -0.9453 -4.6386  0.7822
    7MOL   H281 3653   7.746   1.602   2.687 -0.9575 -1.7417  1.3720
    7MOL   O282 3654   7.047   2.237   2.167  0.2148 -0.5028  0.4527
    7MOL   C283 3655   7.004   2.344   2.207 -0.3433  0.8583 -0.2917
    7MOL   O284 3656   7.016   2.387   2.327  0.1971  0.0544 -0.4095
    7MOL   C285 3657   6.925   2.440   2.120 -0.1332 -0.1685 -1.0295
    7MOL   C286 3658   6.854   2.550   2.169 -0.8185 -0.2119 -0.3599
    7MOL   C287 3659   6.784   2.641   2.087  0.6429  0.7610  0.1062
    7MOL   C288 3660   6.706   2.748   2.142  0.3371  0.0485  0.1614
    7MOL   C289 3661   6.656   2.849   2.055  0.1963  0.0998 -0.0696
    7MOL   C290 3662   6.679   2.840   1.911  0.6870  0.2515  0.1474
    7MOL   C291 3663   6.645   2.948   1.817  0.1620  0.5632 -0.1758
    7MOL   O292 3664   6.584   3.056   1.882 -0.1489 -0.4033 -0.5154
    7MOL   C293 3665   6.548   3.175   1.818  0.5479  0.5027 -0.5269
    7MOL   C294 3666   6.672   3.256   1.804 -0.3263 -0.1213  0.2282
    7MOL   O295 3667   6.672   2.949   1.696  0.2912 -0.2054 -0.6438
    7MOL   C296 3668   6.755   2.726   1.864  0.5563  0.4212  0.7901
    7MOL   C297 3669   6.796   2.623   1.948 -0.8619  0.5575 -0.0087
    7MOL   C298 3670   6.872   2.512   1.895  0.6277  0.0680 -0.3451
    7MOL   C299 3671   6.932   2.418   1.981 -0.1808 -0.3691  0.5343
    7MOL   H300 3672   6.840   2.569   2.274  2.5498  1.5216 -0.1471
    7MOL   H301 3673   6.701   2.762   2.249 -1.1770  3.6771 -0.2955
    7MOL   H302 3674   6.601   2.929   2.103 -0.0304  0.2448 -0.5597
    7MOL   H303 3675   6.473   3.221   1.883 -0.0854  2.0516 -2.2986
    7MOL   H304 3676   6.509   3.152   1.719  0.8923  0.9287 -0.7625
    7MOL   H305 3677   6.754   3.190   1.774 -1.2627 -0.6068 -1.2709
    7MOL   H306 3678   6.669   3.322   1.718  1.4237 -0.6380 -0.2648
    7MOL   H307 3679   6.762   2.714   1.757 -1.7444 -0.6504  0.7123
    7MOL   H308 3680   6.879   2.497   1.789 -5.4610 -1.9203 -0.6087
    7MOL   H309 3681   6.982   2.332   1.939 -1.3013 -0.7995  0.0702
    7MOL   O310 3682   6.542   3.473   1.932 -0.2611 -0.1071  0.3402
    7MOL   C311 3683   6.650   3.432   1.977 -0.2689  0.4264 -0.7185
    7MOL   O312 3684   6.714   3.318   1.928 -0.4487 -0.4549 -0.7520
    7MOL   C313 3685   6.724   3.505   2.089 -0.5215  0.1973 -0.3399
    7MOL   C314 3686   6.645   3.595   2.170 -1.1073 -0.4496 -0.4508
    7MOL   C315 3687   6.700   3.677   2.271 -0.6768  0.5551 -0.6665
    7MOL   C316 3688   6.628   3.773   2.338 -0.0433  0.7184  0.1038
    7MOL   C317 3689   6.691   3.856   2.431 -0.2059  0.1949  0.1864
    7MOL   C318 3690   6.827   3.844   2.463 -0.3749 -0.0088  0.3199
    7MOL   C319 3691   6.898   3.936   2.563  0.3922 -0.1835 -0.0812
    7MOL   O320 3692   6.811   4.025   2.617  0.0314  0.1667  0.4082
    7MOL   C321 3693   6.845   4.105   2.728 -0.4566 -0.5205 -0.1707
    7MOL   C322 3694   6.878   4.014   2.856  0.2566  0.0265 -0.8382
    7MOL   O323 3695   7.020   3.928   2.585 -0.5637 -0.0149 -0.3016
    7MOL   C324 3696   6.904   3.742   2.397 -0.5665 -0.4762  0.6355
    7MOL   C325 3697   6.837   3.655   2.304  0.3844 -0.8295 -0.3728
    7MOL   C326 3698   6.912   3.555   2.237  0.4165  0.3245  0.0290
    7MOL   C327 3699   6.857   3.483   2.129 -0.1834  0.5290  0.4919
    7MOL   H328 3700   6.543   3.609   2.136 -1.1054 -0.5509 -0.4987
    7MOL   H329 3701   6.524   3.783   2.309 -0.2057 -2.8578 -0.6802
    7MOL   H330 3702   6.632   3.928   2.485  0.2810 -0.0092  0.9948
    7MOL   H331 3703   6.757   4.168   2.744 -0.8967 -1.4830  1.3405
    7MOL   H332 3704   6.936   4.165   2.731 -0.7114  0.0692 -2.7458
    7MOL   H333 3705   6.976   3.967   2.844  0.2642 -0.0667 -0.4473
    7MOL   H334 3706   6.898   4.073   2.945 -2.0045 -0.4480  0.0132
    7MOL   H335 3707   7.009   3.734   2.417 -0.3204  0.9192 -0.0708
    7MOL   H336 3708   7.011   3.540   2.277  0.0692  0.7887  1.0644
    7MOL   H337 3709   6.911   3.413   2.066 -0.5836  1.3244 -0.7606
    7MOL   O338 3710   6.860   3.813   3.029  0.9001  0.0574 -0.4395
    7MOL   C339 3711   6.768   3.835   2.957 -0.4912  0.5348 -0.8119
    7MOL   O340 3712   6.766   3.937   2.865  0.1512 -0.1951  0.3880
    7MOL   C341 3713   6.643   3.749   2.949 -0.1750 -0.0513 -0.3577
    7MOL   C342 3714   6.550   3.771   2.847 -0.0041  0.9085  0.5977
    7MOL   C343 3715   6.420   3.704   2.846 -0.7924 -0.2940 -0.2962
    7MOL   C344 3716   6.330   3.722   2.738 -0.3794  0.0028  0.8190
    7MOL   C345 3717   6.211   3.658   2.738 -0.0597 -0.8095 -0.0303
    7MOL   C346 3718   6.181   3.566   2.840 -0.4213  0.2580  0.6565
    7MOL   C347 3719   6.052   3.491   2.847  0.2987 -0.3673 -0.0798
    7MOL   O348 3720   5.974   3.506   2.735  0.0925  0.1150  0.7088
    7MOL   C349 3721   5.857   3.430   2.712  0.3372  0.4276 -0.0009
    7MOL   C350 3722   5.888   3.286   2.665 -0.1237 -0.0546  0.0618
    7MOL   O351 3723   6.011   3.422   2.943 -0.5758 -0.1800 -0.1144
    7MOL   C352 3724   6.274   3.543   2.946  0.2509  0.4856 -1.1121
    7MOL   C353 3725   6.395   3.607   2.949 -0.7528  0.2665  0.1482
    7MOL   C354 3726   6.486   3.583   3.048 -0.4003  0.3340  0.0278
    7MOL   C355 3727   6.609   3.648   3.050 -0.2928  0.6236 -0.2270
    7MOL   H356 3728   6.576   3.836   2.764  0.8209  2.3295  1.9460
    7MOL   H357 3729   6.346   3.793   2.659  0.6085 -0.0379  0.9811
    7MOL   H358 3730   6.140   3.675   2.659 -0.2291 -2.2182 -0.1992
    7MOL   H359 3731   5.811   3.486   2.631  0.0224  1.4744  0.8939
    7MOL   H360 3732   5.792   3.431   2.800  0.9271  2.2915  0.4340
    7MOL   H361 3733   5.804   3.238   2.614 -0.5348  0.4627  0.2515
    7MOL   H362 3734   5.957   3.305   2.582 -0.7262  1.4993 -0.0999
    7MOL   H363 3735   6.254   3.473   3.026  0.9450 -0.6342 -1.9037
    7MOL   H364 3736   6.460   3.522   3.133  0.3750  2.8913  2.1640
    7MOL   H365 3737   6.674   3.634   3.134 -1.6155 -0.1567  0.6977
    7MOL   O366 3738   5.772   3.099   2.834 -0.3678  0.2696 -0.6301
    7MOL   C367 3739   5.894   3.110   2.840  0.1588 -0.7238 -0.1401
    7MOL   O368 3740   5.956   3.203   2.763 -0.1617 -0.7305 -0.4602
    7MOL   C369 3741   5.987   3.042   2.931 -0.4571  0.1347 -0.1030
    7MOL   C370 3742   5.937   2.926   2.996  0.1257  0.0121  0.0257
    7MOL   C371 3743   6.019   2.862   3.089 -0.1390 -0.6915 -0.0065
    7MOL   C372 3744   5.973   2.739   3.140  0.2316 -0.2431 -0.4438
    7MOL   C373 3745   6.035   2.685   3.250  0.7721  0.4659  0.6366
    7MOL   C374 3746   6.153   2.741   3.299 -0.0159 -0.9183  0.4900
    7MOL   C375 3747   6.216   2.686   3.421  0.1206  0.4785 -0.5880
    7MOL   O376 3748   6.121   2.654   3.517 -0.5923  0.1332 -0.0921
    7MOL   C377 3749   6.165   2.585   3.638 -0.2331  0.3038  0.5635
    7MOL   C378 3750   6.150   2.681   3.757 -0.0938 -0.1220  0.6537
    7MOL   O379 3751   6.336   2.674   3.439  0.5014 -0.1534  0.2221
    7MOL   C380 3752   6.207   2.858   3.244  0.2984  0.2744  0.2828
    7MOL   C381 3753   6.145   2.918   3.127 -1.0061 -0.5291 -0.0970
    7MOL   C382 3754   6.193   3.034   3.062  0.2532  0.5333 -0.0139
    7MOL   C383 3755   6.119   3.092   2.955  0.1751  0.2616 -0.1516
    7MOL   H384 3756   5.839   2.887   2.971  1.1233 -1.4266 -1.7083
    7MOL   H385 3757   5.873   2.706   3.117 -1.0702  2.6442  0.8600
    7MOL   H386 3758   5.989   2.598   3.294 -0.1899  1.2910  1.2830
    7MOL   H387 3759   6.257   2.528   3.626 -0.3894  0.1908 -0.1168
    7MOL   H388 3760   6.084   2.513   3.651 -2.1221  2.0443 -1.2420
    7MOL   H389 3761   6.046   2.716   3.758 -0.0478  0.1021 -0.8703
    7MOL   H390 3762   6.168   2.627   3.849 -0.0040  1.5156  1.6061
    7MOL   H391 3763   6.307   2.889   3.271 -0.1122  0.9602  1.0343
    7MOL   H392 3764   6.289   3.071   3.095  0.1183 -1.0301  2.2582
    7MOL   H393 3765   6.163   3.176   2.903 -2.4732  0.8015 -1.6128
    7MOL   O394 3766   6.431   2.681   3.831  0.2483  0.4523 -0.2668
    7MOL   C395 3767   6.379   2.773   3.769  0.7627  0.6304  0.4081
    7MOL   O396 3768   6.242   2.788   3.740 -0.0161 -0.1444 -0.6250
    7MOL   C397 3769   6.458   2.885   3.720 -0.0657  0.4866 -0.8235
    7MOL   C398 3770   6.409   2.967   3.617 -0.4660 -0.4612  0.2944
    7MOL   C399 3771   6.492   3.066   3.553 -0.1415  0.1118 -0.8440
    7MOL   C400 3772   6.448   3.140   3.444  0.0023 -0.2494  0.0518
    7MOL   C401 3773   6.532   3.238   3.383 -0.0889  0.4534  1.0154
    7MOL   C402 3774   6.662   3.257   3.436 -0.3460 -0.0541 -0.4572
    7MOL   C403 3775   6.759   3.354   3.382  0.2230  0.3545 -0.3398
    7MOL   O404 3776   6.830   3.405   3.482  0.1943  0.0888  0.0169
    7MOL   C405 3777   6.947   3.478   3.457  0.7919  0.1282 -0.9499
    7MOL   C406 3778   7.066   3.380   3.452  0.9352 -0.9063 -0.1978
    7MOL   O407 3779   6.765   3.388   3.260  0.3395 -0.0820  0.0160
    7MOL   C408 3780   6.704   3.177   3.543  0.2837 -0.0461 -0.1857
    7MOL   C409 3781   6.620   3.082   3.606  0.2215 -0.8142  0.0659
    7MOL   C410 3782   6.671   3.005   3.709  0.0580  0.2216 -0.1415
    7MOL   C411 3783   6.589   2.904   3.766  0.4222 -0.0327  0.3294
    7MOL   H412 3784   6.314   2.945   3.570  0.3576 -0.2347 -1.5247
    7MOL   H413 3785   6.345   3.134   3.413 -0.1362 -3.3781  1.0096
    7MOL   H414 3786   6.503   3.293   3.295  1.7639  0.9520  0.7060
    7MOL   H415 3787   6.953   3.537   3.549 -2.0803  1.5602 -1.6237
    7MOL   H416 3788   6.942   3.540   3.367 -1.0817  1.9391  0.3440
    7MOL   H417 3789   7.063   3.312   3.367  2.8748 -0.4284 -0.6826
    7MOL   H418 3790   7.164   3.428   3.446  1.3023 -1.7957 -1.4327
    7MOL   H419 3791   6.801   3.192   3.588  0.2509 -0.6868  0.0907
    7MOL   H420 3792   6.772   3.021   3.743 -0.4669  2.8827  0.2445
    7MOL   H421 3793   6.631   2.828   3.830 -1.6430 -3.4243 -2.2090
    7MOL   O422 3794   7.118   3.460   3.716 -0.1384 -0.1178 -0.0901
    7MOL   C423 3795   7.089   3.344   3.687  0.1326 -0.3995 -0.0921
    7MOL   O424 3796   7.069   3.297   3.570  0.1550 -0.2415 -0.0192
    7MOL   C425 3797   7.088   3.245   3.796  1.1521 -0.6841  0.2871
    7MOL   C426 3798   7.115   3.284   3.931 -0.3977  1.1149  0.4369
    7MOL   C427 3799   7.120   3.188   4.033 -0.7247 -0.0614  0.5203
    7MOL   C428 3800   7.156   3.241   4.161 -0.6269  0.3103  0.7509
    7MOL   C429 3801   7.159   3.147   4.266 -0.5851  0.4744  0.3650
    7MOL   C430 3802   7.115   3.015   4.249  0.3420 -0.4696 -0.1354
    7MOL   C431 3803   7.108   2.919   4.354  0.6269  0.3020 -0.1166
    7MOL   O432 3804   7.103   2.971   4.482  0.3141  0.0615  0.8165
    7MOL   C433 3805   7.125   2.890   4.596 -0.5818 -0.1008 -0.0432
    7MOL   C434 3806   6.990   2.827   4.656  0.1889  0.7387  0.3594
    7MOL   O435 3807   7.104   2.798   4.338  0.6238 -0.0253 -0.1442
    7MOL   C436 3808   7.085   2.967   4.122  0.0503 -0.4247  0.5654
    7MOL   C437 3809   7.090   3.052   4.009 -0.2475  0.1006  1.0181
    7MOL   C438 3810   7.068   3.011   3.878 -0.5794 -0.2368  0.8544
    7MOL   C439 3811   7.064   3.107   3.772  1.0545 -0.1112 -0.2619
    7MOL   H440 3812   7.147   3.384   3.957  1.9357  0.6492 -0.5508
    7MOL   H441 3813   7.179   3.345   4.176 -0.7219  0.8795 -2.6967
    7MOL   H442 3814   7.187   3.186   4.363 -1.9877  3.0945 -0.2450
    7MOL   H443 3815   7.167   2.948   4.677  1.0369 -1.1841 -0.0746
    7MOL   H444 3816   7.198   2.814   4.566  2.9957  2.2399  2.3724
    7MOL   H445 3817   7.003   2.779   4.754 -1.8967  1.4829  1.0262
    7MOL   H446 3818   6.919   2.906   4.678  2.4401  2.4530  1.7068
    7MOL   H447 3819   7.048   2.866   4.110 -0.7060 -0.2743  1.5530
    7MOL   H448 3820   7.045   2.907   3.861  1.1897 -0.6559  0.8758
    7MOL   H449 3821   7.034   3.085   3.671 -0.6869  0.5727  0.0903
    7MOL   O450 3822   7.009   2.557   4.656 -0.1736 -0.0539  0.0563
    7MOL   C451 3823   6.947   2.614   4.565  0.0155 -0.6051 -0.2201
    7MOL   O452 3824   6.922   2.740   4.564 -0.5271 -0.5565 -0.3837
    7MOL   C453 3825   6.888   2.548   4.446 -0.0017 -1.0442 -0.2564
    7MOL   C454 3826   6.853   2.617   4.327  0.2720 -0.3812 -0.3766
    7MOL   C455 3827   6.816   2.556   4.208  0.1964 -0.1473  0.0001
    7MOL   C456 3828   6.792   2.634   4.094  0.2391 -0.1553 -0.1470
    7MOL   C457 3829   6.760   2.576   3.967  0.3528  0.1193 -0.3142
    7MOL   C458 3830   6.746   2.434   3.961  0.1699 -0.1660 -0.6239
    7MOL   C459 3831   6.718   2.365   3.837  0.1107  0.0720 -0.8168
    7MOL   O460 3832   6.703   2.450   3.733 -0.4575 -0.6629  0.6099
    7MOL   C461 3833   6.665   2.399   3.607 -0.2917 -0.1175 -0.1504
    7MOL   C462 3834   6.513   2.423   3.579  0.6506 -0.4457 -0.2778
    7MOL   O463 3835   6.688   2.243   3.825  0.4927 -0.6164  0.1681
    7MOL   C464 3836   6.772   2.358   4.079  0.7927 -1.3199  0.5610
    7MOL   C465 3837   6.810   2.413   4.203  0.8286 -0.7188 -0.1605
    7MOL   C466 3838   6.844   2.342   4.315  0.8841  0.2456  0.3608
    7MOL   C467 3839   6.882   2.403   4.439 -0.1996 -0.4200  0.0167
    7MOL   H468 3840   6.863   2.725   4.336 -1.0903 -0.2092 -0.6937
    7MOL   H469 3841   6.803   2.741   4.105 -2.0066  0.1673 -0.8021
    7MOL   H470 3842   6.735   2.636   3.881 -2.1999 -1.6747 -0.9018
    7MOL   H471 3843   6.693   2.295   3.592  0.0637 -0.3684  2.1131
    7MOL   H472 3844   6.714   2.461   3.533  0.9401  3.0814  3.2122
    7MOL   H473 3845   6.442   2.374   3.647  0.4036  1.9453  1.2683
    7MOL   H474 3846   6.495   2.530   3.575  0.2001 -0.5091 -0.0473
    7MOL   H475 3847   6.753   2.251   4.077  0.6131 -1.2829 -0.0078
    7MOL   H476 3848   6.842   2.235   4.306  1.7599  0.3623 -1.2302
    7MOL   H477 3849   6.889   2.336   4.523 -0.6846  2.8945  2.8503
    7MOL   O478 3850   6.277   2.342   3.459  0.1396 -0.5964 -0.5733
    7MOL   C479 3851   6.385   2.312   3.413  0.3258 -0.1895 -0.4319
    7MOL   O480 3852   6.497   2.348   3.458  0.1863 -0.1320  0.1135
    7MOL   C481 3853   6.402   2.229   3.295 -0.7386 -0.3344 -0.0371
    7MOL   C482 3854   6.517   2.149   3.275 -0.3720 -0.6278 -0.0431
    7MOL   C483 3855   6.539   2.068   3.163  0.1938 -0.0222 -1.0707
    7MOL   C484 3856   6.654   1.991   3.156 -0.3147  0.4453  0.1246
    7MOL   C485 3857   6.669   1.906   3.045 -0.3479  0.6623 -0.6061
    7MOL   C486 3858   6.566   1.893   2.947 -0.4115  0.0987  0.2492
    7MOL   C487 3859   6.571   1.801   2.831  0.1214  0.0429  0.0930
    7MOL   O488 3860   6.637   1.681   2.854  0.2943 -0.0674  0.3901
    7MOL   C489 3861   6.611   1.570   2.769 -0.5703  0.1445  0.0676
    7MOL   C490 3862   6.707   1.561   2.656 -0.9640 -0.8196  0.5227
    7MOL   O491 3863   6.509   1.820   2.725  0.4542 -0.8156 -0.3512
    7MOL   C492 3864   6.452   1.977   2.959  0.0485  0.0743 -0.0246
    7MOL   C493 3865   6.438   2.062   3.068  0.8981  0.1557  0.6083
    7MOL   C494 3866   6.315   2.141   3.084 -0.2464 -0.5109 -0.4244
    7MOL   C495 3867   6.297   2.223   3.200  0.4895  0.3044  0.5545
    7MOL   H496 3868   6.591   2.160   3.353 -1.6146 -0.1363  1.0966
    7MOL   H497 3869   6.736   1.989   3.226 -0.5730 -0.5770  0.4064
    7MOL   H498 3870   6.751   1.837   3.043  1.0879  2.2389  1.6764
    7MOL   H499 3871   6.511   1.579   2.729 -0.0203  2.1619 -0.9451
    7MOL   H500 3872   6.610   1.474   2.820 -0.2939  0.1065  0.0059
    7MOL   H501 3873   6.696   1.649   2.593 -2.1607 -1.2419  0.1219
    7MOL   H502 3874   6.810   1.562   2.693 -0.5931  1.4621 -0.5332
    7MOL   H503 3875   6.369   1.961   2.892  0.0507  0.7809 -0.1934
    7MOL   H504 3876   6.244   2.126   3.004 -0.5980 -1.8883  0.1175
    7MOL   H505 3877   6.205   2.279   3.208  0.6706  0.8554 -1.0522
    7MOL   O506 3878   6.517   1.566   2.463  0.1889  0.2662  0.9020
    7MOL   C507 3879   6.579   1.460   2.483  0.0573 -0.4501 -0.0178
    7MOL   O508 3880   6.675   1.451   2.570 -0.6839 -0.2220 -0.7680
    7MOL   C509 3881   6.542   1.331   2.419  0.8312  0.3632 -0.4977
    7MOL   C510 3882   6.416   1.321   2.358 -0.6949 -0.1775 -0.3228
    7MOL   C511 3883   6.378   1.198   2.302 -0.1641  0.6390  0.3805
    7MOL   C512 3884   6.240   1.188   2.244 -0.2825 -0.2293  0.4271
    7MOL   C513 3885   6.198   1.065   2.202 -1.0226  0.3563  0.1917
    7MOL   C514 3886   6.279   0.945   2.215 -0.1417 -0.3009 -0.0857
    7MOL   C515 3887   6.229   0.809   2.193 -0.1120 -0.3135 -0.2266
    7MOL   O516 3888   6.138   0.809   2.095  0.1971  0.4117  0.2575
    7MOL   C517 3889   6.075   0.690   2.062 -0.4758  0.5096  0.5416
    7MOL   C518 3890   6.152   0.596   1.970  0.3471  0.2341  0.2734
    7MOL   O519 3891   6.263   0.714   2.260 -0.2330  0.3163  0.0414
    7MOL   C520 3892   6.407   0.953   2.275 -0.8728 -0.1545  0.0994
    7MOL   C521 3893   6.457   1.079   2.314  0.2008 -0.0796  0.3592
    7MOL   C522 3894   6.583   1.097   2.371 -0.9411 -0.0476  0.7944
    7MOL   C523 3895   6.635   1.225   2.413  0.0336 -0.3584 -0.2807
    7MOL   H524 3896   6.351   1.407   2.351  2.2739  2.1422 -0.0082
    7MOL   H525 3897   6.177   1.273   2.225 -1.7350 -1.3710  0.0236
    7MOL   H526 3898   6.104   1.059   2.150  0.7310  0.4814 -3.1531
    7MOL   H527 3899   5.983   0.728   2.017 -1.1723 -1.4196  0.2638
    7MOL   H528 3900   6.037   0.643   2.153  0.4851 -0.4995  0.4261
    7MOL   H529 3901   6.086   0.546   1.900  0.1591 -2.5331  2.3323
    7MOL   H530 3902   6.222   0.652   1.908 -0.0747  1.8003  1.2126
    7MOL   H531 3903   6.460   0.863   2.302 -0.1738  0.6015  1.2983
    7MOL   H532 3904   6.647   1.010   2.378 -1.3020 -0.8106 -3.5601
    7MOL   H533 3905   6.738   1.234   2.443 -0.7596  1.1006  2.1239
    7MOL   O534 3906   6.413   0.486   1.937 -0.0819  0.3164 -0.3635
    7MOL   C535 3907   6.357   0.474   2.047  0.5589 -0.1371  0.1685
    7MOL   O536 3908   6.223   0.505   2.064  0.5169  0.3178 -0.0750
    7MOL   C537 3909   6.421   0.407   2.166 -0.4741  0.0999  0.3540
    7MOL   C538 3910   6.553   0.365   2.161  0.3668 -0.4274  0.1377
    7MOL   C539 3911   6.623   0.310   2.275  0.6376  0.1703 -0.2028
    7MOL   C540 3912   6.759   0.267   2.259 -0.5040  0.6640 -0.2870
    7MOL   C541 3913   6.833   0.217   2.368 -1.0317  0.5572  0.7786
    7MOL   C542 3914   6.771   0.220   2.495  0.1352  0.2192 -0.0371
    7MOL   C543 3915   6.840   0.163   2.617  1.5299 -0.5225 -0.6565
    7MOL   O544 3916   6.750   0.123   2.712  0.0442  0.1520  0.0521
    7MOL   C545 3917   6.806   0.056   2.829  0.5379  0.0485  0.1271
    7MOL   C546 3918   6.790   8.152   2.826 -0.4174 -0.0079 -0.1115
    7MOL   O547 3919   6.961   0.140   2.620  0.0640 -0.1552 -0.1726
    7MOL   C548 3920   6.636   0.260   2.507 -0.0483  0.4312 -0.6144
    7MOL   C549 3921   6.562   0.303   2.399  1.0435 -0.2616  0.0448
    7MOL   C550 3922   6.423   0.336   2.409  0.4224  0.3367 -0.1164
    7MOL   C551 3923   6.355   0.388   2.292 -0.2037 -0.0188  0.7516
    7MOL   H552 3924   6.610   0.380   2.071  2.0382 -1.3925  1.0093
    7MOL   H553 3925   6.796   0.275   2.159 -0.3777 -2.7065 -0.5749
    7MOL   H554 3926   6.938   0.191   2.361 -1.3282 -0.2893 -0.6776
    7MOL   H555 3927   6.749   0.094   2.914 -1.1363  0.8750 -1.3210
    7MOL   H556 3928   6.905   0.087   2.861  0.5840 -0.9869  1.0032
    7MOL   H557 3929   6.842   8.109   2.911  0.1906  0.5846 -0.1853
    7MOL   H558 3930   6.838   8.114   2.736 -0.2566 -1.6585  0.6576
    7MOL   H559 3931   6.583   0.258   2.601 -0.7064 -0.4310 -0.9932
    7MOL   H560 3932   6.382   0.316   2.507  0.8337 -0.2737 -0.0631
    7MOL   H561 3933   6.249   0.412   2.286  0.2800  2.1213  0.2239
    7MOL   H562 3934   6.685   8.125   2.841  0.3977 -2.3091  1.6767
    8MOL     O1 3935   6.096   1.768   7.528  0.8882  0.8262  0.5356
    8MOL     C2 3936   6.007   1.748   7.444  0.2306  0.4666 -0.6037
    8MOL     O3 3937   5.886   1.799   7.460 -0.2643  0.3529 -0.3955
    8MOL     C4 3938   6.030   1.666   7.319 -0.2965 -0.2533 -0.5499
    8MOL     C5 3939   5.936   1.661   7.212 -0.2583 -0.3673 -0.1693
    8MOL     C6 3940   5.963   1.588   7.096  0.3825  0.1040  0.0038
    8MOL     C7 3941   5.873   1.591   6.984 -0.1555  0.2876 -0.3040
    8MOL     C8 3942   5.913   1.535   6.858  0.4526  0.4492  0.3344
    8MOL     C9 3943   6.035   1.459   6.848  0.3130 -0.0138  1.0089
    8MOL    C10 3944   6.068   1.376   6.724  0.0869  0.7393  0.1231
    8MOL    O11 3945   6.190   1.328   6.729 -0.0594  0.4289  0.0780
    8MOL    C12 3946   6.260   1.281   6.611 -0.1570 -0.9378  0.8895
    8MOL    C13 3947   6.244   1.134   6.576 -0.0762  0.1251 -0.5528
    8MOL    O14 3948   5.992   1.369   6.624  0.1269 -0.0332 -0.1280
    8MOL    C15 3949   6.120   1.456   6.959 -0.2997 -0.2036  0.0966
    8MOL    C16 3950   6.085   1.516   7.081 -0.7089 -0.0042  0.0160
    8MOL    C17 3951   6.179   1.517   7.190  0.0494 -0.5163 -0.9228
    8MOL    C18 3952   6.151   1.596   7.304 -0.0588  0.6591 -0.3863
    8MOL    H19 3953   5.843   1.715   7.218  0.9292  1.7860 -0.9047
    8MOL    H20 3954   5.778   1.641   6.996  0.3225  0.7641  1.7423
    8MOL    H21 3955   5.853   1.538   6.768  0.2982  1.0179  0.4569
    8MOL    H22 3956   6.222   1.340   6.527  0.0350  0.0057  1.4510
    8MOL    H23 3957   6.364   1.309   6.623 -1.2719  3.6681  0.9294
    8MOL    H24 3958   6.269   1.081   6.668  0.5177 -2.6150 -2.2603
    8MOL    H25 3959   6.136   1.135   6.557  0.0351  1.2754 -1.2248
    8MOL    H26 3960   6.212   1.400   6.947 -0.8908 -0.6475 -2.8318
    8MOL    H27 3961   6.272   1.463   7.180 -0.3234 -1.9429  2.5765
    8MOL    H28 3962   6.223   1.602   7.385 -0.1391  0.0160 -0.2653
    8MOL    H29 3963   5.873   1.853   7.536 -2.5208  1.4852 -1.5597
    8MOL    O30 3964   6.512   1.089   6.575 -0.4511 -0.1511 -0.4012
    8MOL    C31 3965   6.454   1.068   6.467  0.1929  0.0002 -0.4987
    8MOL    O32 3966   6.318   1.093   6.464  0.1110 -0.1817 -0.4094
    8MOL    C33 3967   6.511   1.024   6.342 -0.0337 -0.2820 -0.3884
    8MOL    C34 3968   6.643   0.981   6.344  0.0503  0.1257  0.2360
    8MOL    C35 3969   6.709   0.933   6.226  0.5140  0.0862  0.6999
    8MOL    C36 3970   6.839   0.887   6.229  0.4424  0.0468 -0.0963
    8MOL    C37 3971   6.900   0.835   6.112  0.0045 -0.8463 -0.2647
    8MOL    C38 3972   6.827   0.821   5.993  0.0199  0.0289  0.3207
    8MOL    C39 3973   6.887   0.781   5.861 -0.7760 -0.4362 -0.2086
    8MOL    O40 3974   7.001   0.723   5.871  0.4257 -0.1524  0.0784
    8MOL    C41 3975   7.078   0.697   5.762 -0.2035 -0.1499  0.0014
    8MOL    C42 3976   7.222   0.647   5.802 -0.7394 -0.3255  0.6045
    8MOL    O43 3977   6.826   0.793   5.756  0.1711  0.6430  0.1942
    8MOL    C44 3978   6.692   0.855   5.998 -0.1733 -0.0969 -0.1169
    8MOL    C45 3979   6.628   0.921   6.112  0.0762  0.2781 -0.2181
    8MOL    C46 3980   6.493   0.960   6.103 -0.3821 -0.6057  0.0345
    8MOL    C47 3981   6.435   1.010   6.225 -0.3325 -0.4979  0.2042
    8MOL    H48 3982   6.705   0.988   6.433  0.4495  1.8410 -0.1652
    8MOL    H49 3983   6.889   0.901   6.324 -0.7128  0.8927  0.4076
    8MOL    H50 3984   7.002   0.801   6.123 -0.6260 -1.8330  3.2538
    8MOL    H51 3985   7.073   0.785   5.698  0.3612 -0.1723 -0.0779
    8MOL    H52 3986   7.039   0.618   5.698  0.7999 -2.2153  1.8578
    8MOL    H53 3987   7.262   0.710   5.882  0.6633 -0.6456  0.1573
    8MOL    H54 3988   7.228   0.542   5.832  3.8101 -1.2828 -3.1694
    8MOL    H55 3989   6.630   0.859   5.910  0.4566 -0.9108 -0.6037
    8MOL    H56 3990   6.437   0.955   6.011  0.7492  1.5359 -0.8192
    8MOL    H57 3991   6.330   1.033   6.227 -0.4574 -1.0615  0.3193
    8MOL    O58 3992   7.222   0.477   5.583 -0.1738  0.3639 -0.0282
    8MOL    C59 3993   7.290   0.580   5.581  0.0638  0.5036  0.4708
    8MOL    O60 3994   7.299   0.659   5.685  0.6771 -0.0923  0.4416
    8MOL    C61 3995   7.371   0.633   5.471 -0.0893 -0.3185 -0.2906
    8MOL    C62 3996   7.379   0.560   5.353  0.0032 -0.4944 -1.4157
    8MOL    C63 3997   7.466   0.598   5.251  0.2495  0.5172 -0.4953
    8MOL    C64 3998   7.470   0.510   5.138 -0.3030  0.0996  0.4763
    8MOL    C65 3999   7.561   0.532   5.032 -0.0426  0.7369  0.3863
    8MOL    C66 4000   7.630   0.651   5.029  0.1924  0.5875  0.2308
    8MOL    C67 4001   7.730   0.675   4.917 -0.0126  0.2861  0.1962
    8MOL    O68 4002   7.698   0.597   4.808  0.1419 -0.0761 -0.1906
    8MOL    C69 4003   7.760   0.608   4.679  0.3620 -0.0297 -0.9540
    8MOL    C70 4004   7.748   0.746   4.615  0.3780  0.1699  1.3590
    8MOL    O71 4005   7.830   0.747   4.921 -0.1363  0.1022 -0.1301
    8MOL    C72 4006   7.639   0.729   5.144  0.2359 -0.3025  0.5791
    8MOL    C73 4007   7.554   0.710   5.257  0.9039 -0.2993 -1.1425
    8MOL    C74 4008   7.532   0.791   5.373  0.4109 -0.4246  0.0184
    8MOL    C75 4009   7.440   0.757   5.479  0.2582 -0.2725  0.5563
    8MOL    H76 4010   7.327   0.465   5.349  0.9909 -1.2408  1.7652
    8MOL    H77 4011   7.396   0.431   5.132 -1.3506  1.0371  0.9511
    8MOL    H78 4012   7.586   0.464   4.952  0.1758  0.0407  1.0491
    8MOL    H79 4013   7.712   0.529   4.622 -3.3149  1.4404 -0.0658
    8MOL    H80 4014   7.864   0.580   4.692  0.3299  1.1767  2.4428
    8MOL    H81 4015   7.719   0.828   4.680 -1.8002 -0.2377  0.9714
    8MOL    H82 4016   7.846   0.766   4.571  0.0288  0.5949  0.7651
    8MOL    H83 4017   7.712   0.808   5.135  0.4721 -0.9131 -3.7525
    8MOL    H84 4018   7.583   0.886   5.383 -0.7097  0.1305  0.4642
    8MOL    H85 4019   7.427   0.811   5.571 -1.8848  1.6114 -0.8098
    8MOL    O86 4020   7.476   0.780   4.636  0.4280 -0.2454 -0.6448
    8MOL    C87 4021   7.522   0.754   4.523  0.0829 -0.5555 -0.3667
    8MOL    O88 4022   7.654   0.742   4.504  0.3985 -0.0000 -0.0898
    8MOL    C89 4023   7.443   0.715   4.408  0.2114  0.2300  0.0377
    8MOL    C90 4024   7.501   0.682   4.288 -0.3275  0.6282  0.1551
    8MOL    C91 4025   7.426   0.657   4.176  0.7746  0.7198 -0.1588
    8MOL    C92 4026   7.491   0.627   4.059 -0.0834 -0.2799  0.1335
    8MOL    C93 4027   7.418   0.605   3.941 -0.0589  0.9053 -0.3292
    8MOL    C94 4028   7.279   0.637   3.938  0.9040  0.2743  0.3536
    8MOL    C95 4029   7.200   0.650   3.813 -0.6499  0.1987  0.2413
    8MOL    O96 4030   7.254   0.597   3.708 -0.3441  0.5138  0.3112
    8MOL    C97 4031   7.192   0.616   3.580 -0.5033  0.0026 -0.1504
    8MOL    C98 4032   7.078   0.515   3.560  0.0745  0.6673 -0.3268
    8MOL    O99 4033   7.091   0.708   3.812  0.4168 -0.3050  0.2180
    8MOL   C100 4034   7.210   0.658   4.060 -0.3001 -0.6512 -0.2556
    8MOL   C101 4035   7.290   0.674   4.172 -0.9888 -0.1049  0.1383
    8MOL   C102 4036   7.225   0.699   4.295 -0.3092 -0.5632 -1.0172
    8MOL   C103 4037   7.298   0.710   4.414 -0.0641 -0.7728  1.3609
    8MOL   H104 4038   7.608   0.682   4.278 -0.4158  0.2675 -0.8031
    8MOL   H105 4039   7.598   0.617   4.070  0.2519  3.1872  0.7419
    8MOL   H106 4040   7.469   0.569   3.853 -0.5996 -0.5619 -0.0687
    8MOL   H107 4041   7.262   0.609   3.497 -0.5027 -0.1575 -0.1370
    8MOL   H108 4042   7.162   0.720   3.572  2.4323  0.9422  0.3232
    8MOL   H109 4043   7.093   0.426   3.621 -1.4495  1.1230  0.7499
    8MOL   H110 4044   6.987   0.554   3.605  0.1973  0.3167  0.2365
    8MOL   H111 4045   7.103   0.670   4.064 -0.1638  0.5005  0.1519
    8MOL   H112 4046   7.117   0.697   4.299 -0.2414 -2.0893  0.5700
    8MOL   H113 4047   7.242   0.732   4.504 -0.4253  1.4497  0.6110
    8MOL   O114 4048   6.954   0.710   3.399 -0.0767  0.4077  0.1621
    8MOL   C115 4049   6.986   0.599   3.354  0.1429 -0.2402 -0.8234
    8MOL   O116 4050   7.051   0.499   3.424 -0.1367 -0.2653 -0.3056
    8MOL   C117 4051   6.954   0.567   3.216 -0.3703  0.2178  0.9897
    8MOL   C118 4052   6.888   0.663   3.131 -0.1890 -0.6691  0.5492
    8MOL   C119 4053   6.869   0.636   2.994  0.1630 -0.4681 -0.3868
    8MOL   C120 4054   6.801   0.728   2.910  0.3348 -0.4378 -0.3582
    8MOL   C121 4055   6.800   0.711   2.770  0.0132  0.6085  0.3882
    8MOL   C122 4056   6.864   0.599   2.707  0.2165  0.7314 -0.6213
    8MOL   C123 4057   6.880   0.598   2.562  0.0840 -0.5850 -0.3524
    8MOL   O124 4058   6.946   0.489   2.508  0.5543  0.2450  0.3995
    8MOL   C125 4059   7.028   0.496   2.395 -0.1614  0.3951 -0.2110
    8MOL   C126 4060   7.169   0.467   2.454  0.7037  0.0735 -0.2595
    8MOL   O127 4061   6.876   0.701   2.495 -0.7387 -0.1585 -0.0900
    8MOL   C128 4062   6.924   0.504   2.795 -0.7115 -0.6862 -0.5803
    8MOL   C129 4063   6.925   0.519   2.937 -0.6041  0.1310  0.0801
    8MOL   C130 4064   7.003   0.430   3.017 -0.0158  0.2958 -1.1735
    8MOL   C131 4065   7.011   0.452   3.156  0.1924 -0.0824  0.5437
    8MOL   H132 4066   6.839   0.746   3.180 -0.6929 -0.6354 -0.0049
    8MOL   H133 4067   6.749   0.814   2.951  1.8645 -0.3400  1.4352
    8MOL   H134 4068   6.746   0.773   2.701 -0.5172  1.1520  1.2863
    8MOL   H135 4069   7.031   0.593   2.345 -0.7217  0.7311  0.4104
    8MOL   H136 4070   7.007   0.419   2.320 -0.5445 -0.7545  1.0685
    8MOL   H137 4071   7.169   0.384   2.525  1.1093 -0.8129 -1.2664
    8MOL   H138 4072   7.249   0.451   2.381 -0.8072  1.2224 -2.1912
    8MOL   H139 4073   6.973   0.419   2.750  1.7997  0.7906 -0.7350
    8MOL   H140 4074   7.052   0.340   2.984 -1.1621 -0.6517 -0.3627
    8MOL   H141 4075   7.068   0.380   3.212  2.2475  0.7762 -0.3819
    8MOL   O142 4076   7.389   0.497   2.621  0.1450  0.2869 -0.2719
    8MOL   C143 4077   7.306   0.585   2.608  0.0404  0.1035  0.1548
    8MOL   O144 4078   7.201   0.577   2.534  0.0771 -0.0133 -0.0194
    8MOL   C145 4079   7.314   0.718   2.675 -0.8159  0.1961  0.3032
    8MOL   C146 4080   7.193   0.765   2.735 -0.2061  0.6636  1.1558
    8MOL   C147 4081   7.197   0.891   2.802 -0.5136 -0.1065  0.5453
    8MOL   C148 4082   7.088   0.946   2.865  0.5804 -0.3689 -0.2092
    8MOL   C149 4083   7.093   1.058   2.956 -0.4928  0.7203 -0.0512
    8MOL   C150 4084   7.216   1.125   2.955 -0.0093 -0.2211 -0.2053
    8MOL   C151 4085   7.217   1.255   3.022 -0.3879 -0.0324 -0.1297
    8MOL   O152 4086   7.345   1.282   3.048  0.2155  0.1775  0.4400
    8MOL   C153 4087   7.373   1.401   3.124  0.1762  0.2062 -0.3758
    8MOL   C154 4088   7.415   1.525   3.039 -0.0560  0.6739 -0.6747
    8MOL   O155 4089   7.119   1.325   3.054  0.2397  0.0287  0.5518
    8MOL   C156 4090   7.334   1.072   2.894  0.1469  0.0272 -0.3192
    8MOL   C157 4091   7.320   0.961   2.817  0.1510 -0.1669 -0.3091
    8MOL   C158 4092   7.439   0.913   2.752  0.1538  0.0494  0.3555
    8MOL   C159 4093   7.438   0.789   2.687  1.2944  0.2953  0.2114
    8MOL   H160 4094   7.101   0.713   2.715 -1.5623  3.0239  1.1610
    8MOL   H161 4095   6.994   0.893   2.854  0.4258 -0.3252  0.8599
    8MOL   H162 4096   7.004   1.089   3.006  0.7007  1.0616  1.9101
    8MOL   H163 4097   7.452   1.388   3.198 -1.8383  0.6879  1.9332
    8MOL   H164 4098   7.286   1.432   3.182 -0.4642 -0.2059 -1.1054
    8MOL   H165 4099   7.459   1.601   3.103  2.9145  0.6943 -2.6459
    8MOL   H166 4100   7.487   1.479   2.971  1.7040 -0.0550  1.6053
    8MOL   H167 4101   7.429   1.122   2.908 -0.7952  1.5162  1.0455
    8MOL   H168 4102   7.533   0.966   2.751  1.3281 -1.8926 -3.3410
    8MOL   H169 4103   7.529   0.744   2.649  2.2744  0.0077  2.8212
    8MOL   O170 4104   7.262   1.743   3.118 -0.5059 -0.7049  0.0687
    8MOL   C171 4105   7.241   1.689   3.011  0.0040  0.6760 -0.3996
    8MOL   O172 4106   7.310   1.585   2.962 -0.0770  0.0535 -0.2104
    8MOL   C173 4107   7.139   1.744   2.909  0.2614  0.2530  0.0006
    8MOL   C174 4108   7.082   1.870   2.934 -0.7045  0.0249  0.3787
    8MOL   C175 4109   6.984   1.915   2.842 -0.1349  0.0158  0.8075
    8MOL   C176 4110   6.926   2.039   2.870 -0.2860  0.0296 -0.1682
    8MOL   C177 4111   6.838   2.095   2.773 -0.2529 -0.3579  1.3271
    8MOL   C178 4112   6.795   2.022   2.654  0.5691 -0.1873 -0.9822
    8MOL   C179 4113   6.696   2.068   2.563 -0.1699 -0.0323  1.0114
    8MOL   O180 4114   6.705   2.201   2.538 -0.1984 -0.0001 -0.3050
    8MOL   C181 4115   6.638   2.265   2.434 -0.2678 -0.3073 -0.6532
    8MOL   C182 4116   6.510   2.330   2.501  0.4548  0.6723 -0.0004
    8MOL   O183 4117   6.622   1.995   2.499  0.2975  0.0257  0.1477
    8MOL   C184 4118   6.849   1.893   2.638  0.7630  0.8472 -0.5364
    8MOL   C185 4119   6.950   1.847   2.728  0.2030  0.0433  0.2636
    8MOL   C186 4120   7.022   1.725   2.704 -0.1859 -0.1014 -0.0264
    8MOL   C187 4121   7.112   1.672   2.792 -0.8286  0.3354 -0.5456
    8MOL   H188 4122   7.104   1.922   3.026  1.6597  1.4696 -0.9414
    8MOL   H189 4123   6.958   2.100   2.953  0.1177  1.8999 -1.6522
    8MOL   H190 4124   6.799   2.193   2.796  1.5140  0.9800 -1.1248
    8MOL   H191 4125   6.606   2.189   2.363 -0.0465  0.1490 -1.2463
    8MOL   H192 4126   6.703   2.335   2.383  2.2781 -1.2925  1.1476
    8MOL   H193 4127   6.423   2.270   2.474  1.7427  0.2580 -3.5997
    8MOL   H194 4128   6.524   2.326   2.609  0.2854 -0.4390 -0.0160
    8MOL   H195 4129   6.820   1.827   2.557 -1.1204  1.5685 -0.4613
    8MOL   H196 4130   6.993   1.666   2.618 -0.0964 -1.1322  0.6359
    8MOL   H197 4131   7.165   1.581   2.766 -2.1539  0.3224 -3.3783
    8MOL   O198 4132   6.433   2.422   2.247  0.1456 -0.6220  0.3127
    8MOL   C199 4133   6.450   2.499   2.336 -0.0977 -0.5435 -0.8290
    8MOL   O200 4134   6.501   2.465   2.463  0.4312  0.0798  0.5520
    8MOL   C201 4135   6.431   2.643   2.318 -0.8975 -0.1043  0.2655
    8MOL   C202 4136   6.365   2.693   2.197  0.0205 -0.6295  0.5368
    8MOL   C203 4137   6.354   2.835   2.186 -0.6039  0.4236  0.0787
    8MOL   C204 4138   6.302   2.889   2.068  0.0983  0.0637 -1.0529
    8MOL   C205 4139   6.292   3.032   2.053  0.0030 -0.2098 -0.4263
    8MOL   C206 4140   6.336   3.116   2.153  0.0596  0.0506  0.1704
    8MOL   C207 4141   6.310   3.260   2.131 -0.3179 -0.1467  0.0773
    8MOL   O208 4142   6.334   3.325   2.249  0.4907 -0.1025  0.2160
    8MOL   C209 4143   6.364   3.458   2.255 -0.3267 -0.0166  0.2786
    8MOL   C210 4144   6.307   3.526   2.379 -0.0219 -0.7015  0.4686
    8MOL   O211 4145   6.273   3.308   2.023 -0.4032  0.1389 -0.6633
    8MOL   C212 4146   6.385   3.061   2.270  0.3645 -0.8337  0.4432
    8MOL   C213 4147   6.396   2.920   2.291 -0.2864 -0.0585 -0.3367
    8MOL   C214 4148   6.454   2.868   2.409  0.1824  0.7508  0.1063
    8MOL   C215 4149   6.477   2.733   2.416 -0.3243 -0.0734 -0.6932
    8MOL   H216 4150   6.338   2.621   2.122  0.9253 -0.1777 -0.2274
    8MOL   H217 4151   6.276   2.833   1.979  1.1214 -0.4617 -1.0258
    8MOL   H218 4152   6.257   3.071   1.958  2.2606  0.6280 -0.9441
    8MOL   H219 4153   6.332   3.509   2.164  1.6419 -1.6857 -1.4081
    8MOL   H220 4154   6.473   3.460   2.253 -0.3057 -1.0270 -0.2389
    8MOL   H221 4155   6.331   3.630   2.400 -0.1708  0.0358 -2.8342
    8MOL   H222 4156   6.201   3.532   2.356 -0.3409 -0.9722  1.8202
    8MOL   H223 4157   6.427   3.122   2.348  3.8324  0.1408 -2.0552
    8MOL   H224 4158   6.493   2.927   2.491  1.8538  0.1727 -0.2534
    8MOL   H225 4159   6.525   2.694   2.504  1.1606  1.4647 -0.7938
    8MOL   O226 4160   6.515   3.541   2.568  0.6591  0.7307 -0.2721
    8MOL   C227 4161   6.433   3.447   2.567  0.0936  0.0007  0.3462
    8MOL   O228 4162   6.321   3.446   2.490 -0.3260  0.3756 -0.3877
    8MOL   C229 4163   6.433   3.327   2.658 -0.0704  0.2299 -0.2607
    8MOL   C230 4164   6.534   3.318   2.755  0.2084 -0.5068 -0.9608
    8MOL   C231 4165   6.542   3.215   2.849  0.0833 -0.8466 -0.1114
    8MOL   C232 4166   6.622   3.225   2.963  0.4014  0.2565 -0.7328
    8MOL   C233 4167   6.619   3.122   3.060  0.3716  0.5306 -0.2181
    8MOL   C234 4168   6.550   3.001   3.033  0.2924 -0.5526 -0.1483
    8MOL   C235 4169   6.571   2.888   3.136 -0.1276  0.3200  1.5644
    8MOL   O236 4170   6.512   2.772   3.101 -0.5289 -0.2677  0.4391
    8MOL   C237 4171   6.532   2.646   3.172 -0.0051 -0.2191  0.2938
    8MOL   C238 4172   6.584   2.547   3.058 -0.3443  0.3063  0.3356
    8MOL   O239 4173   6.634   2.901   3.239  0.1945  0.2621  0.2258
    8MOL   C240 4174   6.478   2.987   2.910  0.2528 -0.8931 -0.3489
    8MOL   C241 4175   6.459   3.103   2.825 -0.4518  0.4946  0.3674
    8MOL   C242 4176   6.368   3.102   2.715 -0.0659  0.1887 -0.2207
    8MOL   C243 4177   6.358   3.210   2.631  0.1518 -0.5067 -0.8083
    8MOL   H244 4178   6.593   3.407   2.775  0.3274 -0.8448  0.2346
    8MOL   H245 4179   6.686   3.306   2.994 -1.3677  1.6799 -0.7003
    8MOL   H246 4180   6.686   3.136   3.144  2.2721  0.6827 -1.7214
    8MOL   H247 4181   6.448   2.604   3.226  1.1331 -1.4347  1.1643
    8MOL   H248 4182   6.596   2.649   3.261 -0.5280 -1.2929  0.7112
    8MOL   H249 4183   6.660   2.585   2.990 -1.2169  1.2565 -0.1357
    8MOL   H250 4184   6.625   2.457   3.104  1.1855  0.4986 -0.6155
    8MOL   H251 4185   6.426   2.894   2.892 -0.7556 -0.3442 -0.2749
    8MOL   H252 4186   6.311   3.012   2.697 -0.7691  0.2540  1.5470
    8MOL   H253 4187   6.284   3.202   2.553 -0.0099 -1.4206 -0.5684
    8MOL   O254 4188   6.523   2.655   2.796 -0.8301  0.5078  0.1256
    8MOL   C255 4189   6.458   2.559   2.844  0.5279 -0.7933 -0.3609
    8MOL   O256 4190   6.474   2.507   2.974 -0.4744 -0.3981  0.1369
    8MOL   C257 4191   6.350   2.497   2.769  1.2712 -0.4002 -0.3765
    8MOL   C258 4192   6.293   2.571   2.661 -0.5306  0.3839 -0.2702
    8MOL   C259 4193   6.187   2.516   2.592  0.5545 -0.3088  0.5597
    8MOL   C260 4194   6.137   2.588   2.487  0.2873 -0.2042  0.1766
    8MOL   C261 4195   6.029   2.535   2.413 -0.2905  0.0975 -0.0974
    8MOL   C262 4196   5.974   2.409   2.449  0.3481 -0.1998  0.0717
    8MOL   C263 4197   5.856   2.355   2.368 -0.1542 -0.0967 -0.5112
    8MOL   O264 4198   5.772   2.299   2.446 -0.0092  0.6189  0.5050
    8MOL   C265 4199   5.672   2.208   2.401 -0.2495 -0.1465  0.3528
    8MOL   C266 4200   5.723   2.062   2.378  0.1570 -0.3249 -0.1228
    8MOL   O267 4201   5.851   2.367   2.247  0.3956 -0.2636 -0.3091
    8MOL   C268 4202   6.029   2.331   2.555 -0.0793 -0.4711 -0.9117
    8MOL   C269 4203   6.137   2.384   2.620 -0.5155 -0.0094  0.5358
    8MOL   C270 4204   6.202   2.312   2.721  0.3152 -0.0934  0.2912
    8MOL   C271 4205   6.296   2.372   2.801 -0.0550 -0.2923 -0.2618
    8MOL   H272 4206   6.338   2.667   2.638 -0.7817  0.2785 -1.2278
    8MOL   H273 4207   6.183   2.684   2.466  0.0166  0.0764  0.8638
    8MOL   H274 4208   5.991   2.600   2.335 -1.6501  0.0565  0.5108
    8MOL   H275 4209   5.628   2.239   2.306 -0.0707 -0.4410  0.1746
    8MOL   H276 4210   5.584   2.205   2.465 -1.2711  1.3470 -0.9132
    8MOL   H277 4211   5.637   2.001   2.349 -0.2426 -1.0344  2.4279
    8MOL   H278 4212   5.797   2.064   2.299  0.3364 -2.3828 -0.0260
    8MOL   H279 4213   5.980   2.241   2.589 -2.1730  1.9328  2.8273
    8MOL   H280 4214   6.152   2.226   2.762  0.7433 -2.0306 -2.9983
    8MOL   H281 4215   6.342   2.319   2.883 -0.3286 -1.5885 -0.9423
    8MOL   O282 4216   5.602   1.971   2.613 -0.4948  0.0757  0.7031
    8MOL   C283 4217   5.726   1.989   2.598  0.2425  0.6293 -1.1056
    8MOL   O284 4218   5.791   2.018   2.489 -0.2328  0.1372  0.1806
    8MOL   C285 4219   5.820   1.955   2.708 -0.5217 -0.2202  0.4452
    8MOL   C286 4220   5.775   1.879   2.815  0.0415 -0.4790 -0.4017
    8MOL   C287 4221   5.865   1.838   2.918 -1.0894 -0.1933  0.4132
    8MOL   C288 4222   5.814   1.759   3.026 -0.0589  0.4509 -0.2389
    8MOL   C289 4223   5.909   1.717   3.123  0.0723  0.2346  0.9152
    8MOL   C290 4224   6.043   1.745   3.108 -0.0326 -0.0888  0.3137
    8MOL   C291 4225   6.139   1.708   3.213  0.6760 -0.5471  0.0761
    8MOL   O292 4226   6.267   1.737   3.187  0.0644 -0.6480 -0.1968
    8MOL   C293 4227   6.372   1.665   3.249  0.1211 -0.2142  0.1440
    8MOL   C294 4228   6.433   1.740   3.368  0.0102 -0.3158 -0.1040
    8MOL   O295 4229   6.104   1.639   3.311 -0.9781 -0.0459  0.1553
    8MOL   C296 4230   6.090   1.825   3.003 -0.0629 -0.5053  0.2337
    8MOL   C297 4231   6.001   1.871   2.908  0.4493 -0.3052  0.7727
    8MOL   C298 4232   6.050   1.949   2.799  0.0697 -0.6428  0.4463
    8MOL   C299 4233   5.960   1.982   2.697 -0.6125  0.2883 -0.3059
    8MOL   H300 4234   5.668   1.863   2.824 -0.0898  0.8004  0.3176
    8MOL   H301 4235   5.707   1.742   3.033 -0.0145  1.0391  3.1452
    8MOL   H302 4236   5.874   1.663   3.209 -0.4223  0.8820  1.1306
    8MOL   H303 4237   6.446   1.660   3.169  0.6985  0.4977  0.6245
    8MOL   H304 4238   6.334   1.566   3.274 -0.9339  0.4277  1.1275
    8MOL   H305 4239   6.419   1.848   3.365 -0.3896 -0.3988 -1.8141
    8MOL   H306 4240   6.390   1.701   3.460  0.9265 -0.2418  0.3576
    8MOL   H307 4241   6.193   1.849   2.981  0.0509 -0.5071  0.7423
    8MOL   H308 4242   6.152   1.980   2.787  0.2008  0.0874  2.9918
    8MOL   H309 4243   6.000   2.029   2.609 -2.1392  1.2205 -0.5280
    8MOL   O310 4244   6.591   1.750   3.585 -0.5451 -0.4173  0.0208
    8MOL   C311 4245   6.639   1.730   3.477 -0.8428  0.0038  0.1355
    8MOL   O312 4246   6.572   1.730   3.363 -0.0629 -0.0351 -0.2524
    8MOL   C313 4247   6.782   1.706   3.466  0.5955  0.5411  0.0757
    8MOL   C314 4248   6.862   1.666   3.576 -0.4238 -0.1469 -0.7778
    8MOL   C315 4249   6.994   1.625   3.563 -0.9251  0.1479 -0.7923
    8MOL   C316 4250   7.066   1.566   3.668 -0.1249  0.1110  0.3590
    8MOL   C317 4251   7.198   1.533   3.657 -0.0623  0.4146  0.8330
    8MOL   C318 4252   7.260   1.545   3.526  0.2334 -0.3142 -0.2456
    8MOL   C319 4253   7.400   1.512   3.496  0.5749 -0.1683 -0.2297
    8MOL   O320 4254   7.476   1.472   3.605  0.8206  0.3700 -0.4149
    8MOL   C321 4255   7.611   1.424   3.582  0.0255  0.1602 -0.8066
    8MOL   C322 4256   7.620   1.273   3.565 -0.0188 -0.5834 -0.3907
    8MOL   O323 4257   7.452   1.521   3.383  0.6070 -0.6674  0.4576
    8MOL   C324 4258   7.185   1.614   3.421 -0.1701  0.1036 -0.7507
    8MOL   C325 4259   7.051   1.642   3.433 -0.7072  0.0044 -0.3208
    8MOL   C326 4260   6.976   1.683   3.321 -0.0075  0.2059  0.3593
    8MOL   C327 4261   6.840   1.706   3.341  0.0827  0.7299 -0.1886
    8MOL   H328 4262   6.818   1.655   3.674  1.7827  0.1873  0.2686
    8MOL   H329 4263   7.022   1.551   3.766 -0.5255 -0.4397  0.0963
    8MOL   H330 4264   7.254   1.495   3.742 -1.0308  1.6073  2.0205
    8MOL   H331 4265   7.662   1.427   3.679  0.0866  0.6941 -0.8551
    8MOL   H332 4266   7.673   1.480   3.513 -1.9657 -0.6213 -3.3061
    8MOL   H333 4267   7.571   1.230   3.653 -0.2718  1.0123  0.2563
    8MOL   H334 4268   7.573   1.247   3.469  0.2150  0.6698 -0.8522
    8MOL   H335 4269   7.227   1.637   3.324  1.4827  1.8335  0.3254
    8MOL   H336 4270   7.022   1.692   3.224 -1.2782 -3.0698 -0.6052
    8MOL   H337 4271   6.782   1.737   3.255 -0.9444  1.3471  0.7046
    8MOL   O338 4272   7.794   1.317   3.368 -0.1924 -0.2283  0.0021
    8MOL   C339 4273   7.836   1.258   3.470  0.6202  0.3055  0.4596
    8MOL   O340 4274   7.757   1.231   3.583 -0.3137  0.1053  0.3016
    8MOL   C341 4275   7.967   1.191   3.489  0.0024 -0.3543  0.2026
    8MOL   C342 4276   7.974   1.062   3.546 -0.5625  0.5342 -0.0137
    8MOL   C343 4277   8.100   1.005   3.574  0.4992 -0.3918  0.0423
    8MOL   C344 4278   8.111   0.888   3.646 -0.3957  0.5523 -0.2061
    8MOL   C345 4279   8.234   0.829   3.690  0.0661  0.0197 -0.4887
    8MOL   C346 4280   0.107   0.894   3.649 -0.4057 -0.4684  0.8777
    8MOL   C347 4281   0.242   0.843   3.686 -0.1111 -0.4031  0.2127
    8MOL   O348 4282   0.239   0.708   3.711 -0.0663 -0.1544  0.1896
    8MOL   C349 4283   0.359   0.635   3.742 -0.4583  0.1872 -0.7226
    8MOL   C350 4284   0.473   0.639   3.645 -0.0272  0.5191 -0.5060
    8MOL   O351 4285   0.345   0.908   3.678 -0.2926 -0.3075 -0.1839
    8MOL   C352 4286   0.090   1.010   3.560  0.0112 -0.2447 -0.0189
    8MOL   C353 4287   8.216   1.067   3.534 -0.2086 -0.1623 -0.0326
    8MOL   C354 4288   8.204   1.190   3.470 -0.3461 -0.4067 -0.5378
    8MOL   C355 4289   8.083   1.255   3.447  0.3273 -0.1905  0.1244
    8MOL   H356 4290   7.880   1.018   3.577 -0.5472  0.7097  0.2921
    8MOL   H357 4291   8.018   0.840   3.673 -0.5627  0.0834 -1.5500
    8MOL   H358 4292   8.243   0.742   3.754 -1.2282  0.3348  0.1391
    8MOL   H359 4293   0.329   0.533   3.766  1.5716 -0.4019 -0.5924
    8MOL   H360 4294   0.399   0.673   3.836 -2.1680 -1.6753  0.8077
    8MOL   H361 4295   0.491   0.735   3.597  0.1652 -0.5803 -2.7113
    8MOL   H362 4296   0.562   0.608   3.700 -0.5404 -1.1991 -0.6235
    8MOL   H363 4297   0.176   1.056   3.512  0.3208 -0.1440  0.6221
    8MOL   H364 4298   0.041   1.248   3.441 -0.6338  0.4601  0.3356
    8MOL   H365 4299   8.098   1.356   3.411  0.1876 -0.1496  0.1810
    8MOL   O366 4300   0.422   0.704   3.381 -0.0244  0.2893  0.6582
    8MOL   C367 4301   0.432   0.584   3.421 -0.6850 -0.2637 -0.3088
    8MOL   O368 4302   0.470   0.544   3.544  0.2182 -0.4992 -1.1005
    8MOL   C369 4303   0.432   0.468   3.329 -0.5097  0.1101 -0.1021
    8MOL   C370 4304   0.346   0.468   3.218  0.9459  0.5284  0.1947
    8MOL   C371 4305   0.332   0.350   3.141 -0.0786  0.9419 -0.0855
    8MOL   C372 4306   0.223   0.342   3.049  0.5432 -1.3823 -0.3655
    8MOL   C373 4307   0.200   0.231   2.972  0.1295 -0.0781  0.2401
    8MOL   C374 4308   0.286   0.120   2.987 -0.5625  0.9262 -0.5431
    8MOL   C375 4309   0.278   0.006   2.892 -0.5740  0.4316 -0.0925
    8MOL   O376 4310   0.305   8.136   2.951 -0.2673  0.3948 -0.1212
    8MOL   C377 4311   0.300   8.022   2.881  0.3467 -0.3923 -0.5865
    8MOL   C378 4312   0.433   7.943   2.895 -0.3724 -0.0973  0.7728
    8MOL   O379 4313   0.252   0.025   2.773  0.6923 -0.1932 -0.5039
    8MOL   C380 4314   0.378   0.117   3.097  0.0702  0.7743  0.3797
    8MOL   C381 4315   0.411   0.233   3.166 -0.5430  0.2402  0.0461
    8MOL   C382 4316   0.517   0.236   3.265  0.1196 -0.2895  0.7459
    8MOL   C383 4317   0.513   0.353   3.352 -0.2654  0.1272 -0.2568
    8MOL   H384 4318   0.273   0.547   3.208  2.3311  1.8206  0.1478
    8MOL   H385 4319   0.177   0.437   3.025  2.2675  0.1739  2.1578
    8MOL   H386 4320   0.121   0.226   2.898 -0.2452  0.0039  0.6311
    8MOL   H387 4321   0.289   8.047   2.776  0.8585  0.9271 -0.3403
    8MOL   H388 4322   0.213   7.963   2.911  0.1420  0.0551 -0.2961
    8MOL   H389 4323   0.445   7.869   2.817  2.0330  0.0541  0.9455
    8MOL   H390 4324   0.514   8.016   2.884  1.3032 -1.8208  1.4393
    8MOL   H391 4325   0.429   0.024   3.119  1.3217  1.0526 -1.3207
    8MOL   H392 4326   0.574   0.145   3.274  0.7986 -0.1143 -1.4336
    8MOL   H393 4327   0.568   0.354   3.445 -1.3409  0.2159  0.3845
    8MOL   O394 4328   0.548   8.015   3.127 -0.7416  0.5164  0.1414
    8MOL   C395 4329   0.484   7.909   3.115 -0.0469  0.8206  0.4334
    8MOL   O396 4330   0.422   7.862   3.010 -0.1858  0.1088  0.7691
    8MOL   C397 4331   0.481   7.810   3.231 -0.1812 -0.2083 -1.0249
    8MOL   C398 4332   0.380   7.707   3.244 -0.0243 -0.5002  0.1412
    8MOL   C399 4333   0.391   7.612   3.345  0.1766  0.4597  0.5074
    8MOL   C400 4334   0.298   7.504   3.347 -0.4492  0.0793  0.3613
    8MOL   C401 4335   0.304   7.410   3.453 -0.3377  0.2427  0.2547
    8MOL   C402 4336   0.405   7.421   3.554  0.1387 -0.5298  0.3820
    8MOL   C403 4337   0.415   7.331   3.677 -0.5167 -0.0885  0.7977
    8MOL   O404 4338   0.302   7.254   3.680 -0.0084  0.2625 -0.0210
    8MOL   C405 4339   0.286   7.156   3.785  0.1035 -0.5545  0.9464
    8MOL   C406 4340   0.366   7.027   3.749 -0.0764  0.6099  0.4520
    8MOL   O407 4341   0.501   7.342   3.764  0.0280  0.5851 -0.1488
    8MOL   C408 4342   0.497   7.530   3.558  0.8135 -0.3420 -0.0524
    8MOL   C409 4343   0.491   7.623   3.449  0.2753 -0.8668  0.4349
    8MOL   C410 4344   0.578   7.729   3.444 -0.2531  0.1402 -0.3482
    8MOL   C411 4345   0.583   7.813   3.338  0.2138 -0.1143  0.0156
    8MOL   H412 4346   0.310   7.701   3.162 -0.2724 -0.0746  0.3195
    8MOL   H413 4347   0.234   7.498   3.261  0.2705 -2.4486 -0.0205
    8MOL   H414 4348   0.249   7.318   3.443 -0.4618  0.4720 -1.2842
    8MOL   H415 4349   0.182   7.134   3.806 -0.0747 -2.0687 -1.4374
    8MOL   H416 4350   0.337   7.191   3.875  1.2849  0.3182 -0.0400
    8MOL   H417 4351   0.324   6.998   3.652  1.8423 -1.4086  0.1981
    8MOL   H418 4352   0.473   7.039   3.734 -0.1300  0.1994 -0.2955
    8MOL   H419 4353   0.560   7.544   3.644 -0.8098 -0.1585  1.1223
    8MOL   H420 4354   0.665   7.723   3.508 -0.5851 -2.5478 -0.0866
    8MOL   H421 4355   0.654   7.894   3.329 -0.2009  0.5032  2.0232
    8MOL   O422 4356   0.473   6.973   3.994 -0.7158 -0.3721  0.6416
    8MOL   C423 4357   0.387   6.898   3.949  0.4983  0.0521  0.6104
    8MOL   O424 4358   0.335   6.914   3.826 -1.2285  0.0560  0.9077
    8MOL   C425 4359   0.357   6.774   4.026 -0.3286 -0.3955 -0.1483
    8MOL   C426 4360   0.270   6.675   3.980  0.1000  0.0162  0.2809
    8MOL   C427 4361   0.246   6.555   4.059 -0.5079  0.0738  0.2345
    8MOL   C428 4362   0.153   6.455   4.018  0.1421 -0.5499 -0.6993
    8MOL   C429 4363   0.122   6.347   4.102 -0.0455 -0.5285  0.0813
    8MOL   C430 4364   0.190   6.326   4.224  0.3705  0.0414 -0.0858
    8MOL   C431 4365   0.176   6.202   4.309 -0.0505  0.5128 -0.2625
    8MOL   O432 4366   0.253   6.193   4.415 -0.2892 -0.0429  0.3261
    8MOL   C433 4367   0.253   6.077   4.493 -0.6237  0.8907 -0.2098
    8MOL   C434 4368   0.372   5.974   4.459  0.0191  0.5260 -0.3308
    8MOL   O435 4369   0.099   6.110   4.283 -0.1600 -0.1272  0.5264
    8MOL   C436 4370   0.275   6.424   4.270 -0.4849  0.4836 -0.0629
    8MOL   C437 4371   0.304   6.543   4.192 -0.2786 -0.4264 -0.3999
    8MOL   C438 4372   0.386   6.649   4.237 -0.1019 -0.3829 -0.1541
    8MOL   C439 4373   0.415   6.760   4.154  0.0486  0.3658  0.4396
    8MOL   H440 4374   0.219   6.688   3.885 -2.7699 -0.3855  1.6963
    8MOL   H441 4375   0.098   6.453   3.925 -1.0590 -0.2647 -0.0198
    8MOL   H442 4376   0.053   6.278   4.058 -0.9279  1.2730 -1.4336
    8MOL   H443 4377   0.158   6.024   4.488  1.0376 -2.2358  0.0682
    8MOL   H444 4378   0.268   6.094   4.600 -1.3932 -2.1596  0.4292
    8MOL   H445 4379   0.347   5.873   4.492  2.9002 -0.9613 -2.4639
    8MOL   H446 4380   0.389   5.966   4.352 -1.0723  1.5841 -0.5913
    8MOL   H447 4381   0.329   6.418   4.364 -0.7578 -0.9705  0.0052
    8MOL   H448 4382   0.426   6.645   4.338  0.3813  0.7729 -0.2967
    8MOL   H449 4383   0.479   6.835   4.196  0.9436 -0.5919  0.8085
    8MOL   O450 4384   0.544   6.196   4.387 -0.3131 -0.2488  0.0067
    8MOL   C451 4385   0.571   6.111   4.477 -0.1723 -0.7641  0.0387
    8MOL   O452 4386   0.493   6.006   4.519 -0.1307  0.6642 -0.3630
    8MOL   C453 4387   0.696   6.122   4.556 -0.7460  0.1109  0.5883
    8MOL   C454 4388   0.765   6.244   4.573  0.1522  0.3169  0.5407
    8MOL   C455 4389   0.892   6.248   4.635 -0.2593 -0.0934  0.1202
    8MOL   C456 4390   0.962   6.367   4.633 -0.5816 -0.1651  0.6379
    8MOL   C457 4391   1.098   6.380   4.689 -0.5836  0.1285 -0.5146
    8MOL   C458 4392   1.157   6.262   4.741 -0.6413  0.3943  0.2722
    8MOL   C459 4393   1.301   6.260   4.794  0.1522 -0.6397 -0.2139
    8MOL   O460 4394   1.367   6.372   4.765 -0.0078 -0.7480  0.4488
    8MOL   C461 4395   1.498   6.381   4.816 -0.2659 -0.4889  0.3371
    8MOL   C462 4396   1.557   6.522   4.777 -0.0945  0.5190 -0.0611
    8MOL   O463 4397   1.346   6.169   4.860 -0.0842  0.1922 -0.6225
    8MOL   C464 4398   1.079   6.144   4.745 -0.2477 -0.4513  0.4719
    8MOL   C465 4399   0.947   6.136   4.699  0.1784 -0.4539  0.3000
    8MOL   C466 4400   0.886   6.009   4.683  0.0545 -0.4982  0.3337
    8MOL   C467 4401   0.757   6.006   4.618 -0.3225 -0.3419  0.1401
    8MOL   H468 4402   0.722   6.333   4.530  0.1096  0.2564  0.4571
    8MOL   H469 4403   0.914   6.458   4.599 -0.1603 -0.5773 -1.1027
    8MOL   H470 4404   1.157   6.470   4.696 -2.7686  1.3683  4.0093
    8MOL   H471 4405   1.549   6.300   4.762 -0.6547 -1.1416  0.9432
    8MOL   H472 4406   1.513   6.365   4.923 -0.7746 -0.1636  0.4588
    8MOL   H473 4407   1.660   6.502   4.746  0.0148  1.6629 -0.4718
    8MOL   H474 4408   1.503   6.569   4.695 -0.2757 -0.2961 -0.4196
    8MOL   H475 4409   1.128   6.055   4.781  2.8071  0.8850 -0.1804
    8MOL   H476 4410   0.935   5.921   4.722 -0.3398 -0.1627  1.6239
    8MOL   H477 4411   0.699   5.915   4.616  0.4327 -0.8033 -1.6195
    8MOL   O478 4412   1.336   6.647   4.898  0.4011  0.1969 -0.1910
    8MOL   C479 4413   1.445   6.651   4.956  0.0648  0.0960 -0.9047
    8MOL   O480 4414   1.554   6.590   4.903  0.5270 -0.5724  0.2834
    8MOL   C481 4415   1.477   6.719   5.084 -0.5949  0.1607 -0.6330
    8MOL   C482 4416   1.612   6.725   5.144  0.3947 -0.1922 -0.0959
    8MOL   C483 4417   1.627   6.799   5.259 -0.2817  0.1873 -0.7298
    8MOL   C484 4418   1.756   6.813   5.321 -0.5759 -0.1935 -0.5238
    8MOL   C485 4419   1.783   6.897   5.433 -0.3446  1.2857  0.3224
    8MOL   C486 4420   1.676   6.970   5.492 -0.5754  0.5206 -0.0849
    8MOL   C487 4421   1.701   7.053   5.615  0.1524  0.2506  0.3316
    8MOL   O488 4422   1.596   7.070   5.693  0.0975 -0.2221  0.4646
    8MOL   C489 4423   1.609   7.144   5.813 -0.0188 -0.0355 -1.0479
    8MOL   C490 4424   1.567   7.289   5.790  0.5583 -0.3817 -0.2056
    8MOL   O491 4425   1.815   7.097   5.639 -0.6737 -0.1044 -0.0920
    8MOL   C492 4426   1.546   6.959   5.431 -0.1088  0.2783  0.0886
    8MOL   C493 4427   1.522   6.873   5.315  0.6588 -0.6173 -0.1236
    8MOL   C494 4428   1.393   6.863   5.263  0.0373 -0.1798 -0.2257
    8MOL   C495 4429   1.368   6.778   5.153  0.3718 -0.0419 -0.2265
    8MOL   H496 4430   1.688   6.663   5.100  2.1060  1.4991  0.4251
    8MOL   H497 4431   1.838   6.760   5.275  0.0721  0.3981 -0.0456
    8MOL   H498 4432   1.883   6.904   5.473 -0.2721  1.0576  0.1841
    8MOL   H499 4433   1.702   7.135   5.869 -0.3143 -0.5017 -0.6368
    8MOL   H500 4434   1.536   7.100   5.881  0.8762 -0.2594 -0.2266
    8MOL   H501 4435   1.474   7.287   5.732 -0.2460 -1.5015  1.0983
    8MOL   H502 4436   1.541   7.336   5.885  0.0395  1.0276 -1.0250
    8MOL   H503 4437   1.459   7.005   5.474 -0.3356  0.7549 -0.8644
    8MOL   H504 4438   1.306   6.919   5.293 -0.0721 -1.0618  1.1576
    8MOL   H505 4439   1.266   6.770   5.119 -0.3481 -1.4238  2.1623
    8MOL   O506 4440   1.756   7.456   5.899 -0.0665 -0.3119 -0.5207
    8MOL   C507 4441   1.753   7.443   5.779  0.2133  0.5108 -0.1028
    8MOL   O508 4442   1.668   7.363   5.717 -0.6009 -0.0994  0.6723
    8MOL   C509 4443   1.829   7.530   5.687 -0.7376 -0.4103  0.1413
    8MOL   C510 4444   1.905   7.636   5.735  0.0849  0.2933  0.1308
    8MOL   C511 4445   1.979   7.720   5.649  0.9374 -0.0367 -0.0543
    8MOL   C512 4446   2.051   7.826   5.709 -0.2949  0.1802 -0.3120
    8MOL   C513 4447   2.126   7.916   5.629  0.3887  0.1677  0.1097
    8MOL   C514 4448   2.126   7.885   5.492  0.1022  0.2753  0.3150
    8MOL   C515 4449   2.218   7.964   5.396 -0.0782 -0.3936 -0.4062
    8MOL   O516 4450   2.272   8.064   5.452 -0.5791 -0.3941 -0.2144
    8MOL   C517 4451   2.370   8.142   5.382  0.0768 -0.3822 -0.0506
    8MOL   C518 4452   2.506   8.075   5.387  0.2121  0.1156 -0.5713
    8MOL   O519 4453   2.233   7.932   5.276 -0.4033  0.3763  0.0144
    8MOL   C520 4454   2.049   7.779   5.432  0.1016 -0.2270 -0.4869
    8MOL   C521 4455   1.974   7.695   5.512  0.5682 -0.6312 -0.3959
    8MOL   C522 4456   1.897   7.589   5.462 -0.9593  0.0056  0.2958
    8MOL   C523 4457   1.823   7.503   5.550  0.4205  0.4479 -0.1425
    8MOL   H524 4458   1.910   7.652   5.842  0.5769 -1.2804  0.3599
    8MOL   H525 4459   2.064   7.841   5.816  0.1177  0.8841 -0.4577
    8MOL   H526 4460   2.181   7.992   5.682  0.1202 -0.8799  1.9311
    8MOL   H527 4461   2.378   8.246   5.413 -0.9931 -0.1638 -0.4774
    8MOL   H528 4462   2.345   8.150   5.276  3.8835  2.9288 -0.8304
    8MOL   H529 4463   2.501   7.966   5.378  2.4924 -0.1920  1.3259
    8MOL   H530 4464   2.568   8.113   5.306  3.0407 -2.3368  0.3332
    8MOL   H531 4465   2.048   7.765   5.325 -0.5856 -0.6828 -0.4228
    8MOL   H532 4466   1.895   7.556   5.359 -0.5591  2.8888 -0.6921
    8MOL   H533 4467   1.769   7.416   5.515  1.9736 -0.8094  0.5261
    8MOL   O534 4468   2.635   0.059   5.493  0.2900  0.2087  0.3173
    8MOL   C535 4469   2.644   8.202   5.553  0.2332  0.2006  0.5122
    8MOL   O536 4470   2.588   8.086   5.506 -0.0592 -0.5686  0.1952
    8MOL   C537 4471   2.700   8.186   5.686  0.3983  0.6455 -0.1232
    8MOL   C538 4472   2.752   0.045   5.755 -0.3928  0.0435  0.0437
    8MOL   C539 4473   2.824   0.033   5.874 -0.1405  0.1863 -0.6807
    8MOL   C540 4474   2.879   0.153   5.925 -0.5447 -0.1038 -0.5863
    8MOL   C541 4475   2.954   0.142   6.048  0.3635  0.3428 -0.6380
    8MOL   C542 4476   2.964   0.018   6.114 -0.3877 -0.1236 -0.5011
    8MOL   C543 4477   3.028   0.015   6.250 -0.0194 -0.1098  0.3839
    8MOL   O544 4478   3.017   8.144   6.306  0.0423 -0.0340  0.1569
    8MOL   C545 4479   3.071   8.113   6.431  0.4107 -0.5901 -1.2882
    8MOL   C546 4480   3.220   8.075   6.438 -0.7364 -1.1586  0.3733
    8MOL   O547 4481   3.078   0.115   6.307 -0.7412  0.8228  0.0231
    8MOL   C548 4482   2.916   8.150   6.055 -0.3490  0.1288 -0.6045
    8MOL   C549 4483   2.847   8.161   5.934 -0.2696 -0.0687 -0.1871
    8MOL   C550 4484   2.796   8.044   5.871  0.0617  0.5682 -0.4782
    8MOL   C551 4485   2.719   8.058   5.750 -0.8879 -0.5014 -0.3635
    8MOL   H552 4486   2.756   0.144   5.710  1.1354 -0.5211 -1.0920
    8MOL   H553 4487   2.871   0.247   5.873 -1.3710  0.4204  0.4793
    8MOL   H554 4488   3.005   0.221   6.100  1.0327 -1.3950  1.4110
    8MOL   H555 4489   3.020   8.032   6.485 -1.2799  2.3654  1.7436
    8MOL   H556 4490   3.058   8.200   6.496  0.9825 -2.2237  1.1100
    8MOL   H557 4491   3.253   8.095   6.540  2.9744  0.9746 -1.1297
    8MOL   H558 4492   3.277   8.127   6.362 -0.7418  0.1301  1.2331
    8MOL   H559 4493   2.912   8.052   6.102  2.9574  0.2491  0.0542
    8MOL   H560 4494   2.821   7.948   5.912  1.3627  1.7417  1.5689
    8MOL   H561 4495   2.679   7.968   5.705  1.1135 -0.1149 -3.0859
    8MOL   H562 4496   3.240   7.971   6.415  2.8534 -0.9404  2.1725
    9MOL     O1 4497   2.052   3.454   0.145  0.1485  0.3511  0.5247
    9MOL     C2 4498   2.163   3.485   0.105  0.1771  0.6747  0.3913
    9MOL     O3 4499   2.197   3.608   0.076 -0.3009  0.4965 -0.1461
    9MOL     C4 4500   2.272   3.387   0.085 -0.3504  0.2178 -0.2167
    9MOL     C5 4501   2.378   3.416   0.001  0.4317  0.0043 -0.5386
    9MOL     C6 4502   2.471   3.312   8.213 -0.5665  0.0233  0.0579
    9MOL     C7 4503   2.566   3.348   8.116 -0.4227 -0.5319 -0.5392
    9MOL     C8 4504   2.667   3.255   8.084 -0.1751  0.2180 -0.2346
    9MOL     C9 4505   2.671   3.128   8.138  0.1099  0.2043  0.8194
    9MOL    C10 4506   2.783   3.031   8.108 -0.9743 -0.4187 -0.5099
    9MOL    O11 4507   2.762   2.909   8.155  0.0875 -0.0859 -0.3101
    9MOL    C12 4508   2.856   2.803   8.140  0.7768 -0.3614  0.0599
    9MOL    C13 4509   2.964   2.807   0.006 -0.1603  0.4615  1.0033
    9MOL    O14 4510   2.885   3.064   8.045 -0.0505 -0.2484 -0.4510
    9MOL    C15 4511   2.571   3.096   8.234 -0.1834  0.8786 -0.8543
    9MOL    C16 4512   2.470   3.183   0.018 -0.0366  0.3083 -0.2018
    9MOL    C17 4513   2.366   3.156   0.109 -0.5801  0.7989  0.0143
    9MOL    C18 4514   2.270   3.256   0.141 -0.7475  0.2038  0.0624
    9MOL    H19 4515   2.385   3.513   8.204  0.2688  0.4536  0.3737
    9MOL    H20 4516   2.564   3.439   8.059 -0.2393 -0.9184 -1.1618
    9MOL    H21 4517   2.740   3.285   8.010  0.3864  0.6921  0.5077
    9MOL    H22 4518   2.815   2.703   8.149  0.9069 -0.4777 -0.6293
    9MOL    H23 4519   2.903   2.801   8.041 -1.8148 -1.1278 -1.1823
    9MOL    H24 4520   2.917   2.824   0.102 -0.9819  2.3968  0.2789
    9MOL    H25 4521   3.013   2.711   0.023 -1.3673 -0.2294  0.6708
    9MOL    H26 4522   2.566   3.001   0.035  1.5189  0.7221 -0.9741
    9MOL    H27 4523   2.372   3.062   0.160  1.8502  1.2401  0.6181
    9MOL    H28 4524   2.187   3.227   0.203  0.0768 -0.7374  0.7368
    9MOL    H29 4525   2.126   3.671   0.073  0.4724  1.3269 -2.8227
    9MOL    O30 4526   3.163   2.756   8.086 -0.3254 -0.5030 -0.1134
    9MOL    C31 4527   3.166   2.871   8.138 -0.4245  0.2600 -0.4407
    9MOL    O32 4528   3.071   2.900   8.232  0.1796 -0.3287 -0.2270
    9MOL    C33 4529   3.264   2.977   8.106  0.0037 -0.7578 -0.0739
    9MOL    C34 4530   3.252   3.114   8.152 -0.2115 -0.1129  0.0372
    9MOL    C35 4531   3.354   3.213   8.118 -0.2296  0.1767 -0.5548
    9MOL    C36 4532   3.354   3.346   8.173  0.0471 -0.7548  0.3310
    9MOL    C37 4533   3.451   3.440   8.142 -0.1136  0.4333 -0.6225
    9MOL    C38 4534   3.554   3.396   8.055 -0.2838  0.1212  0.2515
    9MOL    C39 4535   3.670   3.488   8.021 -0.0818 -0.3789 -0.1133
    9MOL    O40 4536   3.656   3.616   8.061 -0.6567  0.6362  0.4384
    9MOL    C41 4537   3.779   3.693   8.072 -0.0600  0.1840 -0.2399
    9MOL    C42 4538   3.797   3.777   7.946 -0.6537  0.2421 -0.2337
    9MOL    O43 4539   3.769   3.448   7.964  0.6889  0.5876 -0.3062
    9MOL    C44 4540   3.551   3.272   7.988 -0.6205  0.1642  0.0762
    9MOL    C45 4541   3.453   3.180   8.025 -0.0841  0.3028  0.2697
    9MOL    C46 4542   3.455   3.048   7.972 -1.0462  0.0236 -0.3953
    9MOL    C47 4543   3.365   2.950   8.014  0.5238  0.7510 -0.7635
    9MOL    H48 4544   3.170   3.142   8.216 -0.7181 -2.1448  0.3091
    9MOL    H49 4545   3.276   3.372   8.242 -0.6118 -2.1429  0.1211
    9MOL    H50 4546   3.461   3.541   8.179  1.8024  0.0501 -0.0906
    9MOL    H51 4547   3.857   3.620   8.096 -0.5761 -0.8408 -1.5797
    9MOL    H52 4548   3.786   3.772   8.147  0.2217  1.0453 -1.1599
    9MOL    H53 4549   3.702   3.816   7.907 -0.2765  1.2023 -0.2088
    9MOL    H54 4550   3.849   3.871   7.965 -2.2968  0.9063  1.1566
    9MOL    H55 4551   3.625   3.237   7.917 -3.0045 -0.6936 -2.0646
    9MOL    H56 4552   3.532   3.017   7.903 -0.7298 -0.3502  0.1234
    9MOL    H57 4553   3.370   2.850   7.973 -2.7418 -0.0945  0.7819
    9MOL    O58 4554   3.824   3.874   7.687  0.2725  0.0711 -0.7824
    9MOL    C59 4555   3.854   3.757   7.720  0.0015 -0.1792  0.1800
    9MOL    O60 4556   3.859   3.708   7.841  0.4998 -0.8287 -1.2049
    9MOL    C61 4557   3.877   3.642   7.622  0.0018  0.4356 -0.2560
    9MOL    C62 4558   3.829   3.666   7.490 -0.6427  0.3738  0.0440
    9MOL    C63 4559   3.837   3.568   7.390 -0.0244  0.7104 -0.3522
    9MOL    C64 4560   3.795   3.597   7.255 -0.1975 -0.1114 -0.3368
    9MOL    C65 4561   3.804   3.493   7.157 -0.1889 -0.2897 -0.2709
    9MOL    C66 4562   3.856   3.366   7.191 -0.3122 -0.0052 -0.2267
    9MOL    C67 4563   3.881   3.270   7.084  0.0442  0.5353  0.5650
    9MOL    O68 4564   3.896   3.143   7.138  0.5916  0.0216  0.7545
    9MOL    C69 4565   3.925   3.039   7.052  0.2082  0.5199 -1.0225
    9MOL    C70 4566   4.077   3.017   7.025  0.0232 -0.6217 -0.9478
    9MOL    O71 4567   3.875   3.305   6.969 -0.2710 -0.4568  0.2311
    9MOL    C72 4568   3.901   3.340   7.325  0.3723  0.5061 -0.3489
    9MOL    C73 4569   3.892   3.441   7.425 -0.3118 -0.0894  0.2343
    9MOL    C74 4570   3.940   3.417   7.557  0.5022 -0.4657 -0.1775
    9MOL    C75 4571   3.931   3.516   7.653 -0.2312  0.0826 -0.1284
    9MOL    H76 4572   3.812   3.765   7.450  1.1908  0.3925 -0.7707
    9MOL    H77 4573   3.755   3.696   7.238 -0.2352  0.0044  0.4085
    9MOL    H78 4574   3.783   3.512   7.053  1.4315 -0.8563 -0.7221
    9MOL    H79 4575   3.863   3.043   6.963 -2.4882 -1.3658  0.7192
    9MOL    H80 4576   3.895   2.946   7.100 -2.4333  1.2211 -1.2340
    9MOL    H81 4577   4.138   2.980   7.108  0.0513  0.0985 -0.6418
    9MOL    H82 4578   4.093   2.945   6.945  0.6159 -0.8667 -0.6125
    9MOL    H83 4579   3.955   3.249   7.350 -2.2055 -0.8633  0.4049
    9MOL    H84 4580   3.983   3.320   7.581 -0.3689 -1.5145 -2.7160
    9MOL    H85 4581   3.962   3.491   7.753 -0.8965  0.3378  0.1460
    9MOL    O86 4582   4.323   3.052   6.895 -0.0082 -0.4631 -0.4210
    9MOL    C87 4583   4.244   3.143   6.916 -0.5093  0.1144 -0.5798
    9MOL    O88 4584   4.130   3.133   6.990 -0.1566 -0.1125  0.3908
    9MOL    C89 4585   4.264   3.286   6.871  0.3410  0.0260  0.3250
    9MOL    C90 4586   4.208   3.401   6.935 -0.0020  0.3840 -0.3410
    9MOL    C91 4587   4.227   3.530   6.878 -0.7221  0.0643 -0.1240
    9MOL    C92 4588   4.168   3.644   6.930  0.5404 -0.0496 -0.1655
    9MOL    C93 4589   4.192   3.775   6.876 -0.6058  0.2505  0.8501
    9MOL    C94 4590   4.268   3.786   6.757  0.0237 -0.3143 -0.1618
    9MOL    C95 4591   4.283   3.917   6.694  0.0161 -0.6103 -0.3674
    9MOL    O96 4592   4.330   3.918   6.568  0.1789  0.2389  0.2832
    9MOL    C97 4593   4.318   4.030   6.486 -0.2700  0.7128 -0.3000
    9MOL    C98 4594   4.177   4.065   6.432  0.1963 -0.4493  0.1043
    9MOL    O99 4595   4.246   4.017   6.751 -0.3254 -0.7333 -0.5609
    9MOL   C100 4596   4.315   3.668   6.697  0.1672 -0.3483 -0.8765
    9MOL   C101 4597   4.310   3.543   6.757 -0.8633  0.0634 -0.2939
    9MOL   C102 4598   4.362   3.434   6.694  0.3548  0.7364  0.0903
    9MOL   C103 4599   4.344   3.307   6.758  0.3880  0.6919 -0.3321
    9MOL   H104 4600   4.142   3.392   7.020  0.4568 -1.0986 -0.1345
    9MOL   H105 4601   4.106   3.627   7.017  1.8318 -0.9054  0.6051
    9MOL   H106 4602   4.150   3.864   6.921 -1.4612 -0.1902  0.9412
    9MOL   H107 4603   4.393   4.008   6.410 -0.6576  0.2822 -0.5589
    9MOL   H108 4604   4.373   4.112   6.534 -0.2573 -0.9307  2.6372
    9MOL   H109 4605   4.177   4.065   6.323  1.0715  1.4376  0.0870
    9MOL   H110 4606   4.128   3.972   6.460  0.5601 -0.4344  0.8066
    9MOL   H111 4607   4.357   3.674   6.598 -1.4703  1.2094 -1.4999
    9MOL   H112 4608   4.413   3.445   6.599  0.0233  1.2658 -0.0291
    9MOL   H113 4609   4.386   3.224   6.703 -2.4525 -0.9626 -0.0729
    9MOL   O114 4610   4.123   4.296   6.312 -0.7671  0.4055  0.4992
    9MOL   C115 4611   4.086   4.281   6.431  0.2487  0.0789  0.0702
    9MOL   O116 4612   4.107   4.170   6.502  0.1834  0.3833  0.6072
    9MOL   C117 4613   4.007   4.385   6.504 -0.5958  0.3428 -0.2480
    9MOL   C118 4614   3.981   4.382   6.643 -0.7093  0.3605 -0.2053
    9MOL   C119 4615   3.908   4.487   6.704  0.5528  0.3300  0.0156
    9MOL   C120 4616   3.883   4.477   6.841  0.6857  0.9763 -0.5694
    9MOL   C121 4617   3.823   4.582   6.904 -0.5603 -0.0902 -0.2950
    9MOL   C122 4618   3.778   4.692   6.825 -0.0609  0.6095 -0.2180
    9MOL   C123 4619   3.701   4.787   6.898  0.2763  0.4916  0.0891
    9MOL   O124 4620   3.698   4.907   6.840  0.0150 -1.1095  0.1757
    9MOL   C125 4621   3.609   5.019   6.864  0.1093  0.3029  0.4182
    9MOL   C126 4622   3.661   5.143   6.796  0.0752 -0.3938 -0.6751
    9MOL   O127 4623   3.630   4.762   6.995 -0.9478 -0.0180 -0.8557
    9MOL   C128 4624   3.806   4.701   6.688  0.3668 -0.5599 -0.4670
    9MOL   C129 4625   3.860   4.590   6.628 -0.0512 -0.3223  0.4886
    9MOL   C130 4626   3.877   4.590   6.491  0.0364  0.4447  0.0125
    9MOL   C131 4627   3.954   4.493   6.433  0.0577  0.7476 -0.2402
    9MOL   H132 4628   4.031   4.313   6.709  1.3190  0.5119 -1.5521
    9MOL   H133 4629   3.928   4.398   6.900  0.8083  0.0739 -1.8685
    9MOL   H134 4630   3.817   4.573   7.012 -0.6048  0.0788 -0.2850
    9MOL   H135 4631   3.585   5.020   6.971 -0.6163 -0.5482  0.2732
    9MOL   H136 4632   3.515   4.989   6.818  0.5718  0.7830 -0.8596
    9MOL   H137 4633   3.584   5.215   6.819  1.6080  1.4964 -1.3044
    9MOL   H138 4634   3.749   5.180   6.849 -0.1473 -0.0624 -0.5384
    9MOL   H139 4635   3.771   4.785   6.629  0.0850 -0.2017  0.2128
    9MOL   H140 4636   3.837   4.663   6.421 -0.7716 -2.5352 -2.7551
    9MOL   H141 4637   3.980   4.494   6.328 -0.7152 -1.8357 -0.4832
    9MOL   O142 4638   3.478   5.222   6.590 -0.0181 -0.1238 -0.0910
    9MOL   C143 4639   3.581   5.159   6.565  1.1037 -0.0081  0.6294
    9MOL   O144 4640   3.685   5.136   6.655 -0.1637  0.0284  0.1237
    9MOL   C145 4641   3.615   5.114   6.431 -0.9893  0.1346  0.5566
    9MOL   C146 4642   3.550   5.178   6.320 -0.8517 -0.1336 -0.2742
    9MOL   C147 4643   3.600   5.163   6.188  0.1273 -0.7901 -0.4211
    9MOL   C148 4644   3.540   5.230   6.083  0.1954  0.2517  0.0783
    9MOL   C149 4645   3.587   5.203   5.949 -0.8933  0.0918  0.0226
    9MOL   C150 4646   3.691   5.105   5.925  0.1861 -0.5751 -0.0762
    9MOL   C151 4647   3.738   5.087   5.781  0.0659 -0.3673 -0.1772
    9MOL   O152 4648   3.825   4.985   5.765 -0.1823 -0.2368  0.2303
    9MOL   C153 4649   3.898   4.963   5.644  0.2631 -0.0113 -0.3029
    9MOL   C154 4650   4.030   5.037   5.656  0.2357  0.1199  0.6608
    9MOL   O155 4651   3.707   5.163   5.689  0.3107 -0.2323  0.5053
    9MOL   C156 4652   3.758   5.054   6.038 -0.3284  0.2937  0.4258
    9MOL   C157 4653   3.713   5.074   6.170 -0.2371  0.7200  0.9067
    9MOL   C158 4654   3.773   5.012   6.276  0.2968  0.1851 -0.1578
    9MOL   C159 4655   3.721   5.034   6.401  0.3169 -0.8974 -0.0194
    9MOL   H160 4656   3.476   5.254   6.338 -1.1268 -0.1424 -1.3462
    9MOL   H161 4657   3.463   5.300   6.109  2.1095  1.4681  2.7542
    9MOL   H162 4658   3.549   5.267   5.871 -1.9521  0.2370  0.6429
    9MOL   H163 4659   3.845   4.991   5.553 -0.2259  2.2989  0.6745
    9MOL   H164 4660   3.910   4.856   5.661 -1.0860 -0.0279  0.5667
    9MOL   H165 4661   4.004   5.141   5.674 -0.4939  0.1555 -0.5678
    9MOL   H166 4662   4.096   5.002   5.736 -0.4795  0.6493  1.5009
    9MOL   H167 4663   3.849   4.997   6.023 -1.2656 -1.1368  0.0829
    9MOL   H168 4664   3.859   4.947   6.268  0.5222  0.4636  0.0307
    9MOL   H169 4665   3.768   4.986   6.486  2.7086 -0.3220 -0.9936
    9MOL   O170 4666   4.135   4.810   5.534  0.1576 -0.2345  0.2586
    9MOL   C171 4667   4.141   4.923   5.479  0.4943 -0.8379  0.4542
    9MOL   O172 4668   4.101   5.042   5.535 -0.0084 -0.3741  0.1342
    9MOL   C173 4669   4.192   4.930   5.343  0.0595 -0.4833 -0.4392
    9MOL   C174 4670   4.165   5.037   5.263  0.4523 -0.2283 -0.3132
    9MOL   C175 4671   4.217   5.039   5.131  0.5015 -0.8939 -0.1981
    9MOL   C176 4672   4.186   5.146   5.045 -0.1103 -0.5195  0.0405
    9MOL   C177 4673   4.249   5.161   4.920  0.6655  0.0750  0.0335
    9MOL   C178 4674   4.335   5.062   4.875 -0.0731  0.0146 -0.0524
    9MOL   C179 4675   4.402   5.061   4.747 -0.5921 -0.0806 -0.2560
    9MOL   O180 4676   4.379   5.177   4.682 -0.0358 -0.1973 -0.5186
    9MOL   C181 4677   4.420   5.210   4.547  0.3580 -0.1897 -0.6831
    9MOL   C182 4678   4.297   5.201   4.463 -0.5168 -0.3732  0.0021
    9MOL   O183 4679   4.473   4.976   4.703 -0.0324 -0.2677  0.4005
    9MOL   C184 4680   4.365   4.951   4.959 -0.3850  0.4606 -0.2982
    9MOL   C185 4681   4.311   4.944   5.088 -1.3101  0.0339 -0.1776
    9MOL   C186 4682   4.350   4.845   5.171  0.3048  0.1884 -0.0762
    9MOL   C187 4683   4.287   4.837   5.299 -0.1000  0.0132 -1.7353
    9MOL   H188 4684   4.095   5.116   5.288 -0.2356 -1.5416  2.1228
    9MOL   H189 4685   4.120   5.221   5.087 -0.7024 -0.7721 -0.4414
    9MOL   H190 4686   4.218   5.236   4.849  1.2521 -1.3224 -1.7251
    9MOL   H191 4687   4.506   5.155   4.509 -1.1902 -3.3904  0.3107
    9MOL   H192 4688   4.456   5.312   4.533 -0.5664  0.0820 -1.1523
    9MOL   H193 4689   4.325   5.237   4.365 -0.5488 -1.0788 -0.2721
    9MOL   H194 4690   4.266   5.096   4.456  0.2930 -0.7278  1.5863
    9MOL   H195 4691   4.431   4.873   4.924 -1.4584 -1.1337  1.1269
    9MOL   H196 4692   4.424   4.769   5.152 -1.3341 -1.2205 -0.9745
    9MOL   H197 4693   4.329   4.756   5.357 -1.4993  0.4164 -0.1328
    9MOL   O198 4694   4.088   5.113   4.625 -0.1573 -0.0768 -0.1767
    9MOL   C199 4695   4.101   5.232   4.598 -0.7173  0.3353  0.2580
    9MOL   O200 4696   4.195   5.285   4.516 -0.1698  0.1808 -0.1396
    9MOL   C201 4697   4.024   5.340   4.652  0.6166 -0.2053 -0.7044
    9MOL   C202 4698   3.944   5.313   4.771  0.2125  0.4804 -0.6679
    9MOL   C203 4699   3.883   5.423   4.837  0.4239  0.2562  0.1713
    9MOL   C204 4700   3.798   5.402   4.942 -0.3973  0.2982 -0.1559
    9MOL   C205 4701   3.718   5.506   4.994 -0.0115 -0.1325 -0.2077
    9MOL   C206 4702   3.740   5.642   4.953  0.0717  0.4825 -0.3586
    9MOL   C207 4703   3.680   5.755   5.021  0.5233 -0.3275 -0.0600
    9MOL   O208 4704   3.625   5.722   5.142  0.0670 -0.0476  0.0587
    9MOL   C209 4705   3.600   5.821   5.238 -0.0783 -0.4168  0.3490
    9MOL   C210 4706   3.457   5.865   5.260 -0.3047  0.2465  0.2604
    9MOL   O211 4707   3.687   5.870   4.980 -0.1377  0.4770  0.0096
    9MOL   C212 4708   3.827   5.667   4.843 -0.4651  0.2014 -0.4233
    9MOL   C213 4709   3.889   5.556   4.785 -0.1753  0.2463  0.3806
    9MOL   C214 4710   3.954   5.574   4.664  0.0377  0.5931 -0.0740
    9MOL   C215 4711   4.023   5.469   4.604 -0.1646  0.6246  0.4862
    9MOL   H216 4712   3.939   5.211   4.805 -0.5868 -0.4944 -3.5745
    9MOL   H217 4713   3.783   5.300   4.975 -0.4684  0.1184 -0.7525
    9MOL   H218 4714   3.641   5.488   5.068 -0.2134 -2.8255 -0.9931
    9MOL   H219 4715   3.670   5.905   5.233  1.3198 -1.4789  1.7625
    9MOL   H220 4716   3.636   5.771   5.327  0.2772  0.4380  0.6933
    9MOL   H221 4717   3.436   5.951   5.197  0.9042  1.1059  1.0097
    9MOL   H222 4718   3.386   5.789   5.226 -0.4277  0.6497 -0.3801
    9MOL   H223 4719   3.848   5.766   4.808 -1.6552  1.2128  1.6267
    9MOL   H224 4720   3.951   5.670   4.614 -3.3855  1.2292  1.2520
    9MOL   H225 4721   4.079   5.485   4.513 -0.4881 -0.2334  0.1304
    9MOL   O226 4722   3.261   6.048   5.384 -0.4269 -0.2176 -0.8032
    9MOL   C227 4723   3.339   5.978   5.450 -0.9899 -0.4636 -0.8854
    9MOL   O228 4724   3.444   5.894   5.400 -0.1158  0.0013  0.1882
    9MOL   C229 4725   3.330   5.962   5.600 -0.7362  0.4420 -0.3033
    9MOL   C230 4726   3.260   6.052   5.687 -0.2412  0.7083  0.1941
    9MOL   C231 4727   3.254   6.035   5.830  0.0526 -0.0003  0.1512
    9MOL   C232 4728   3.192   6.131   5.911  0.6671 -0.5798 -0.0812
    9MOL   C233 4729   3.180   6.117   6.047  0.5507  0.1373  0.2282
    9MOL   C234 4730   3.250   6.004   6.103 -0.0920 -0.2180  0.0517
    9MOL   C235 4731   3.244   5.973   6.249 -0.5546  0.1622 -0.2727
    9MOL   O236 4732   3.248   6.080   6.330  0.3933  0.3640  0.3265
    9MOL   C237 4733   3.247   6.065   6.473  0.2337 -0.2700 -0.3869
    9MOL   C238 4734   3.370   6.006   6.532 -0.3362  0.5299 -0.2685
    9MOL   O239 4735   3.238   5.856   6.290  0.4083 -0.1867 -0.2439
    9MOL   C240 4736   3.316   5.910   6.028  0.1081  0.7000  0.9749
    9MOL   C241 4737   3.310   5.923   5.887  0.4255 -0.0841 -0.0122
    9MOL   C242 4738   3.377   5.827   5.805 -0.0666  0.4800 -0.2568
    9MOL   C243 4739   3.393   5.842   5.663 -0.5084 -0.6817  0.1377
    9MOL   H244 4740   3.218   6.142   5.645  0.4130  0.5183 -0.8968
    9MOL   H245 4741   3.133   6.212   5.870  0.6657  1.1330  3.0966
    9MOL   H246 4742   3.134   6.192   6.108  3.3017  1.0828  1.1858
    9MOL   H247 4743   3.156   6.018   6.509  0.2069  1.1253  1.4796
    9MOL   H248 4744   3.239   6.167   6.510  1.8055  0.7381 -2.6730
    9MOL   H249 4745   3.363   6.030   6.638 -4.1308 -2.8884  0.3895
    9MOL   H250 4746   3.378   5.897   6.526  0.0135  0.4905  0.7409
    9MOL   H251 4747   3.365   5.825   6.074  2.5631  0.6888 -1.5099
    9MOL   H252 4748   3.423   5.745   5.858 -1.2335  1.4612  2.3826
    9MOL   H253 4749   3.439   5.764   5.605  1.5617  0.2828  0.4465
    9MOL   O254 4750   3.479   6.235   6.637  0.5290  0.2636  0.3840
    9MOL   C255 4751   3.534   6.180   6.537  0.3451  0.2061  0.0857
    9MOL   O256 4752   3.487   6.067   6.476  0.0208  0.5774  0.1622
    9MOL   C257 4753   3.651   6.233   6.469  0.9642 -0.2696  0.1958
    9MOL   C258 4754   3.715   6.157   6.366  0.2776  0.7058  0.5647
    9MOL   C259 4755   3.837   6.205   6.318 -0.2168 -0.6513 -0.0385
    9MOL   C260 4756   3.909   6.130   6.231 -0.7244 -0.0644 -0.2091
    9MOL   C261 4757   4.029   6.180   6.180  0.0086  0.5880  0.2544
    9MOL   C262 4758   4.079   6.305   6.211  0.8836 -0.7521  0.4785
    9MOL   C263 4759   4.195   6.375   6.140  0.4304 -0.3888 -0.8878
    9MOL   O264 4760   4.255   6.296   6.060  0.0452  0.2120  0.2982
    9MOL   C265 4761   4.364   6.343   5.981 -0.0652 -0.3200  0.3272
    9MOL   C266 4762   4.499   6.325   6.049  0.2280 -1.2050  0.2827
    9MOL   O267 4763   4.231   6.493   6.168 -0.4581  0.1131  0.4878
    9MOL   C268 4764   4.005   6.385   6.299  0.6197  0.0217 -0.4423
    9MOL   C269 4765   3.888   6.333   6.364  0.5778 -0.0147 -0.3216
    9MOL   C270 4766   3.819   6.407   6.460  0.5590  0.4214 -0.4894
    9MOL   C271 4767   3.707   6.353   6.520 -0.2202 -0.4056  0.6125
    9MOL   H272 4768   3.675   6.061   6.338  1.7019  0.0063  0.8349
    9MOL   H273 4769   3.874   6.046   6.174 -1.8009  0.0622  0.2544
    9MOL   H274 4770   4.090   6.125   6.111 -0.5413  0.3430 -0.0369
    9MOL   H275 4771   4.351   6.450   5.960  1.2125  0.3038  2.5610
    9MOL   H276 4772   4.375   6.282   5.891  0.0316 -1.7917  1.3356
    9MOL   H277 4773   4.496   6.231   6.105  4.2060  0.0395  2.8500
    9MOL   H278 4774   4.586   6.320   5.983 -0.4112  0.0903 -0.6851
    9MOL   H279 4775   4.032   6.488   6.318  2.9127 -0.6278 -0.0146
    9MOL   H280 4776   3.860   6.502   6.490 -0.8972  1.1880 -0.8966
    9MOL   H281 4777   3.662   6.414   6.597 -1.2930 -1.2665  0.6754
    9MOL   O282 4778   4.752   6.381   6.155  0.0605 -0.1410  0.5622
    9MOL   C283 4779   4.650   6.440   6.208  0.4039 -0.0026  0.0841
    9MOL   O284 4780   4.523   6.427   6.150  0.0317  0.8828  0.2640
    9MOL   C285 4781   4.659   6.542   6.312  0.4907  0.2852  0.5934
    9MOL   C286 4782   4.751   6.521   6.411 -0.6694  0.2391 -0.3963
    9MOL   C287 4783   4.759   6.604   6.526  0.2525  0.5438 -0.2897
    9MOL   C288 4784   4.868   6.588   6.615 -0.9962 -0.4510 -0.1393
    9MOL   C289 4785   4.877   6.670   6.730 -0.0277 -0.1070  0.3419
    9MOL   C290 4786   4.787   6.780   6.744 -0.3903  0.2846 -0.4946
    9MOL   C291 4787   4.811   6.871   6.858  0.1563 -0.6263 -0.1192
    9MOL   O292 4788   4.695   6.921   6.903  0.4463 -0.3638 -0.2817
    9MOL   C293 4789   4.687   7.037   6.986  0.0712 -0.7824  0.2324
    9MOL   C294 4790   4.593   7.135   6.915 -0.4895 -0.2962 -0.0183
    9MOL   O295 4791   4.927   6.909   6.889  0.1243 -0.5340 -1.1728
    9MOL   C296 4792   4.690   6.801   6.647 -0.3404 -0.4431 -0.0823
    9MOL   C297 4793   4.674   6.714   6.537  0.2746  0.7549  0.1750
    9MOL   C298 4794   4.591   6.746   6.430 -0.2701  0.8585 -0.5183
    9MOL   C299 4795   4.581   6.660   6.315  0.1292 -0.1879 -0.0945
    9MOL   H300 4796   4.819   6.439   6.395  0.6491  1.6291 -2.1460
    9MOL   H301 4797   4.938   6.507   6.600  0.4313  0.9531 -1.3366
    9MOL   H302 4798   4.958   6.666   6.801 -0.2375  2.8260  0.8148
    9MOL   H303 4799   4.786   7.079   7.002 -0.4202  0.4256  0.1298
    9MOL   H304 4800   4.651   7.015   7.087  0.3254 -2.2098  0.0276
    9MOL   H305 4801   4.516   7.078   6.863  0.1243 -0.2556 -0.9815
    9MOL   H306 4802   4.558   7.210   6.985 -1.1283  1.0808 -1.7607
    9MOL   H307 4803   4.628   6.889   6.652  1.1735  0.6023  1.0320
    9MOL   H308 4804   4.535   6.837   6.444 -1.4945  0.1706 -0.8362
    9MOL   H309 4805   4.516   6.684   6.233 -0.0690  1.5945  0.5696
    9MOL   O310 4806   4.540   7.169   6.654 -0.7197 -0.3364 -0.1154
    9MOL   C311 4807   4.641   7.224   6.705 -0.0741 -0.4526 -0.1635
    9MOL   O312 4808   4.675   7.207   6.826 -0.0100 -0.2866 -0.2509
    9MOL   C313 4809   4.732   7.320   6.640 -0.0353  0.1406  0.3406
    9MOL   C314 4810   4.859   7.354   6.691  0.1069  0.5740 -0.5515
    9MOL   C315 4811   4.944   7.438   6.624 -0.3349 -0.0415  0.0388
    9MOL   C316 4812   5.079   7.457   6.669 -0.1722 -0.0471 -0.0658
    9MOL   C317 4813   5.169   7.535   6.592 -0.3198  0.2001  0.2965
    9MOL   C318 4814   5.118   7.596   6.474  0.7279 -0.0872  0.0926
    9MOL   C319 4815   5.214   7.660   6.385  0.4718  0.7787  0.4415
    9MOL   O320 4816   5.334   7.594   6.381  0.3048  0.0834 -0.8745
    9MOL   C321 4817   5.444   7.658   6.313 -0.2927 -0.2581  0.1091
    9MOL   C322 4818   5.503   7.766   6.396  0.0140  0.2737  0.1535
    9MOL   O323 4819   5.193   7.761   6.314 -0.1320 -0.3844 -0.1097
    9MOL   C324 4820   4.982   7.592   6.433 -0.0288  0.0432 -0.7082
    9MOL   C325 4821   4.896   7.505   6.508 -0.2407  0.2745  0.7587
    9MOL   C326 4822   4.766   7.486   6.464  0.1755 -0.2235 -0.2399
    9MOL   C327 4823   4.688   7.385   6.521  1.1180 -0.0665 -0.1567
    9MOL   H328 4824   4.882   7.320   6.791 -2.6609  1.6690  0.4967
    9MOL   H329 4825   5.115   7.421   6.765 -0.7431 -0.0399  0.1475
    9MOL   H330 4826   5.268   7.551   6.630 -0.1100  0.9257 -0.5463
    9MOL   H331 4827   5.412   7.681   6.212 -3.6287 -0.3948  1.0729
    9MOL   H332 4828   5.529   7.592   6.297 -0.7589 -1.0088  0.6614
    9MOL   H333 4829   5.591   7.805   6.344 -0.6666  1.8506  0.1340
    9MOL   H334 4830   5.435   7.849   6.414 -0.1895  0.0954  0.2093
    9MOL   H335 4831   4.943   7.640   6.344 -1.3037  0.2972 -0.0295
    9MOL   H336 4832   4.736   7.531   6.371 -0.1165  1.7532  0.7845
    9MOL   H337 4833   4.583   7.378   6.496  1.2406 -0.7858 -0.4805
    9MOL   O338 4834   5.774   7.721   6.467  0.1627 -0.0367 -0.1008
    9MOL   C339 4835   5.683   7.684   6.540  0.6578 -0.8398  0.5473
    9MOL   O340 4836   5.547   7.716   6.524 -0.0801 -0.2868  0.5282
    9MOL   C341 4837   5.708   7.619   6.666  0.4908  0.0979 -1.1105
    9MOL   C342 4838   5.600   7.560   6.746 -0.4940 -0.0611 -0.0632
    9MOL   C343 4839   5.631   7.487   6.865  0.6234 -0.1637 -0.1971
    9MOL   C344 4840   5.530   7.429   6.934  0.2549  0.5794  0.4143
    9MOL   C345 4841   5.557   7.338   7.038 -0.3261 -0.4207 -0.3293
    9MOL   C346 4842   5.690   7.323   7.081  0.0849  0.0498 -0.1735
    9MOL   C347 4843   5.712   7.231   7.196 -0.4252  0.4767  0.0262
    9MOL   O348 4844   5.843   7.234   7.229 -0.0009 -0.2890  0.4946
    9MOL   C349 4845   5.891   7.141   7.321 -0.7922  0.3441 -0.4882
    9MOL   C350 4846   5.951   7.027   7.240 -1.0536  0.0967 -0.0476
    9MOL   O351 4847   5.625   7.154   7.240 -0.3991  0.3933 -0.1791
    9MOL   C352 4848   5.795   7.387   7.013  0.1396  0.1853 -0.2253
    9MOL   C353 4849   5.761   7.469   6.904  0.3683 -0.2566 -0.2958
    9MOL   C354 4850   5.865   7.521   6.831  0.3526 -0.0959  0.3750
    9MOL   C355 4851   5.837   7.600   6.715 -0.7481  0.6464 -0.4301
    9MOL   H356 4852   5.497   7.580   6.720 -0.0046 -1.3397 -3.3136
    9MOL   H357 4853   5.428   7.445   6.903  0.7769  1.8321 -0.7398
    9MOL   H358 4854   5.476   7.285   7.086 -1.5415  1.8706  0.2456
    9MOL   H359 4855   5.817   7.106   7.393 -0.2445  0.9881  0.3929
    9MOL   H360 4856   5.970   7.194   7.374  1.1646 -1.9086 -1.0913
    9MOL   H361 4857   5.877   6.947   7.228 -0.3348 -0.4310 -1.0513
    9MOL   H362 4858   5.975   7.064   7.141 -1.9282  1.1524  0.1308
    9MOL   H363 4859   5.900   7.360   7.022  0.7979  2.0019 -1.9950
    9MOL   H364 4860   5.965   7.510   6.870  0.2305 -0.3911  0.6114
    9MOL   H365 4861   5.925   7.635   6.663  0.4415  0.2020  1.2489
    9MOL   O366 4862   6.009   6.965   7.500 -0.0746  0.1867  0.0007
    9MOL   C367 4863   6.094   6.952   7.421  0.5129 -0.5213 -0.4343
    9MOL   O368 4864   6.075   6.969   7.291 -0.0365  0.5590  0.0719
    9MOL   C369 4865   6.233   6.906   7.451 -0.2660  0.4102 -0.0667
    9MOL   C370 4866   6.311   6.848   7.352 -0.9768  0.6069 -0.3865
    9MOL   C371 4867   6.450   6.819   7.379  0.3424  0.0457  0.2003
    9MOL   C372 4868   6.530   6.763   7.274  0.3207 -0.3523 -0.9764
    9MOL   C373 4869   6.666   6.724   7.303 -0.0395  0.3053 -0.6135
    9MOL   C374 4870   6.717   6.736   7.431 -0.1794 -0.4708 -0.7387
    9MOL   C375 4871   6.855   6.689   7.471 -0.2958  0.2908  0.3825
    9MOL   O376 4872   6.908   6.617   7.376  0.7707 -0.0716  0.0409
    9MOL   C377 4873   7.044   6.570   7.389 -1.1820 -0.1085 -0.1984
    9MOL   C378 4874   7.155   6.668   7.363  0.3649 -0.1120 -0.0666
    9MOL   O379 4875   6.915   6.707   7.575  0.3683 -0.2262 -0.0671
    9MOL   C380 4876   6.640   6.801   7.532 -0.0471  0.3619  0.3854
    9MOL   C381 4877   6.508   6.843   7.502 -0.5753 -0.0566 -0.1081
    9MOL   C382 4878   6.429   6.905   7.600  0.0805  0.0605 -0.0447
    9MOL   C383 4879   6.295   6.942   7.575 -0.5362  0.0085  0.5945
    9MOL   H384 4880   6.284   6.821   7.251  0.3609 -2.9571  0.1152
    9MOL   H385 4881   6.476   6.748   7.182 -0.7469  1.1766 -0.6305
    9MOL   H386 4882   6.715   6.674   7.221 -0.9502 -1.5563 -0.0539
    9MOL   H387 4883   7.067   6.478   7.335  0.8803  1.3548 -1.8918
    9MOL   H388 4884   7.049   6.542   7.495  0.5495  1.6577  0.2070
    9MOL   H389 4885   7.170   6.678   7.256 -2.1943 -2.1197 -0.6679
    9MOL   H390 4886   7.136   6.767   7.405  1.0226  0.8047 -1.9030
    9MOL   H391 4887   6.670   6.826   7.633  0.4547  0.0095  0.3236
    9MOL   H392 4888   6.466   6.932   7.697 -0.2186  1.7040 -0.3732
    9MOL   H393 4889   6.230   6.997   7.640  1.2973 -0.3203  2.7741
    9MOL   O394 4890   7.316   6.489   7.249  0.0431  0.3685  0.5844
    9MOL   C395 4891   7.350   6.531   7.358  0.0510 -0.4324  0.0758
    9MOL   O396 4892   7.274   6.617   7.425 -0.6794 -0.8717  0.2240
    9MOL   C397 4893   7.464   6.481   7.435 -0.1603  0.0993 -0.6601
    9MOL   C398 4894   7.567   6.411   7.379  0.0773 -0.4728 -0.1026
    9MOL   C399 4895   7.656   6.334   7.458  0.0018 -0.2682  0.5161
    9MOL   C400 4896   7.762   6.259   7.391  0.4631  0.2418  0.0272
    9MOL   C401 4897   7.844   6.172   7.468 -0.4959  0.5949  0.2420
    9MOL   C402 4898   7.830   6.173   7.611  0.6016 -0.0121 -0.2660
    9MOL   C403 4899   7.907   6.073   7.687 -0.8270 -0.4230  0.5965
    9MOL   O404 4900   8.019   6.028   7.621  0.3351  1.0426  0.8610
    9MOL   C405 4901   8.105   5.932   7.683 -0.4394 -0.4899 -0.5330
    9MOL   C406 4902   8.209   6.001   7.772 -0.5203  0.3347  0.2378
    9MOL   O407 4903   7.874   6.022   7.793  0.4630  0.5970  0.3911
    9MOL   C408 4904   7.725   6.245   7.674 -0.3342  0.3166 -0.1194
    9MOL   C409 4905   7.637   6.328   7.599  0.5182  0.2544  0.0478
    9MOL   C410 4906   7.535   6.404   7.657  0.1076  1.0978  0.5796
    9MOL   C411 4907   7.460   6.485   7.574  0.0182 -0.5130 -0.7306
    9MOL   H412 4908   7.563   6.400   7.271 -1.1268  1.2086 -0.2584
    9MOL   H413 4909   7.758   6.255   7.283 -0.3643 -0.1350  0.0695
    9MOL   H414 4910   7.927   6.127   7.415 -1.6494  1.3920 -2.3392
    9MOL   H415 4911   8.156   5.880   7.602  0.4484 -0.3367 -0.0796
    9MOL   H416 4912   8.056   5.852   7.738  2.5257 -3.2030 -1.6670
    9MOL   H417 4913   0.039   5.937   7.811  0.6044  0.9408 -1.0142
    9MOL   H418 4914   0.010   6.085   7.723 -2.4600  1.3690 -0.0418
    9MOL   H419 4915   7.716   6.228   7.781 -1.7059  2.8381  0.2178
    9MOL   H420 4916   7.533   6.409   7.765 -1.3024  0.8365  0.5767
    9MOL   H421 4917   7.372   6.531   7.617  1.6871 -2.1584  4.7754
    9MOL   O422 4918   8.095   5.860   7.968 -0.4004  0.2991 -0.8015
    9MOL   C423 4919   8.093   5.981   7.984 -0.3072 -0.2428  0.1589
    9MOL   O424 4920   8.148   6.060   7.887 -0.0508  0.0294  0.0677
    9MOL   C425 4921   8.036   6.052   8.103 -0.4000 -0.5047 -0.1196
    9MOL   C426 4922   7.961   5.981   8.195 -1.1337  0.3657  0.1873
    9MOL   C427 4923   7.913   6.042   0.061  0.8037 -0.1532  0.2353
    9MOL   C428 4924   7.839   5.972   0.156  0.4686 -0.4809 -0.0248
    9MOL   C429 4925   7.782   6.044   0.268 -0.0163  0.4912 -0.1455
    9MOL   C430 4926   7.804   6.186   0.281  0.3418  0.1637 -0.8910
    9MOL   C431 4927   7.765   6.265   0.402  0.5437  0.1979  0.3669
    9MOL   O432 4928   7.707   6.379   0.360  0.0095 -0.1082 -0.1857
    9MOL   C433 4929   7.683   6.485   0.450  0.0262 -0.3777 -0.1399
    9MOL   C434 4930   7.769   6.609   0.428 -0.1638 -0.1047 -0.1789
    9MOL   O435 4931   7.791   6.222   0.519  0.6277 -0.5296 -0.4911
    9MOL   C436 4932   7.876   6.252   0.181  0.0864 -0.0779  0.2563
    9MOL   C437 4933   7.936   6.179   0.073  0.7770  0.1814  0.7729
    9MOL   C438 4934   8.009   6.252   8.229  0.8120  0.2031 -0.8670
    9MOL   C439 4935   8.058   6.192   8.114  0.2239  0.7632 -0.4539
    9MOL   H440 4936   7.952   5.876   8.170  0.5772  0.0224  0.9139
    9MOL   H441 4937   7.823   5.865   0.150  0.0549 -0.4160 -0.0501
    9MOL   H442 4938   7.725   5.991   0.343  1.2418  0.5533  0.8664
    9MOL   H443 4939   7.677   6.455   0.555 -0.6838 -0.1371 -0.1034
    9MOL   H444 4940   7.581   6.523   0.445 -0.3097 -0.9835  1.7042
    9MOL   H445 4941   7.869   6.583   0.461 -0.2590 -1.9195 -1.2455
    9MOL   H446 4942   7.762   6.634   0.322 -2.6669  3.3882  0.7185
    9MOL   H447 4943   7.903   6.356   0.191 -0.0276  0.0938 -1.0901
    9MOL   H448 4944   8.032   6.356   8.246  0.0028  0.0651  1.2613
    9MOL   H449 4945   8.108   6.255   8.042 -2.2680 -0.3877 -3.3387
    9MOL   O450 4946   7.871   6.681   0.663 -0.4242  0.4959  0.0296
    9MOL   C451 4947   7.773   6.740   0.623  0.0158 -0.4348 -0.4727
    9MOL   O452 4948   7.719   6.716   0.507  0.5389 -0.3872  0.4457
    9MOL   C453 4949   7.691   6.835   0.698  0.4244  0.1532 -0.4559
    9MOL   C454 4950   7.553   6.824   0.708 -0.1514  0.1856 -0.0077
    9MOL   C455 4951   7.478   6.925   0.767  0.3398 -0.1944  0.4748
    9MOL   C456 4952   7.342   6.914   0.781 -0.1288  0.4138 -0.6011
    9MOL   C457 4953   7.268   7.008   0.855 -0.2318 -0.1748  0.5328
    9MOL   C458 4954   7.328   7.119   0.917 -0.1850 -0.1354 -0.8638
    9MOL   C459 4955   7.246   7.223   0.983  0.5790  0.7080  0.4046
    9MOL   O460 4956   7.113   7.190   0.994  0.0716  0.2821  0.1359
    9MOL   C461 4957   7.021   7.267   1.065 -0.3175  0.2664  0.1981
    9MOL   C462 4958   6.904   7.306   0.978  0.4622 -0.4077 -0.2111
    9MOL   O463 4959   7.289   7.333   1.022  0.0680 -0.1411  0.2334
    9MOL   C464 4960   7.461   7.136   0.897 -0.4618 -0.1118 -0.0908
    9MOL   C465 4961   7.536   7.042   0.825 -0.0256  0.1179 -0.6437
    9MOL   C466 4962   7.675   7.056   0.816  0.0719  0.0925  0.8758
    9MOL   C467 4963   7.751   6.949   0.755  0.1646 -0.5796  0.2336
    9MOL   H468 4964   7.502   6.738   0.668 -0.5845 -0.2717  1.4904
    9MOL   H469 4965   7.287   6.831   0.737 -0.4683 -0.3056  1.1667
    9MOL   H470 4966   7.161   6.991   0.849 -0.4421  1.5492 -0.8827
    9MOL   H471 4967   7.073   7.354   1.104 -1.3954  0.0263  2.2377
    9MOL   H472 4968   6.984   7.208   1.149  0.3813 -1.3839 -0.6385
    9MOL   H473 4969   6.846   7.368   1.046 -0.5673 -1.0381 -0.4865
    9MOL   H474 4970   6.946   7.345   0.885 -2.5720 -0.1086 -1.5326
    9MOL   H475 4971   7.504   7.223   0.945  0.2676 -0.4817 -0.0622
    9MOL   H476 4972   7.725   7.147   0.847  0.9983  0.1720 -0.8041
    9MOL   H477 4973   7.856   6.964   0.737  0.1489 -1.5415 -0.6530
    9MOL   O478 4974   6.940   7.102   0.786 -0.5741  0.3107 -0.3761
    9MOL   C479 4975   6.838   7.106   0.852  0.1209 -0.1231  0.3314
    9MOL   O480 4976   6.818   7.191   0.954  0.9429 -0.3416  0.1471
    9MOL   C481 4977   6.725   7.011   0.843 -0.0844  0.2693  0.1938
    9MOL   C482 4978   6.609   7.011   0.927 -0.0429 -0.1910  0.7543
    9MOL   C483 4979   6.508   6.926   0.899 -0.0118 -0.0650 -0.3605
    9MOL   C484 4980   6.381   6.943   0.959  0.0572 -0.2828 -0.0179
    9MOL   C485 4981   6.276   6.850   0.930 -0.0864 -0.1223  0.5929
    9MOL   C486 4982   6.299   6.742   0.841 -1.1058 -0.2340  0.2271
    9MOL   C487 4983   6.206   6.628   0.822  0.0663  0.1352 -0.3279
    9MOL   O488 4984   6.086   6.662   0.885 -0.2005 -0.0016  0.9022
    9MOL   C489 4985   5.967   6.590   0.860  0.1476  0.8987  0.0929
    9MOL   C490 4986   5.870   6.694   0.822 -0.1820  0.7130 -0.0206
    9MOL   O491 4987   6.225   6.538   0.736 -0.2627  0.1323 -0.7023
    9MOL   C492 4988   6.421   6.732   0.769  0.1263  0.2679  0.4773
    9MOL   C493 4989   6.526   6.820   0.798  0.0050 -0.2898  0.0692
    9MOL   C494 4990   6.647   6.814   0.726  0.2990  0.2874 -0.0619
    9MOL   C495 4991   6.749   6.906   0.747  0.6687 -0.6879  0.1694
    9MOL   H496 4992   6.597   7.088   1.001  2.4546 -0.0749  1.0989
    9MOL   H497 4993   6.363   7.008   1.043  0.9960 -0.2997  0.2057
    9MOL   H498 4994   6.187   6.870   0.988 -0.8955  1.4879 -1.1683
    9MOL   H499 4995   5.943   6.537   0.952 -0.3877 -0.2955 -0.7151
    9MOL   H500 4996   5.986   6.522   0.776 -2.7708 -1.5870  1.3331
    9MOL   H501 4997   5.915   6.777   0.768 -0.1711 -0.0776 -1.2369
    9MOL   H502 4998   5.803   6.659   0.743 -0.4436  0.5604  0.2644
    9MOL   H503 4999   6.431   6.649   0.701 -2.3186 -0.3357  0.7821
    9MOL   H504 5000   6.656   6.737   0.651  0.2633  1.1546 -0.9556
    9MOL   H505 5001   6.838   6.902   0.687  2.2937 -1.5628  2.5524
    9MOL   O506 5002   5.899   6.910   0.996  0.6503 -0.0634 -0.2796
    9MOL   C507 5003   5.799   6.844   1.003 -0.1185  0.3657  0.3742
    9MOL   O508 5004   5.782   6.735   0.935 -0.0809 -0.4765  0.5044
    9MOL   C509 5005   5.672   6.893   1.068 -0.4540  0.7879  0.2488
    9MOL   C510 5006   5.562   6.805   1.067  0.4785 -0.2866  0.8407
    9MOL   C511 5007   5.440   6.846   1.122 -0.4562 -0.2959 -0.1921
    9MOL   C512 5008   5.324   6.764   1.110 -0.3249 -0.2241 -0.5065
    9MOL   C513 5009   5.198   6.812   1.159 -1.0275 -0.9159  0.3361
    9MOL   C514 5010   5.195   6.922   1.241  0.1355 -1.0777 -0.3023
    9MOL   C515 5011   5.073   6.967   1.310  0.5108  0.2082  0.9489
    9MOL   O516 5012   4.969   6.907   1.265 -0.1378 -0.2453  0.2067
    9MOL   C517 5013   4.840   6.933   1.318  0.4443  0.0253 -0.0546
    9MOL   C518 5014   4.822   6.843   1.443  0.3291 -0.6807 -0.0799
    9MOL   O519 5015   5.076   7.056   1.392 -0.6506  0.1188 -0.0150
    9MOL   C520 5016   5.315   6.997   1.266 -0.2918  0.1928  0.6892
    9MOL   C521 5017   5.432   6.970   1.192  0.0184 -0.6142 -0.0857
    9MOL   C522 5018   5.539   7.059   1.190 -0.6091 -0.5589  0.9968
    9MOL   C523 5019   5.658   7.022   1.125 -0.5289  1.2812 -0.2572
    9MOL   H524 5020   5.578   6.707   1.024  2.7168  1.1399 -1.7280
    9MOL   H525 5021   5.340   6.672   1.055 -0.5439 -0.0742 -0.8191
    9MOL   H526 5022   5.108   6.768   1.118 -2.7829  1.3095  1.6972
    9MOL   H527 5023   4.760   6.920   1.245  0.2438 -1.5875  0.4334
    9MOL   H528 5024   4.843   7.038   1.347 -0.8113  0.4715 -1.4958
    9MOL   H529 5025   4.725   6.863   1.488  0.4255 -0.3524 -0.0162
    9MOL   H530 5026   4.814   6.739   1.412 -0.9665  0.3747 -3.5558
    9MOL   H531 5027   5.324   7.077   1.338  1.3518  0.3643  0.3270
    9MOL   H532 5028   5.540   7.154   1.241 -0.6999 -1.4778  2.7260
    9MOL   H533 5029   5.743   7.088   1.129  1.3429 -1.1537  0.7597
    9MOL   O534 5030   4.800   6.739   1.696  0.4505  0.7154 -0.1932
    9MOL   C535 5031   4.905   6.799   1.663 -0.1663 -1.0033  0.2423
    9MOL   O536 5032   4.920   6.861   1.545  0.3684  0.2026 -0.4471
    9MOL   C537 5033   5.026   6.801   1.748 -0.1625 -0.0141 -0.2073
    9MOL   C538 5034   5.015   6.737   1.869 -0.5603 -0.3297  0.5524
    9MOL   C539 5035   5.124   6.731   1.959 -0.5357  0.4792 -0.1252
    9MOL   C540 5036   5.108   6.656   2.081  0.4522  0.3003 -0.4603
    9MOL   C541 5037   5.207   6.663   2.180 -0.6830 -0.8252 -0.3810
    9MOL   C542 5038   5.326   6.733   2.152 -1.1881 -0.3254 -0.0299
    9MOL   C543 5039   5.427   6.745   2.260 -0.5005  0.2491  0.6161
    9MOL   O544 5040   5.521   6.833   2.234 -0.2354  0.1761 -0.8223
    9MOL   C545 5041   5.623   6.862   2.337 -0.7431  0.5913 -0.5533
    9MOL   C546 5042   5.757   6.876   2.266  0.4651  0.2884 -0.3731
    9MOL   O547 5043   5.421   6.685   2.369 -0.0251  0.5392 -0.4072
    9MOL   C548 5044   5.349   6.798   2.025  0.0299 -0.2336  0.4415
    9MOL   C549 5045   5.244   6.800   1.930 -0.0795  0.3001  0.5363
    9MOL   C550 5046   5.254   6.875   1.809 -0.7732  0.1767  0.2023
    9MOL   C551 5047   5.148   6.876   1.721 -0.5647  0.2713 -0.1882
    9MOL   H552 5048   4.928   6.679   1.895 -2.0250  1.6302  0.0240
    9MOL   H553 5049   5.026   6.588   2.099  0.2367  0.5332 -0.5566
    9MOL   H554 5050   5.193   6.618   2.277  0.7910 -0.8411 -0.1608
    9MOL   H555 5051   5.626   6.791   2.420  0.0653 -0.4235 -1.4328
    9MOL   H556 5052   5.595   6.955   2.387 -1.8207 -0.5315  0.9853
    9MOL   H557 5053   5.789   6.784   2.217  0.6331  1.3001 -2.2369
    9MOL   H558 5054   5.836   6.904   2.336  0.3551  0.7923 -0.4491
    9MOL   H559 5055   5.436   6.860   2.014 -0.1482 -0.2590 -1.2121
    9MOL   H560 5056   5.342   6.934   1.786 -1.2716  0.7363 -0.2784
    9MOL   H561 5057   5.153   6.938   1.632  0.9788 -0.1836 -0.4272
    9MOL   H562 5058   5.746   6.954   2.190 -5.0771  1.2521  1.2167
   10MOL     O1 5059   8.107   2.770   7.874  0.4730  0.2632 -0.0534
   10MOL     C2 5060   8.144   2.782   7.760  0.0404 -0.0227  0.2254
   10MOL     O3 5061   0.013   2.841   7.729 -0.3881 -0.1284  0.4357
   10MOL     C4 5062   8.055   2.746   7.648 -0.3026  0.3938  0.3201
   10MOL     C5 5063   7.919   2.717   7.672  0.0366  0.2954  1.1760
   10MOL     C6 5064   7.840   2.687   7.559  0.1296 -0.4169  1.0617
   10MOL     C7 5065   7.703   2.652   7.580  0.3164 -0.3874  0.0682
   10MOL     C8 5066   7.611   2.650   7.475  0.5566  0.0044  0.4889
   10MOL     C9 5067   7.653   2.683   7.342 -0.1754 -0.9575  0.0268
   10MOL    C10 5068   7.566   2.689   7.227  0.6990 -0.0896  0.4222
   10MOL    O11 5069   7.445   2.733   7.253 -0.8725 -0.4462  0.7344
   10MOL    C12 5070   7.345   2.751   7.147  0.1210 -0.2843  1.0281
   10MOL    C13 5071   7.378   2.883   7.068 -0.5449 -0.4649 -0.3244
   10MOL    O14 5072   7.599   2.657   7.116  0.2400 -0.6161  0.0768
   10MOL    C15 5073   7.794   2.694   7.324 -0.0558  0.1412  0.6673
   10MOL    C16 5074   7.888   2.705   7.427  0.2110 -0.6736  0.2385
   10MOL    C17 5075   8.025   2.745   7.404 -0.5434 -0.0347 -0.5777
   10MOL    C18 5076   8.105   2.758   7.515 -0.0209 -0.1209  0.1549
   10MOL    H19 5077   7.870   2.706   7.768 -0.4493  1.1943  1.0313
   10MOL    H20 5078   7.659   2.638   7.678 -0.1245  2.3983  0.2881
   10MOL    H21 5079   7.507   2.628   7.489  0.3472  1.2603  1.0003
   10MOL    H22 5080   7.348   2.669   7.076 -1.0996  0.0124  0.6303
   10MOL    H23 5081   7.248   2.770   7.193 -0.2423 -1.2334  0.6499
   10MOL    H24 5082   7.352   2.974   7.122  2.7141  0.9593 -1.0125
   10MOL    H25 5083   7.485   2.883   7.048 -0.7431 -2.0984 -1.4907
   10MOL    H26 5084   7.824   2.692   7.221 -0.3326 -0.2929  0.5950
   10MOL    H27 5085   8.058   2.772   7.306 -0.1116  1.5015 -0.0229
   10MOL    H28 5086   8.208   2.783   7.493 -0.6232  2.2657 -0.0364
   10MOL    H29 5087   0.062   2.843   7.810  0.7818 -0.8046 -0.2311
   10MOL    O30 5088   7.107   2.924   7.043 -0.2581  0.1664 -0.0081
   10MOL    C31 5089   7.176   2.898   6.943 -0.3301 -0.6202  0.5249
   10MOL    O32 5090   7.314   2.875   6.950 -0.3186  0.2546  0.4749
   10MOL    C33 5091   7.129   2.904   6.803 -0.2621 -0.5057  0.2860
   10MOL    C34 5092   7.002   2.958   6.770  0.2276  0.0109  0.7358
   10MOL    C35 5093   6.965   2.976   6.634 -0.7944 -0.4695 -0.2354
   10MOL    C36 5094   6.845   3.044   6.597  0.2507  0.0752  0.2600
   10MOL    C37 5095   6.812   3.063   6.464  0.9617 -0.7317  0.8045
   10MOL    C38 5096   6.897   3.018   6.362 -0.1056  0.5928 -0.2778
   10MOL    C39 5097   6.858   3.036   6.221  0.2404 -0.4747  0.4867
   10MOL    O40 5098   6.733   3.072   6.209 -0.0352  0.0053 -0.0796
   10MOL    C41 5099   6.671   3.095   6.083  0.2293 -0.1806 -0.2501
   10MOL    C42 5100   6.660   3.241   6.046  0.0166  0.1392  0.2998
   10MOL    O43 5101   6.930   3.001   6.128 -0.2867 -0.0750 -0.2094
   10MOL    C44 5102   7.013   2.953   6.397 -1.0285  0.0316 -0.0105
   10MOL    C45 5103   7.051   2.934   6.529 -0.0924 -0.5311  0.3642
   10MOL    C46 5104   7.170   2.866   6.557 -0.3409  0.1022  0.3062
   10MOL    C47 5105   7.210   2.863   6.695 -0.5882 -0.5148  0.0711
   10MOL    H48 5106   6.948   2.998   6.855  0.3301  0.5018  0.5749
   10MOL    H49 5107   6.777   3.085   6.671 -0.9497 -2.0789  0.4006
   10MOL    H50 5108   6.722   3.118   6.441  0.6876 -1.7231 -0.5295
   10MOL    H51 5109   6.576   3.042   6.080  0.6945 -0.9709 -1.5509
   10MOL    H52 5110   6.737   3.053   6.008  2.2292  3.2848 -0.5382
   10MOL    H53 5111   6.755   3.294   6.058 -0.9492  1.1616  3.9478
   10MOL    H54 5112   6.644   3.266   5.941  1.7433  2.4018  0.5232
   10MOL    H55 5113   7.087   2.926   6.322  0.9860  3.0095  0.7850
   10MOL    H56 5114   7.238   2.826   6.484  2.2441  0.3263  2.4661
   10MOL    H57 5115   7.303   2.814   6.716 -1.3475 -2.0636 -0.1182
   10MOL    O58 5116   6.687   3.390   6.282 -0.6284  0.0157  0.2748
   10MOL    C59 5117   6.573   3.359   6.250  0.0988  0.0975 -0.6401
   10MOL    O60 5118   6.551   3.293   6.125  0.4143 -0.1272 -0.0888
   10MOL    C61 5119   6.450   3.385   6.332  0.1924  0.0745  0.5999
   10MOL    C62 5120   6.451   3.477   6.442  0.3412  0.4303  0.3569
   10MOL    C63 5121   6.330   3.506   6.516 -0.2736  0.1592 -0.0384
   10MOL    C64 5122   6.327   3.596   6.622 -0.0479 -0.2467 -0.0363
   10MOL    C65 5123   6.199   3.630   6.680 -0.4952  0.0910 -0.3202
   10MOL    C66 5124   6.090   3.545   6.660  0.4151  1.0580  0.0083
   10MOL    C67 5125   5.966   3.567   6.738  0.4769 -0.3511  0.1302
   10MOL    O68 5126   5.852   3.521   6.683 -0.2340 -0.0483 -0.6007
   10MOL    C69 5127   5.727   3.567   6.732  0.2029  0.6912  0.7559
   10MOL    C70 5128   5.680   3.482   6.858 -0.0492  0.4422 -0.4201
   10MOL    O71 5129   5.962   3.637   6.836 -0.3242  0.0574 -0.4343
   10MOL    C72 5130   6.100   3.444   6.564 -0.7435 -0.2071 -0.4203
   10MOL    C73 5131   6.211   3.428   6.488 -0.2677  0.1272 -0.2070
   10MOL    C74 5132   6.211   3.339   6.382 -0.6470 -0.1349  0.0506
   10MOL    C75 5133   6.329   3.323   6.301 -0.0538  0.3614 -0.4765
   10MOL    H76 5134   6.540   3.528   6.476 -0.2858  0.8307  1.4228
   10MOL    H77 5135   6.416   3.649   6.654  1.2749 -2.4293 -0.0305
   10MOL    H78 5136   6.194   3.715   6.747  1.5060  0.8484 -1.0835
   10MOL    H79 5137   5.665   3.538   6.647 -0.6084 -2.4423  2.3290
   10MOL    H80 5138   5.718   3.676   6.733 -0.8386  0.6218  0.2105
   10MOL    H81 5139   5.720   3.384   6.832 -0.2089  0.5842 -1.2352
   10MOL    H82 5140   5.731   3.530   6.942  1.8768  1.1094 -1.9213
   10MOL    H83 5141   6.014   3.381   6.546 -1.6305  1.0261 -0.5544
   10MOL    H84 5142   6.117   3.296   6.350 -0.3864  0.1337 -1.0950
   10MOL    H85 5143   6.329   3.258   6.215  1.5978  0.4219 -0.5395
   10MOL    O86 5144   5.551   3.274   6.967 -0.6632  0.4283  0.3793
   10MOL    C87 5145   5.484   3.371   6.930  0.2213  0.3983  0.6454
   10MOL    O88 5146   5.537   3.474   6.878 -0.4732 -0.1630 -0.4591
   10MOL    C89 5147   5.342   3.399   6.964 -1.0093 -0.3052  0.1435
   10MOL    C90 5148   5.298   3.337   7.084 -0.3217 -0.2571  0.4337
   10MOL    C91 5149   5.172   3.373   7.144  0.3795  0.2061 -0.1646
   10MOL    C92 5150   5.139   3.322   7.270 -0.0307  0.3166 -0.0180
   10MOL    C93 5151   5.021   3.358   7.337  0.1014 -0.2248 -0.3890
   10MOL    C94 5152   4.940   3.460   7.272  0.0653 -1.2654  0.3062
   10MOL    C95 5153   4.814   3.501   7.350 -0.0778 -0.0379  0.1135
   10MOL    O96 5154   4.747   3.607   7.288 -0.2367 -0.3958  0.5321
   10MOL    C97 5155   4.616   3.637   7.317 -0.1625  0.0894 -0.0456
   10MOL    C98 5156   4.527   3.528   7.244  0.3365 -0.1080 -0.1216
   10MOL    O99 5157   4.770   3.449   7.452 -0.1537  0.6984  0.6156
   10MOL   C100 5158   4.974   3.510   7.142  0.0381  0.4258  0.2684
   10MOL   C101 5159   5.087   3.461   7.079  0.0115 -0.3199 -1.2972
   10MOL   C102 5160   5.120   3.512   6.949  0.0732  0.4487  0.1732
   10MOL   C103 5161   5.256   3.493   6.899  0.2461 -0.1288  0.1817
   10MOL   H104 5162   5.357   3.267   7.140 -0.9749 -0.1011  1.3189
   10MOL   H105 5163   5.206   3.250   7.315  1.8265  1.0981 -1.4568
   10MOL   H106 5164   5.009   3.336   7.443 -1.6452 -0.6383 -0.6601
   10MOL   H107 5165   4.595   3.726   7.258 -2.5379 -0.7619 -0.5388
   10MOL   H108 5166   4.584   3.643   7.421  0.5531 -1.1310  0.2551
   10MOL   H109 5167   4.545   3.427   7.282  0.9489  0.2851  0.6555
   10MOL   H110 5168   4.420   3.534   7.263  0.6592 -1.6862  2.5166
   10MOL   H111 5169   4.918   3.588   7.092  0.9047  0.5785 -0.4773
   10MOL   H112 5170   5.067   3.586   6.892  0.2406  0.8571  0.5522
   10MOL   H113 5171   5.285   3.557   6.818 -2.2490 -0.2771 -0.8746
   10MOL   O114 5172   4.447   3.731   7.052  0.4772 -0.4097  0.1988
   10MOL   C115 5173   4.529   3.641   7.021 -0.3343  0.1266 -0.2235
   10MOL   O116 5174   4.553   3.531   7.103  0.3059 -0.2710  0.1112
   10MOL   C117 5175   4.614   3.645   6.900  0.1858  0.0669 -0.0240
   10MOL   C118 5176   4.615   3.755   6.814  0.2794  1.1266 -0.6258
   10MOL   C119 5177   4.672   3.763   6.684 -0.3826  0.6691  0.5637
   10MOL   C120 5178   4.657   3.876   6.601 -0.7034 -0.1544 -0.8156
   10MOL   C121 5179   4.729   3.891   6.479  0.5425  0.4071  0.3080
   10MOL   C122 5180   4.796   3.774   6.436  0.9001  0.0126 -0.2465
   10MOL   C123 5181   4.877   3.783   6.313 -0.3275  0.1855  0.1149
   10MOL   O124 5182   4.930   3.668   6.271  0.2874  0.0393  0.1439
   10MOL   C125 5183   5.013   3.652   6.155  0.4127  0.0204 -0.4036
   10MOL   C126 5184   5.161   3.672   6.186  0.2160 -0.4886  0.2080
   10MOL   O127 5185   4.894   3.888   6.252  0.1653  0.1133 -0.1677
   10MOL   C128 5186   4.792   3.654   6.510  0.3208 -0.7608  0.2845
   10MOL   C129 5187   4.736   3.649   6.642  0.0846 -0.4688  0.0220
   10MOL   C130 5188   4.745   3.530   6.722  0.0453 -1.0325  0.2455
   10MOL   C131 5189   4.689   3.528   6.853  0.1374  0.0317  0.4945
   10MOL   H132 5190   4.571   3.850   6.841 -2.9228 -1.0367  2.1997
   10MOL   H133 5191   4.596   3.959   6.633 -0.0651 -0.4864  1.4106
   10MOL   H134 5192   4.741   3.983   6.425  2.0529  0.6210  0.9733
   10MOL   H135 5193   4.972   3.701   6.068 -0.3281  0.5455  0.2429
   10MOL   H136 5194   5.016   3.545   6.134 -0.8639 -0.2160  0.5847
   10MOL   H137 5195   5.190   3.618   6.276 -0.8353 -0.0641  0.8201
   10MOL   H138 5196   5.213   3.624   6.104  0.7642 -1.3340  1.0297
   10MOL   H139 5197   4.847   3.564   6.488  2.5675  0.7398 -0.4177
   10MOL   H140 5198   4.799   3.443   6.686 -2.0834 -2.5045  0.4872
   10MOL   H141 5199   4.681   3.438   6.912  0.0614  1.4571  2.6978
   10MOL   O142 5200   5.427   3.747   6.200  0.0143 -0.0488  0.0395
   10MOL   C143 5201   5.336   3.833   6.213  0.6700  0.9654  0.2513
   10MOL   O144 5202   5.200   3.806   6.204  0.0100 -0.1977  0.1599
   10MOL   C145 5203   5.360   3.979   6.194  0.0172  0.0698 -0.4876
   10MOL   C146 5204   5.493   4.024   6.170  0.0291  0.0132  0.2122
   10MOL   C147 5205   5.517   4.163   6.159 -0.1877  0.2608 -0.3379
   10MOL   C148 5206   5.651   4.210   6.156  0.5061  0.2440 -0.2655
   10MOL   C149 5207   5.670   4.343   6.122 -0.5338 -0.5966 -0.5682
   10MOL   C150 5208   5.561   4.431   6.093 -0.2469 -0.2012 -0.2371
   10MOL   C151 5209   5.576   4.570   6.050 -0.0908  0.2531  0.2658
   10MOL   O152 5210   5.696   4.606   6.001 -0.0709 -0.1230 -0.2229
   10MOL   C153 5211   5.702   4.740   5.951 -0.2629  0.3984 -0.3080
   10MOL   C154 5212   5.656   4.743   5.808 -0.1616  0.2199 -0.5007
   10MOL   O155 5213   5.489   4.657   6.062  0.3224 -0.0008  0.3648
   10MOL   C156 5214   5.428   4.383   6.105 -0.3997  0.1913 -0.0893
   10MOL   C157 5215   5.405   4.252   6.148  0.2799  0.0460  0.4512
   10MOL   C158 5216   5.273   4.206   6.159 -0.7414 -0.0807  0.0917
   10MOL   C159 5217   5.252   4.070   6.188  0.6737 -0.2366  0.3298
   10MOL   H160 5218   5.574   3.954   6.156  0.6477  0.9507 -1.0536
   10MOL   H161 5219   5.741   4.152   6.171 -0.0426 -0.9014 -1.4363
   10MOL   H162 5220   5.770   4.375   6.095 -0.2898 -0.0311  0.9874
   10MOL   H163 5221   5.810   4.754   5.948  0.1335 -2.3820 -0.9270
   10MOL   H164 5222   5.657   4.817   6.012  0.3715 -0.0515  0.7515
   10MOL   H165 5223   5.699   4.831   5.760  1.7864  0.5520  1.7420
   10MOL   H166 5224   5.684   4.663   5.740  2.1585  0.3603  0.2355
   10MOL   H167 5225   5.341   4.441   6.080 -1.4633 -1.2813  0.1254
   10MOL   H168 5226   5.180   4.259   6.146 -0.9586 -0.1029  1.4737
   10MOL   H169 5227   5.146   4.049   6.193  0.1302  2.6065  1.4802
   10MOL   O170 5228   5.534   4.958   5.698 -0.3470  0.8097  0.7402
   10MOL   C171 5229   5.462   4.863   5.737  0.2645  0.2621  0.2515
   10MOL   O172 5230   5.513   4.759   5.803 -0.4470  0.9263  0.0575
   10MOL   C173 5231   5.317   4.847   5.700 -0.2560  0.4252 -0.0698
   10MOL   C174 5232   5.237   4.749   5.769 -0.5039  0.2317  0.4377
   10MOL   C175 5233   5.097   4.740   5.734  0.3537 -0.4931  0.0202
   10MOL   C176 5234   5.013   4.632   5.777 -0.1220  0.7550  0.5443
   10MOL   C177 5235   4.881   4.632   5.734 -0.2748 -0.9557 -0.6734
   10MOL   C178 5236   4.819   4.727   5.649 -0.1276 -0.5076 -0.3799
   10MOL   C179 5237   4.678   4.730   5.605  0.4788 -0.2932  0.1543
   10MOL   O180 5238   4.604   4.628   5.659 -0.6511  0.3486  0.1160
   10MOL   C181 5239   4.473   4.611   5.610 -0.2157  0.5093  0.3254
   10MOL   C182 5240   4.401   4.484   5.658 -0.4226  0.2449  0.0205
   10MOL   O183 5241   4.628   4.817   5.532  0.2401  0.3648 -0.6295
   10MOL   C184 5242   4.907   4.823   5.599 -0.6920  0.8648 -0.6583
   10MOL   C185 5243   5.044   4.828   5.637  0.4067  0.2918 -0.4460
   10MOL   C186 5244   5.120   4.931   5.581 -0.3304  0.4301  0.0888
   10MOL   C187 5245   5.257   4.938   5.609  0.6654 -0.9027  0.6241
   10MOL   H188 5246   5.286   4.678   5.833  0.7792 -0.0455 -0.8143
   10MOL   H189 5247   5.045   4.550   5.839 -0.7940  0.7016  0.8267
   10MOL   H190 5248   4.827   4.546   5.770 -1.1785 -0.3772 -0.6340
   10MOL   H191 5249   4.461   4.617   5.502  1.5693 -1.3542 -0.0091
   10MOL   H192 5250   4.415   4.697   5.644 -2.6101 -0.3699 -1.4130
   10MOL   H193 5251   4.400   4.411   5.577 -0.6080  0.7052 -0.3977
   10MOL   H194 5252   4.455   4.450   5.746  2.7517  2.7522 -0.8324
   10MOL   H195 5253   4.883   4.894   5.521  2.8461 -0.5965 -3.2085
   10MOL   H196 5254   5.073   4.999   5.512  0.9886 -0.7932 -2.0556
   10MOL   H197 5255   5.311   5.005   5.544  0.8173 -2.5748 -1.0042
   10MOL   O198 5256   4.178   4.456   5.506 -0.0289  0.4474  0.0061
   10MOL   C199 5257   4.168   4.509   5.616 -0.0515 -0.2387 -0.4348
   10MOL   O200 5258   4.275   4.523   5.700  0.0108 -0.2500  0.1418
   10MOL   C201 5259   4.040   4.535   5.694 -0.3900 -0.1518  0.2771
   10MOL   C202 5260   4.034   4.571   5.828 -0.3176 -0.2588 -0.7036
   10MOL   C203 5261   3.908   4.595   5.886  0.8958  0.0842 -0.1015
   10MOL   C204 5262   3.897   4.641   6.023  0.0884 -0.3886 -0.1855
   10MOL   C205 5263   3.768   4.669   6.076  0.4838 -0.4389 -0.3016
   10MOL   C206 5264   3.655   4.664   5.994  0.1462  0.3026  0.3962
   10MOL   C207 5265   3.520   4.702   6.052 -0.2173  0.5571  0.2665
   10MOL   O208 5266   3.529   4.769   6.165  0.1946  0.1619  0.0329
   10MOL   C209 5267   3.414   4.807   6.245 -0.3524  0.0126  0.4836
   10MOL   C210 5268   3.324   4.703   6.308  0.2432 -0.0859  0.5415
   10MOL   O211 5269   3.411   4.675   5.999  0.3147 -0.1464 -0.0742
   10MOL   C212 5270   3.665   4.629   5.859  0.5844  0.7457  0.2180
   10MOL   C213 5271   3.791   4.597   5.802  0.3669 -0.5926 -0.0279
   10MOL   C214 5272   3.800   4.576   5.668  0.0587  0.0793  0.1543
   10MOL   C215 5273   3.920   4.532   5.617 -0.1048 -0.0653  0.3194
   10MOL   H216 5274   4.126   4.569   5.885  1.3526  2.4494 -3.1526
   10MOL   H217 5275   3.986   4.650   6.085  1.8981 -0.4072 -2.6832
   10MOL   H218 5276   3.767   4.713   6.174  0.5944 -4.4560  1.5922
   10MOL   H219 5277   3.356   4.873   6.182  2.2790  1.2123 -0.7492
   10MOL   H220 5278   3.450   4.874   6.323  2.1103 -0.7381  0.0446
   10MOL   H221 5279   3.249   4.741   6.377 -1.0294 -0.3008 -0.7034
   10MOL   H222 5280   3.272   4.657   6.223  0.4772  1.9467 -0.7252
   10MOL   H223 5281   3.571   4.631   5.806  0.3221  2.3286  0.7084
   10MOL   H224 5282   3.711   4.576   5.607 -0.1132  1.0123  0.3990
   10MOL   H225 5283   3.932   4.510   5.512  2.0247  0.0705  0.5039
   10MOL   O226 5284   3.391   4.662   6.577 -0.1125 -0.1277  0.1157
   10MOL   C227 5285   3.429   4.585   6.491  0.1542 -0.4591  0.4536
   10MOL   O228 5286   3.412   4.602   6.362  0.0868 -0.4566  0.0778
   10MOL   C229 5287   3.509   4.466   6.533  0.9418  0.3715 -0.2314
   10MOL   C230 5288   3.572   4.378   6.442  0.2562 -0.0492 -0.1213
   10MOL   C231 5289   3.650   4.271   6.490  0.5318 -0.2409  0.0575
   10MOL   C232 5290   3.712   4.184   6.389 -0.2950  0.6630 -0.0086
   10MOL   C233 5291   3.776   4.068   6.443 -0.0355  1.1584 -0.3637
   10MOL   C234 5292   3.795   4.047   6.585  0.4658  0.5664  0.1417
   10MOL   C235 5293   3.863   3.922   6.633  0.1804  0.0205  0.0186
   10MOL   O236 5294   3.893   3.840   6.529  0.1647  0.0512 -0.3848
   10MOL   C237 5295   3.939   3.714   6.560 -0.2655  0.0612  0.3694
   10MOL   C238 5296   4.050   3.668   6.460 -0.0289  0.1957 -0.2692
   10MOL   O239 5297   3.869   3.887   6.748  0.1446  0.5390  0.4284
   10MOL   C240 5298   3.745   4.144   6.674 -0.2832 -0.1502  0.3145
   10MOL   C241 5299   3.664   4.250   6.627  0.1260  0.5011  0.2100
   10MOL   C242 5300   3.604   4.338   6.719  0.5038  0.3625  0.6115
   10MOL   C243 5301   3.526   4.446   6.676  0.1626 -0.6016 -0.1490
   10MOL   H244 5302   3.561   4.397   6.336 -2.8352  1.3154  0.3709
   10MOL   H245 5303   3.702   4.197   6.283  3.3325 -3.1845 -0.9476
   10MOL   H246 5304   3.816   3.998   6.371 -2.5055 -1.0252  0.3329
   10MOL   H247 5305   3.857   3.643   6.552  0.5575 -1.4384  4.0628
   10MOL   H248 5306   3.970   3.698   6.663  0.2224  1.7623  0.5050
   10MOL   H249 5307   4.134   3.736   6.447  0.0066 -0.1779 -2.0467
   10MOL   H250 5308   4.088   3.565   6.466  0.1838  0.0737 -3.3490
   10MOL   H251 5309   3.752   4.127   6.780  1.6514 -0.1010  0.1992
   10MOL   H252 5310   3.620   4.319   6.825 -2.5090 -0.9719  0.8451
   10MOL   H253 5311   3.493   4.525   6.741 -1.5297 -2.0078  0.7519
   10MOL   O254 5312   4.097   3.842   6.252 -0.1149  0.5322 -0.1230
   10MOL   C255 5313   3.996   3.777   6.254 -0.3617 -0.1238 -0.6427
   10MOL   O256 5314   3.985   3.665   6.333 -0.2240  0.1707 -0.5551
   10MOL   C257 5315   3.878   3.799   6.168 -0.1486  0.3272  0.1339
   10MOL   C258 5316   3.762   3.708   6.171  0.2239  0.4634  0.1079
   10MOL   C259 5317   3.656   3.724   6.086 -0.1869 -0.0365  0.0100
   10MOL   C260 5318   3.554   3.624   6.075  0.3407 -0.0070 -0.3764
   10MOL   C261 5319   3.452   3.643   5.980  0.3857 -0.0651 -0.0511
   10MOL   C262 5320   3.442   3.757   5.899 -0.5122 -0.7439 -0.1451
   10MOL   C263 5321   3.344   3.759   5.789  0.4030 -0.0715  0.6645
   10MOL   O264 5322   3.274   3.638   5.791 -0.1361 -0.8258  0.0151
   10MOL   C265 5323   3.200   3.614   5.674  0.4041 -0.1283 -0.4088
   10MOL   C266 5324   3.059   3.676   5.665 -0.1988 -0.1026  0.3948
   10MOL   O267 5325   3.321   3.850   5.711  0.6992 -1.1581 -0.4301
   10MOL   C268 5326   3.544   3.854   5.908 -0.2560 -0.2715  0.2312
   10MOL   C269 5327   3.652   3.837   5.999  0.2260  0.4184 -0.3360
   10MOL   C270 5328   3.752   3.935   6.010 -0.3643  0.2673 -0.2010
   10MOL   C271 5329   3.865   3.916   6.088 -0.2610 -0.0825  0.1550
   10MOL   H272 5330   3.760   3.614   6.225  1.5378  0.6605  0.5170
   10MOL   H273 5331   3.562   3.529   6.126  0.0573 -0.2279 -0.7439
   10MOL   H274 5332   3.387   3.559   5.961 -0.6002  1.3149 -3.1119
   10MOL   H275 5333   3.199   3.506   5.687  0.0502  0.0101  0.8100
   10MOL   H276 5334   3.261   3.640   5.587 -1.4033  2.0771 -1.0805
   10MOL   H277 5335   3.059   3.777   5.705  1.8508  0.4318 -0.8755
   10MOL   H278 5336   3.032   3.704   5.563  2.0894  1.0510  0.0526
   10MOL   H279 5337   3.527   3.941   5.847 -1.2479 -0.9936 -0.5305
   10MOL   H280 5338   3.744   4.022   5.947 -2.0013  1.4610  1.5935
   10MOL   H281 5339   3.943   3.989   6.072  0.1759 -0.4571  0.5523
   10MOL   O282 5340   2.839   3.781   5.780 -0.1163 -0.2849  0.4954
   10MOL   C283 5341   2.865   3.662   5.797 -0.4645 -0.0254 -0.0203
   10MOL   O284 5342   2.964   3.597   5.732  0.2389  0.5266 -0.4064
   10MOL   C285 5343   2.795   3.580   5.898 -0.0214  0.7273  0.0927
   10MOL   C286 5344   2.703   3.636   5.984  0.0303 -0.3707  0.2277
   10MOL   C287 5345   2.647   3.564   6.090  0.6192 -0.7455  0.0276
   10MOL   C288 5346   2.574   3.627   6.192  0.5133 -0.9356 -0.4997
   10MOL   C289 5347   2.512   3.545   6.294 -0.2965 -0.5120 -0.3537
   10MOL   C290 5348   2.526   3.408   6.294  0.1267 -0.4103  0.3073
   10MOL   C291 5349   2.450   3.319   6.383  0.1710  0.3756 -0.3795
   10MOL   O292 5350   2.477   3.191   6.363 -0.3248 -0.5329 -0.2079
   10MOL   C293 5351   2.423   3.092   6.453  0.1515 -0.5416  0.4113
   10MOL   C294 5352   2.274   3.077   6.427 -0.7108  0.6086 -0.3975
   10MOL   O295 5353   2.369   3.369   6.462 -0.0515 -0.0139 -0.2186
   10MOL   C296 5354   2.602   3.350   6.195 -1.0125  0.1955  0.3457
   10MOL   C297 5355   2.669   3.427   6.101  0.5115  0.5938 -1.0109
   10MOL   C298 5356   2.762   3.370   6.016 -0.5663  1.1616  0.1326
   10MOL   C299 5357   2.828   3.443   5.917  0.5309 -0.2848  0.2224
   10MOL   H300 5358   2.679   3.740   5.967  2.2437  0.3002  0.9445
   10MOL   H301 5359   2.560   3.734   6.194  0.1034 -1.0163  1.0996
   10MOL   H302 5360   2.445   3.594   6.363 -0.9604 -0.1535 -1.2445
   10MOL   H303 5361   2.433   3.103   6.561  0.5855 -1.8350  0.4997
   10MOL   H304 5362   2.478   3.005   6.418 -0.2429 -0.3914 -0.6108
   10MOL   H305 5363   2.208   3.122   6.502  0.4601  1.5765  0.0748
   10MOL   H306 5364   2.238   3.114   6.331  3.5542  1.5316 -1.7623
   10MOL   H307 5365   2.616   3.243   6.185  1.4790  0.4500  0.7154
   10MOL   H308 5366   2.770   3.263   6.030  1.7253  1.1728 -0.8553
   10MOL   H309 5367   2.899   3.404   5.845 -0.1377  1.5274 -1.4668
   10MOL   O310 5368   2.233   2.908   6.647 -0.1603 -0.3937 -0.3910
   10MOL   C311 5369   2.209   2.868   6.537 -0.3526 -0.0976 -0.4387
   10MOL   O312 5370   2.230   2.940   6.427  0.5701  0.3122 -0.5842
   10MOL   C313 5371   2.162   2.731   6.495  0.1550  0.0852  0.2147
   10MOL   C314 5372   2.116   2.699   6.369  0.2123  0.1821  0.4508
   10MOL   C315 5373   2.069   2.571   6.348 -0.4866 -0.0858  0.4511
   10MOL   C316 5374   2.019   2.538   6.222 -0.3215  0.7248  0.0950
   10MOL   C317 5375   1.950   2.421   6.198  0.5794  0.4172 -0.7177
   10MOL   C318 5376   1.941   2.322   6.305 -0.0629  0.6065  0.2428
   10MOL   C319 5377   1.873   2.191   6.282 -0.3943  0.6124 -0.0516
   10MOL   O320 5378   1.847   2.179   6.150 -0.2635 -0.3976 -0.0162
   10MOL   C321 5379   1.768   2.073   6.103  1.2568  0.4455  0.5411
   10MOL   C322 5380   1.627   2.131   6.073  0.3035  0.0023  0.0624
   10MOL   O323 5381   1.851   2.100   6.366 -0.5175 -0.6059 -0.3465
   10MOL   C324 5382   1.991   2.356   6.436  0.3474  0.0103  0.8278
   10MOL   C325 5383   2.051   2.479   6.455 -0.1302  0.1875  0.4326
   10MOL   C326 5384   2.103   2.506   6.581 -0.3308  0.8934  0.2035
   10MOL   C327 5385   2.158   2.637   6.600  0.3136 -0.4342 -0.0201
   10MOL   H328 5386   2.114   2.775   6.292  1.4892 -1.3248 -1.1342
   10MOL   H329 5387   2.019   2.605   6.137  0.9019  0.2930 -0.2496
   10MOL   H330 5388   1.899   2.410   6.104  0.0861 -1.2990 -0.2698
   10MOL   H331 5389   1.762   1.995   6.178 -1.1898 -0.8102 -0.8866
   10MOL   H332 5390   1.810   2.028   6.013  0.4694  0.1646  0.3110
   10MOL   H333 5391   1.598   2.208   6.144 -1.2833  0.6475 -1.2479
   10MOL   H334 5392   1.634   2.173   5.973  1.6272  0.7958  0.4733
   10MOL   H335 5393   1.991   2.283   6.515  0.8950  1.5652  2.3026
   10MOL   H336 5394   2.096   2.438   6.664  0.7738  1.4692  0.7778
   10MOL   H337 5395   2.188   2.668   6.699  0.8686 -1.2280  0.0576
   10MOL   O338 5396   1.534   1.981   5.857  0.1805  0.1016 -0.3501
   10MOL   C339 5397   1.489   1.963   5.968 -0.4548 -0.2915  0.0388
   10MOL   O340 5398   1.521   2.034   6.079  0.4122  0.6640 -0.0240
   10MOL   C341 5399   1.382   1.861   5.983 -0.3905 -0.2207  0.7538
   10MOL   C342 5400   1.371   1.759   5.884 -0.0437 -0.1410  0.5201
   10MOL   C343 5401   1.279   1.654   5.891  0.4597  0.1019 -0.2748
   10MOL   C344 5402   1.283   1.545   5.798 -0.1598 -0.5665  0.3502
   10MOL   C345 5403   1.190   1.443   5.810  0.1497  0.2370 -0.2478
   10MOL   C346 5404   1.099   1.440   5.916 -0.6051 -0.2278  0.5527
   10MOL   C347 5405   1.000   1.333   5.919 -0.4193  0.0345 -0.0306
   10MOL   O348 5406   0.896   1.362   5.997  0.0716 -0.3940 -0.3410
   10MOL   C349 5407   0.775   1.299   5.987  0.7701  0.2957  0.2515
   10MOL   C350 5408   0.689   1.379   5.898 -0.0248  0.7699 -0.2726
   10MOL   O351 5409   1.013   1.228   5.854  0.1756 -0.6493  0.1850
   10MOL   C352 5410   1.101   1.546   6.014 -0.2291 -0.1464  0.2301
   10MOL   C353 5411   1.193   1.646   6.007 -0.3690  0.1320  0.1410
   10MOL   C354 5412   1.201   1.745   6.103 -0.1919 -1.3683 -0.5030
   10MOL   C355 5413   1.297   1.848   6.094 -0.3017 -0.6490  0.1998
   10MOL   H356 5414   1.429   1.768   5.793 -0.2001  0.8945  0.5111
   10MOL   H357 5415   1.355   1.537   5.718 -0.3997 -1.3864  0.2099
   10MOL   H358 5416   1.196   1.359   5.742  0.4336 -0.2276  0.3482
   10MOL   H359 5417   0.717   1.284   6.078  0.8636 -0.3278  0.2097
   10MOL   H360 5418   0.779   1.205   5.931  0.8944  0.0711  0.6352
   10MOL   H361 5419   0.684   1.481   5.936  0.2496  0.3929  0.8064
   10MOL   H362 5420   0.746   1.369   5.805  1.1702 -1.1917  0.6262
   10MOL   H363 5421   1.030   1.543   6.096  0.3659  0.6290  0.7842
   10MOL   H364 5422   1.139   1.753   6.192 -2.0500 -0.2617 -1.8663
   10MOL   H365 5423   1.307   1.921   6.173  0.4442  1.7523 -2.0018
   10MOL   O366 5424   0.443   1.492   5.973 -0.1332 -0.3393 -0.4406
   10MOL   C367 5425   0.451   1.394   5.901 -0.3166 -0.2117 -0.1167
   10MOL   O368 5426   0.564   1.323   5.877  0.2611  0.1088  0.1572
   10MOL   C369 5427   0.331   1.346   5.826  0.0867 -0.8035  0.5258
   10MOL   C370 5428   0.335   1.224   5.758 -0.3224 -0.7356 -0.6205
   10MOL   C371 5429   0.220   1.174   5.699 -0.2890  0.1918  0.5131
   10MOL   C372 5430   0.236   1.047   5.635 -0.0662  0.5144 -0.2403
   10MOL   C373 5431   0.125   0.995   5.567  0.9446  0.1626  0.1096
   10MOL   C374 5432   8.244   1.059   5.571 -0.1166  0.1572  0.5899
   10MOL   C375 5433   8.115   0.990   5.523  0.8291 -0.6846  0.0218
   10MOL   O376 5434   8.121   0.858   5.498 -0.3891 -0.1555 -0.2146
   10MOL   C377 5435   8.002   0.798   5.460  0.0261 -0.1745  0.3626
   10MOL   C378 5436   8.034   0.648   5.438 -0.3699  0.6157 -0.4541
   10MOL   O379 5437   8.013   1.065   5.508  0.3760 -0.2524  0.2157
   10MOL   C380 5438   8.235   1.187   5.634  1.0003 -0.5273 -0.3219
   10MOL   C381 5439   0.098   1.245   5.701  0.2144  0.3779  0.3960
   10MOL   C382 5440   0.091   1.369   5.763  0.0242 -0.2678 -0.9142
   10MOL   C383 5441   0.207   1.419   5.827  0.5121  0.3809  0.4411
   10MOL   H384 5442   0.428   1.169   5.765 -0.0188 -0.2038 -0.4855
   10MOL   H385 5443   0.321   0.983   5.651 -3.7985 -4.4067  1.2056
   10MOL   H386 5444   0.128   0.899   5.518 -1.3755 -0.6163  1.4456
   10MOL   H387 5445   7.950   0.834   5.371  0.6965 -2.5634 -1.0517
   10MOL   H388 5446   7.920   0.806   5.532 -1.4916 -1.8039 -1.1241
   10MOL   H389 5447   8.107   0.600   5.504 -0.0538 -1.2163 -2.0992
   10MOL   H390 5448   7.947   0.586   5.453  0.0082  0.5468  1.5895
   10MOL   H391 5449   8.141   1.239   5.623  0.6188 -1.6040 -2.2726
   10MOL   H392 5450   8.246   1.422   5.765  0.0124 -0.2856 -0.9701
   10MOL   H393 5451   0.212   1.514   5.876  0.3116  1.2291 -1.1428
   10MOL   O394 5452   0.038   0.699   5.350  0.7277  0.0683  0.0170
   10MOL   C395 5453   8.204   0.656   5.268  0.2707 -0.6016  0.6173
   10MOL   O396 5454   8.074   0.636   5.303  0.6751  0.2068  0.0012
   10MOL   C397 5455   8.226   0.612   5.127 -0.3050 -0.0534 -0.2744
   10MOL   C398 5456   0.107   0.598   5.075 -0.3764  1.0381  0.2684
   10MOL   C399 5457   0.128   0.561   4.941  0.1076  0.6127  0.3396
   10MOL   C400 5458   0.255   0.532   4.887 -0.0944  0.2243 -0.4818
   10MOL   C401 5459   0.273   0.491   4.755 -0.6204 -0.3441 -0.2628
   10MOL   C402 5460   0.158   0.474   4.672  0.8411 -0.8129  0.2593
   10MOL   C403 5461   0.188   0.432   4.528 -0.3049 -0.7220 -0.3927
   10MOL   O404 5462   0.073   0.401   4.463  0.4944 -0.2694 -0.4338
   10MOL   C405 5463   0.077   0.374   4.325 -0.0246 -0.3726 -0.4496
   10MOL   C406 5464   8.207   0.288   4.292  0.3691 -0.2717  0.3880
   10MOL   O407 5465   0.298   0.434   4.471 -1.1138 -0.1529 -0.0225
   10MOL   C408 5466   0.030   0.495   4.726  0.2505 -0.5722  0.9071
   10MOL   C409 5467   0.011   0.539   4.863 -0.3918 -0.3248  0.3650
   10MOL   C410 5468   8.129   0.560   4.913 -0.0391  0.5552  0.1733
   10MOL   C411 5469   8.113   0.597   5.043 -0.0520  0.6197 -0.5285
   10MOL   H412 5470   0.192   0.614   5.141  0.4593 -1.4261 -0.1600
   10MOL   H413 5471   0.345   0.550   4.943 -2.7586  0.0504  4.0790
   10MOL   H414 5472   0.369   0.469   4.710 -0.6546  0.8539 -0.9546
   10MOL   H415 5473   0.173   0.338   4.289 -0.5034 -0.9685 -1.1588
   10MOL   H416 5474   0.067   0.469   4.274  1.4734  1.0119  1.7429
   10MOL   H417 5475   8.137   0.268   4.372  0.4327 -1.7931  0.0766
   10MOL   H418 5476   8.143   0.338   4.220 -1.0408 -1.4816  0.7698
   10MOL   H419 5477   8.198   0.473   4.659 -0.6007 -0.4358  1.8890
   10MOL   H420 5478   8.048   0.541   4.844  1.1915  0.9903 -1.4391
   10MOL   H421 5479   8.014   0.608   5.084 -0.2391  2.6730 -1.4472
   10MOL   O422 5480   0.039   0.087   4.463 -0.6316  0.6189 -0.2561
   10MOL   C423 5481   0.064   0.077   4.341  0.3747  0.3437 -0.7219
   10MOL   O424 5482   0.018   0.162   4.243  0.3044 -0.8424 -0.4165
   10MOL   C425 5483   0.159   8.223   4.288  0.8074  0.4665  0.0134
   10MOL   C426 5484   0.194   8.114   4.372 -0.2302 -0.5221 -0.1111
   10MOL   C427 5485   0.294   8.026   4.334  0.6581 -0.0013  0.6212
   10MOL   C428 5486   0.339   7.929   4.422  0.0600 -0.2340  0.8060
   10MOL   C429 5487   0.436   7.829   4.380  0.5296  0.0511 -0.2054
   10MOL   C430 5488   0.485   7.837   4.250  0.2057 -0.8715 -0.4649
   10MOL   C431 5489   0.583   7.736   4.189 -0.5043  0.4422  0.7538
   10MOL   O432 5490   0.643   7.781   4.075 -0.3938 -0.2261 -0.2358
   10MOL   C433 5491   0.729   7.703   3.994 -0.6200 -0.2359 -0.0899
   10MOL   C434 5492   0.646   7.631   3.884 -0.3306 -0.0820 -0.0135
   10MOL   O435 5493   0.605   7.635   4.253 -0.2765  0.0481  0.2198
   10MOL   C436 5494   0.430   7.931   4.159 -0.2879  0.0793  0.3589
   10MOL   C437 5495   0.334   8.029   4.198  0.1286  0.6552 -0.1113
   10MOL   C438 5496   0.290   8.129   4.113  0.3909 -0.4983  0.1175
   10MOL   C439 5497   0.213   8.236   4.159  0.5505  0.2324 -0.3802
   10MOL   H440 5498   0.151   8.112   4.471  0.2632  0.8014  0.1400
   10MOL   H441 5499   0.299   7.929   4.522  0.7705  1.8776  1.1201
   10MOL   H442 5500   0.458   7.747   4.447  0.5748  0.5135  0.3471
   10MOL   H443 5501   0.792   7.636   4.053 -1.7936  1.3503  3.0933
   10MOL   H444 5502   0.795   7.771   3.940 -0.0783 -0.2473  0.5345
   10MOL   H445 5503   0.723   7.602   3.812 -0.4665  0.4969 -0.3915
   10MOL   H446 5504   0.598   7.535   3.902 -0.4794  0.1205  0.6671
   10MOL   H447 5505   0.460   7.934   4.055  3.0922  0.8837  1.3011
   10MOL   H448 5506   0.328   8.125   4.012  0.2270  3.4676 -0.1790
   10MOL   H449 5507   0.178   0.067   4.096 -1.4089 -0.5719 -0.3503
   10MOL   O450 5508   0.375   7.582   3.915  0.0662 -0.4139 -0.0078
   10MOL   C451 5509   0.410   7.684   3.855 -1.0166 -0.7427  0.0776
   10MOL   O452 5510   0.541   7.722   3.839 -0.0023 -0.1413  0.0047
   10MOL   C453 5511   0.322   7.774   3.779  0.0390 -0.3696  0.5574
   10MOL   C454 5512   0.182   7.748   3.782 -0.3470 -0.2709  0.4779
   10MOL   C455 5513   0.091   7.832   3.707 -0.3578 -1.1695 -0.3881
   10MOL   C456 5514   8.197   7.813   3.707 -1.1577 -0.0396 -0.0658
   10MOL   C457 5515   8.117   7.901   3.632 -0.2413  0.1382 -0.5676
   10MOL   C458 5516   8.172   8.010   3.552 -0.4879 -0.1413 -0.1815
   10MOL   C459 5517   8.095   8.105   3.468  0.1426  0.8506 -0.4789
   10MOL   O460 5518   7.972   8.069   3.446 -0.0985 -0.4298 -0.7770
   10MOL   C461 5519   7.893   8.131   3.349  0.9781  0.6662 -0.3129
   10MOL   C462 5520   7.757   8.166   3.418  0.2275  0.5567  0.1478
   10MOL   O463 5521   8.139   8.209   3.416 -0.0201  0.7489  0.0961
   10MOL   C464 5522   0.061   8.018   3.547  0.8928  0.1980  0.1983
   10MOL   C465 5523   0.144   7.937   3.628 -0.0789 -0.0922  0.3656
   10MOL   C466 5524   0.285   7.963   3.629 -0.2175  0.5264  0.4348
   10MOL   C467 5525   0.375   7.889   3.708  0.0794  0.5078 -0.4324
   10MOL   H468 5526   0.146   7.661   3.835 -0.7018 -0.3346  0.1275
   10MOL   H469 5527   8.146   7.747   3.775 -1.4965 -0.6667 -0.9099
   10MOL   H470 5528   8.010   7.906   3.646 -0.1966 -0.3789 -0.0195
   10MOL   H471 5529   7.862   8.072   3.263 -0.5895 -0.7518  1.1690
   10MOL   H472 5530   7.932   8.230   3.324  0.0918  1.1942  0.3837
   10MOL   H473 5531   7.780   8.229   3.504 -2.0513  0.8047  0.6165
   10MOL   H474 5532   7.702   8.228   3.346  0.9277  3.2658  1.8625
   10MOL   H475 5533   0.102   8.098   3.487 -2.1814  2.6928  1.2646
   10MOL   H476 5534   0.317   8.043   3.564 -1.2297  0.3974 -0.2452
   10MOL   H477 5535   0.480   7.914   3.711 -0.6563  4.1068 -1.2678
   10MOL   O478 5536   7.480   8.131   3.383  0.4269  0.1902  0.6657
   10MOL   C479 5537   7.543   8.041   3.433  0.8268  0.3591 -0.1043
   10MOL   O480 5538   7.677   8.045   3.445  0.0144  0.0076  0.4959
   10MOL   C481 5539   7.487   7.907   3.470 -0.0445 -0.7337  0.1363
   10MOL   C482 5540   7.361   7.864   3.422 -0.4580  0.7708  0.2313
   10MOL   C483 5541   7.300   7.758   3.494 -0.0126  0.5930  0.0764
   10MOL   C484 5542   7.170   7.712   3.464 -0.1500 -0.1451 -0.9119
   10MOL   C485 5543   7.112   7.609   3.536 -0.0810  0.5836 -0.9808
   10MOL   C486 5544   7.182   7.541   3.638 -0.2481  0.3657  0.5440
   10MOL   C487 5545   7.123   7.430   3.715 -0.5008 -0.1107  0.2878
   10MOL   O488 5546   7.205   7.385   3.803  0.1375 -0.5652  0.1105
   10MOL   C489 5547   7.182   7.266   3.878 -0.8235 -0.1993  0.6149
   10MOL   C490 5548   7.210   7.301   4.024  0.5076 -1.6337 -0.5792
   10MOL   O491 5549   7.012   7.373   3.692  0.3447  0.5474  0.2609
   10MOL   C492 5550   7.311   7.588   3.673  0.6153 -0.1163  0.3479
   10MOL   C493 5551   7.367   7.690   3.595 -0.5396  0.2852 -0.5946
   10MOL   C494 5552   7.501   7.728   3.628 -0.4788  0.2276 -0.1919
   10MOL   C495 5553   7.562   7.831   3.559 -0.0812 -0.3728  0.8993
   10MOL   H496 5554   7.308   7.920   3.346  1.6386  1.6319 -0.6486
   10MOL   H497 5555   7.109   7.745   3.382 -0.2107  0.2374 -0.7170
   10MOL   H498 5556   7.015   7.579   3.499 -0.3928  2.1972 -1.5211
   10MOL   H499 5557   7.253   7.190   3.847  0.7596  0.7719  1.7719
   10MOL   H500 5558   7.086   7.214   3.867 -2.0622  1.4488  3.0262
   10MOL   H501 5559   7.131   7.373   4.048  3.0820  1.7539 -1.7238
   10MOL   H502 5560   7.210   7.216   4.092  0.2200 -0.0276  1.4715
   10MOL   H503 5561   7.364   7.553   3.760 -0.0222 -1.2261  0.2962
   10MOL   H504 5562   7.556   7.675   3.704 -2.6411 -0.6291  0.7855
   10MOL   H505 5563   7.659   7.865   3.591 -0.2140 -0.2949  1.2225
   10MOL   O506 5564   7.448   7.162   4.041 -0.0082 -0.3412  0.4450
   10MOL   C507 5565   7.451   7.286   4.034  0.3149  0.5778 -0.1143
   10MOL   O508 5566   7.334   7.368   4.029  0.0050  0.1260  0.4434
   10MOL   C509 5567   7.582   7.364   4.035 -0.0862  0.3209 -0.4923
   10MOL   C510 5568   7.701   7.288   4.037 -0.3016 -0.2119  0.5448
   10MOL   C511 5569   7.830   7.354   4.033 -0.1031  0.0849  0.2228
   10MOL   C512 5570   7.951   7.284   4.024  0.1297 -0.8110 -0.4878
   10MOL   C513 5571   8.070   7.356   4.032  0.1708 -0.3169  0.1270
   10MOL   C514 5572   8.073   7.493   4.035  0.1464  0.2223 -0.5095
   10MOL   C515 5573   8.203   7.562   4.063 -0.3103  0.2879 -0.1460
   10MOL   O516 5574   8.183   7.698   4.085  0.5743 -0.7087 -0.0276
   10MOL   C517 5575   0.038   7.778   4.140  0.7476  0.3884 -0.2053
   10MOL   C518 5576   0.038   7.768   4.294  0.3896 -0.2784 -0.0504
   10MOL   O519 5577   0.060   7.500   4.090  0.2433  0.4509  0.7136
   10MOL   C520 5578   7.950   7.558   4.042 -1.6474  0.7342  0.5308
   10MOL   C521 5579   7.828   7.494   4.033 -0.1852  0.0041 -0.8043
   10MOL   C522 5580   7.712   7.571   4.030 -0.0562 -0.5398 -0.5864
   10MOL   C523 5581   7.587   7.508   4.043 -0.5805 -0.7458  0.2751
   10MOL   H524 5582   7.694   7.180   4.031  0.4260 -0.2068 -0.5381
   10MOL   H525 5583   7.953   7.177   4.004  0.6470 -0.4869 -2.2909
   10MOL   H526 5584   8.162   7.305   4.009  1.2338  2.4191 -1.8419
   10MOL   H527 5585   0.032   7.884   4.113 -0.9299  0.5324  0.6853
   10MOL   H528 5586   0.131   7.753   4.088  1.1971 -3.3050  2.2309
   10MOL   H529 5587   0.049   7.668   4.336 -0.1894 -0.2859  0.0840
   10MOL   H530 5588   0.105   7.846   4.331 -1.7455  1.5062  0.1282
   10MOL   H531 5589   7.950   7.666   4.044  1.5031  0.7716  1.5254
   10MOL   H532 5590   7.718   7.679   4.040 -0.0956 -0.7060  1.5210
   10MOL   H533 5591   7.497   7.566   4.055  0.7965  0.9687  2.7500
   10MOL   O534 5592   8.054   7.633   4.365  0.1229  0.0375  0.1145
   10MOL   C535 5593   8.056   7.759   4.366 -0.3426 -0.6749 -1.0933
   10MOL   O536 5594   8.167   7.828   4.348  0.0610 -0.2318  0.6727
   10MOL   C537 5595   7.931   7.841   4.356  1.2628  0.2740  0.3244
   10MOL   C538 5596   7.805   7.777   4.369 -0.0111  0.3530 -0.0578
   10MOL   C539 5597   7.688   7.849   4.369 -0.5997 -0.3859  1.0216
   10MOL   C540 5598   7.561   7.788   4.393  0.3358  0.8550  0.9806
   10MOL   C541 5599   7.444   7.865   4.396  0.2536 -0.1172 -0.2776
   10MOL   C542 5600   7.447   8.008   4.375  0.1188 -0.6627 -0.1825
   10MOL   C543 5601   7.330   8.093   4.388  0.2310 -0.3040  0.1308
   10MOL   O544 5602   7.215   8.034   4.382 -0.0001  0.0419 -0.4778
   10MOL   C545 5603   7.095   8.097   4.407  0.2033  0.0842 -0.0162
   10MOL   C546 5604   7.026   8.173   4.296  0.7670  0.0799  0.1341
   10MOL   O547 5605   7.337   8.214   4.413  0.3603  0.1768 -0.6196
   10MOL   C548 5606   7.570   8.065   4.340 -0.5686 -0.0258 -0.1199
   10MOL   C549 5607   7.686   7.982   4.339 -0.3319  0.3844  0.0172
   10MOL   C550 5608   7.807   8.048   4.311  0.1336 -0.5438  1.0544
   10MOL   C551 5609   7.931   7.982   4.326 -0.1587  0.6858 -0.1142
   10MOL   H552 5610   7.795   7.670   4.381  0.3095  0.2027 -1.0497
   10MOL   H553 5611   7.559   7.680   4.401  1.5920  0.7251 -0.3081
   10MOL   H554 5612   7.354   7.816   4.431  0.4338  0.0878  0.4882
   10MOL   H555 5613   7.111   8.171   4.485  0.9108  0.7725 -0.8006
   10MOL   H556 5614   7.026   8.018   4.437  1.5849 -1.2034 -0.1258
   10MOL   H557 5615   7.007   8.104   4.214 -2.2408  1.2141 -0.1968
   10MOL   H558 5616   7.089   0.006   4.261 -0.6650  1.3190  0.4106
   10MOL   H559 5617   7.571   8.172   4.327 -2.5898  0.0935  0.6927
   10MOL   H560 5618   7.801   8.151   4.283 -3.3888 -0.1833  2.8059
   10MOL   H561 5619   8.020   8.038   4.302  0.7781 -0.1725  1.3325
   10MOL   H562 5620   6.936   8.216   4.340  0.7255  0.1342 -0.0059
   11MOL     O1 5621   1.000   0.857   3.849 -0.6583 -0.9647  0.1946
   11MOL     C2 5622   1.067   0.876   3.954  0.5066  0.2033 -0.1681
   11MOL     O3 5623   1.065   0.785   4.051  0.5924 -0.4474 -0.3253
   11MOL     C4 5624   1.112   1.007   4.006  0.3031 -0.9256 -0.4654
   11MOL     C5 5625   1.059   1.127   3.953  0.0914  0.7475 -0.0654
   11MOL     C6 5626   1.094   1.248   4.010 -0.3659  0.4868 -0.1311
   11MOL     C7 5627   1.050   1.361   3.951 -0.1584 -0.0462  0.6293
   11MOL     C8 5628   1.098   1.488   3.990  0.7385  0.5370  0.0702
   11MOL     C9 5629   1.182   1.495   4.104 -0.3510  0.1651 -0.5900
   11MOL    C10 5630   1.239   1.626   4.151  0.0670  0.9793  0.1253
   11MOL    O11 5631   1.339   1.611   4.242  0.2985  0.6014 -0.0141
   11MOL    C12 5632   1.397   1.718   4.316 -0.1390 -0.7558  0.3635
   11MOL    C13 5633   1.455   1.831   4.225 -0.3038 -0.2244 -0.1193
   11MOL    O14 5634   1.192   1.735   4.118 -0.2291 -0.4016 -0.0867
   11MOL    C15 5635   1.225   1.374   4.165 -0.0987 -0.6798 -0.3104
   11MOL    C16 5636   1.178   1.255   4.120 -0.1416  0.1877  0.7721
   11MOL    C17 5637   1.228   1.132   4.172 -0.2562  0.3912  0.0804
   11MOL    C18 5638   1.200   1.010   4.114 -0.3965  0.6395 -0.1126
   11MOL    H19 5639   0.994   1.133   3.868  1.7656 -0.2055 -1.4377
   11MOL    H20 5640   0.969   1.351   3.880  1.1441 -0.1815 -0.8555
   11MOL    H21 5641   1.079   1.577   3.932  1.1714  0.3177 -0.4163
   11MOL    H22 5642   1.322   1.767   4.379  0.8766  0.3080  0.7482
   11MOL    H23 5643   1.463   1.694   4.398  1.8546  0.1723 -0.9306
   11MOL    H24 5644   1.562   1.820   4.208 -0.0250 -1.8615  2.3940
   11MOL    H25 5645   1.402   1.842   4.130 -0.5638  1.2721  0.1804
   11MOL    H26 5646   1.299   1.361   4.243 -2.9386  1.5537  2.8929
   11MOL    H27 5647   1.286   1.125   4.262 -0.2446  0.7067  0.0967
   11MOL    H28 5648   1.246   0.926   4.164  1.4718  0.5047 -1.9978
   11MOL    H29 5649   0.996   0.723   4.034  2.0384 -1.3949 -3.0764
   11MOL    O30 5650   1.621   1.954   4.404  0.0021 -0.0109  0.3328
   11MOL    C31 5651   1.513   2.009   4.379 -0.2227 -1.2049  0.4750
   11MOL    O32 5652   1.437   1.959   4.283  0.1000 -0.2750 -0.7949
   11MOL    C33 5653   1.447   2.132   4.442  1.4566  0.8088 -0.6523
   11MOL    C34 5654   1.335   2.194   4.388  0.1220 -0.0716 -0.4716
   11MOL    C35 5655   1.272   2.308   4.449  0.0996 -0.1215  0.5761
   11MOL    C36 5656   1.139   2.354   4.417  0.4937 -0.2743  0.6350
   11MOL    C37 5657   1.080   2.469   4.483 -0.1973  0.0737  0.2115
   11MOL    C38 5658   1.153   2.538   4.585  0.3393  0.5460  0.3244
   11MOL    C39 5659   1.103   2.657   4.654 -0.1145 -0.1262 -0.1018
   11MOL    O40 5660   0.976   2.684   4.619 -0.6997  0.5333  0.1637
   11MOL    C41 5661   0.912   2.793   4.681 -0.3022  0.6366  0.1877
   11MOL    C42 5662   0.768   2.799   4.638  0.1975  0.0570  0.3431
   11MOL    O43 5663   1.167   2.736   4.724  0.6141  0.3286  0.2477
   11MOL    C44 5664   1.279   2.486   4.619 -0.3737  0.1162  0.6668
   11MOL    C45 5665   1.340   2.376   4.558  0.6359  0.0343 -0.1030
   11MOL    C46 5666   1.461   2.320   4.604  0.6571 -0.3134 -0.0159
   11MOL    C47 5667   1.508   2.195   4.550 -0.3469 -0.1552  0.0673
   11MOL    H48 5668   1.294   2.144   4.302  0.5462 -1.0386 -0.1150
   11MOL    H49 5669   1.075   2.306   4.344  0.1679  3.2776 -1.5062
   11MOL    H50 5670   0.980   2.499   4.455  0.2218  1.6752  0.3947
   11MOL    H51 5671   0.954   2.887   4.646  1.2936  0.6639  2.0529
   11MOL    H52 5672   0.922   2.785   4.790 -0.7419 -0.3057  0.1679
   11MOL    H53 5673   0.767   2.853   4.544  1.4322 -0.7180 -0.1259
   11MOL    H54 5674   0.723   2.704   4.609 -1.6108  1.4571 -1.5811
   11MOL    H55 5675   1.332   2.538   4.697  2.2112  0.4032 -1.2351
   11MOL    H56 5676   1.514   2.374   4.681 -0.8962 -1.7916  2.1603
   11MOL    H57 5677   1.597   2.151   4.592  0.4469  1.8107  0.5085
   11MOL    O58 5678   0.727   2.719   4.904  0.2963  0.4661 -0.4988
   11MOL    C59 5679   0.659   2.808   4.854 -0.5627  0.0949 -0.3827
   11MOL    O60 5680   0.672   2.851   4.730 -0.9406 -0.1806  0.1067
   11MOL    C61 5681   0.549   2.876   4.925 -0.4216 -0.7477  0.1063
   11MOL    C62 5682   0.506   2.831   5.053  0.8895  0.4865 -0.6934
   11MOL    C63 5683   0.402   2.896   5.121  0.4376 -0.3059 -0.5619
   11MOL    C64 5684   0.364   2.851   5.249 -0.3635 -0.0406  0.1268
   11MOL    C65 5685   0.253   2.914   5.311  0.1271  0.1191 -0.4889
   11MOL    C66 5686   0.192   3.030   5.252 -0.0315  0.3791  0.0114
   11MOL    C67 5687   0.094   3.104   5.334 -0.1568 -0.3070  0.2188
   11MOL    O68 5688   0.038   3.201   5.263  0.4860 -0.1887  0.7512
   11MOL    C69 5689   8.185   3.280   5.315 -0.4785 -0.0905  0.0343
   11MOL    C70 5690   8.224   3.427   5.291 -0.0456  0.0984  0.6088
   11MOL    O71 5691   0.078   3.068   5.452  0.5946  0.1306 -0.0676
   11MOL    C72 5692   0.246   3.080   5.129  0.2286  0.5109  0.2087
   11MOL    C73 5693   0.351   3.015   5.065  0.2361 -0.3179 -0.3560
   11MOL    C74 5694   0.400   3.061   4.941 -0.0318 -0.4820  0.4339
   11MOL    C75 5695   0.498   2.994   4.869  0.3577  0.0774  0.5669
   11MOL    H76 5696   0.549   2.748   5.108  0.7677  2.0953  1.9023
   11MOL    H77 5697   0.397   2.759   5.295 -1.6073  0.8353  2.8443
   11MOL    H78 5698   0.224   2.873   5.406 -0.8600 -2.7214 -1.9661
   11MOL    H79 5699   8.159   3.256   5.418 -0.8362 -1.7784 -0.4412
   11MOL    H80 5700   8.096   3.274   5.252  0.3195 -0.7988 -1.0536
   11MOL    H81 5701   0.028   3.432   5.196  0.3523 -1.2188  0.7519
   11MOL    H82 5702   8.126   3.472   5.280 -0.4329 -1.7610 -4.8397
   11MOL    H83 5703   0.212   3.174   5.087  0.7961  0.8924  0.5977
   11MOL    H84 5704   0.369   3.156   4.898 -3.7861 -2.2842 -1.0583
   11MOL    H85 5705   0.526   3.036   4.773 -0.0327 -0.0296  0.4042
   11MOL    O86 5706   0.250   3.419   5.320  0.2975  0.6529  0.4012
   11MOL    C87 5707   0.178   3.480   5.398 -0.3464 -0.5298  0.0196
   11MOL    O88 5708   0.043   3.486   5.397  0.3564 -0.4883 -0.1535
   11MOL    C89 5709   0.237   3.560   5.509 -0.6751 -0.2028  0.1850
   11MOL    C90 5710   0.164   3.669   5.559  0.8458  0.5022  1.0257
   11MOL    C91 5711   0.222   3.744   5.664  0.2352  1.0522  0.0911
   11MOL    C92 5712   0.155   3.859   5.714 -0.7246 -1.1008  0.2271
   11MOL    C93 5713   0.222   3.941   5.808 -0.3601  0.4841  0.5692
   11MOL    C94 5714   0.352   3.904   5.863 -0.3400  0.5043 -0.7698
   11MOL    C95 5715   0.423   3.994   5.962  0.4863 -0.5847  0.3338
   11MOL    O96 5716   0.507   3.920   6.050 -0.0976 -0.5605 -0.1927
   11MOL    C97 5717   0.578   3.994   6.147  0.4375 -0.3389 -0.3665
   11MOL    C98 5718   0.690   4.078   6.084 -0.2868  0.0916 -0.3367
   11MOL    O99 5719   0.402   4.116   5.969  0.0821 -0.7264  0.2397
   11MOL   C100 5720   0.411   3.784   5.824 -0.0224  1.0574  0.0568
   11MOL   C101 5721   0.348   3.705   5.719  0.2335  0.1412  0.6281
   11MOL   C102 5722   0.405   3.588   5.673 -0.0914  0.2878  0.8270
   11MOL   C103 5723   0.352   3.511   5.573 -0.4522 -0.1215  0.1210
   11MOL   H104 5724   0.064   3.692   5.524  0.9999 -0.2705  0.0615
   11MOL   H105 5725   0.059   3.892   5.679 -0.1618  0.3153 -0.0141
   11MOL   H106 5726   0.179   4.034   5.842 -0.6310  1.7524 -3.0921
   11MOL   H107 5727   0.613   3.925   6.224 -2.5239 -0.5445  0.8549
   11MOL   H108 5728   0.509   4.047   6.212  0.7540 -1.2493  0.7342
   11MOL   H109 5729   0.645   4.147   6.013 -1.5080  0.3379  0.6642
   11MOL   H110 5730   0.754   4.120   6.161 -0.1269  0.3112 -0.5873
   11MOL   H111 5731   0.508   3.749   5.856  0.9487  1.6624 -2.1089
   11MOL   H112 5732   0.503   3.562   5.711  0.1863 -0.3230 -0.2810
   11MOL   H113 5733   0.403   3.417   5.555  0.4938  0.4455 -0.2134
   11MOL   O114 5734   0.898   3.909   6.167  0.3474  0.6416 -0.2144
   11MOL   C115 5735   0.882   3.933   6.047  0.3995  0.4026 -0.3274
   11MOL   O116 5736   0.779   4.002   6.001  0.0026  0.4177  0.5245
   11MOL   C117 5737   0.972   3.870   5.945 -0.2621  0.2171  0.5024
   11MOL   C118 5738   1.099   3.824   5.970  0.4611  0.2523 -0.0246
   11MOL   C119 5739   1.174   3.745   5.874 -0.0597  0.2725 -0.5939
   11MOL   C120 5740   1.294   3.689   5.916  0.2089  0.1659 -0.3699
   11MOL   C121 5741   1.386   3.644   5.816  0.0682  0.0060  0.5610
   11MOL   C122 5742   1.342   3.631   5.681 -0.4848  0.0030  0.5026
   11MOL   C123 5743   1.420   3.564   5.568  0.1658  0.4457  0.3547
   11MOL   O124 5744   1.549   3.563   5.598 -0.0389  0.3125 -0.1842
   11MOL   C125 5745   1.646   3.540   5.498  0.2908  0.1440  0.0847
   11MOL   C126 5746   1.781   3.520   5.563 -0.3833  0.4850 -0.8913
   11MOL   O127 5747   1.368   3.513   5.470 -0.3495 -0.4660  0.3020
   11MOL   C128 5748   1.209   3.661   5.645 -0.5744 -0.0275 -0.0267
   11MOL   C129 5749   1.129   3.726   5.745 -0.5029  0.1213  0.0258
   11MOL   C130 5750   1.006   3.790   5.713 -0.3530 -0.3552  0.2459
   11MOL   C131 5751   0.929   3.853   5.813 -0.1427  0.5489  0.4730
   11MOL   H132 5752   1.132   3.826   6.073 -0.1623 -2.8437  0.2960
   11MOL   H133 5753   1.333   3.704   6.016 -1.1247  2.3515 -0.1436
   11MOL   H134 5754   1.481   3.613   5.856  0.8445  2.8718  1.0940
   11MOL   H135 5755   1.652   3.625   5.430  0.1680  0.0065 -0.0991
   11MOL   H136 5756   1.630   3.455   5.432  0.0745 -0.9486  1.5139
   11MOL   H137 5757   1.768   3.490   5.667  0.2218  0.7189 -0.7482
   11MOL   H138 5758   1.830   3.433   5.520  2.1338  1.4640 -0.1221
   11MOL   H139 5759   1.179   3.656   5.541 -0.5467 -0.7966  0.0001
   11MOL   H140 5760   0.966   3.764   5.616 -1.2623 -3.1811  1.3385
   11MOL   H141 5761   0.832   3.891   5.783 -1.9281 -1.8018  3.0168
   11MOL   O142 5762   1.810   3.757   5.718 -0.4295 -0.5115 -0.4246
   11MOL   C143 5763   1.874   3.740   5.615  0.0531  0.0151  0.7335
   11MOL   O144 5764   1.871   3.628   5.538  0.1649  0.9300 -0.0196
   11MOL   C145 5765   1.989   3.825   5.572 -0.2070  0.4756 -0.2077
   11MOL   C146 5766   2.006   3.861   5.436 -0.2560  0.3203 -0.0323
   11MOL   C147 5767   2.121   3.947   5.405  0.2975  0.3713  0.3993
   11MOL   C148 5768   2.144   3.992   5.271 -0.4897 -0.1811  0.0218
   11MOL   C149 5769   2.257   4.076   5.242 -0.4563  0.0377 -0.2978
   11MOL   C150 5770   2.339   4.124   5.342  0.0436  0.4754  0.1568
   11MOL   C151 5771   2.464   4.212   5.314  0.1516  0.8259  0.0683
   11MOL   O152 5772   2.537   4.246   5.416 -0.0367 -0.0252 -0.1934
   11MOL   C153 5773   2.646   4.341   5.396  0.6441 -0.3138 -0.2980
   11MOL   C154 5774   2.779   4.274   5.353  0.5842  0.7525 -0.9772
   11MOL   O155 5775   2.494   4.245   5.197 -0.5443  0.0927 -0.0169
   11MOL   C156 5776   2.314   4.074   5.476 -0.1151 -0.1146 -0.0175
   11MOL   C157 5777   2.206   3.989   5.510 -0.2557  0.2423  0.7795
   11MOL   C158 5778   2.187   3.958   5.645  0.2433  0.3689 -0.1178
   11MOL   C159 5779   2.073   3.872   5.671 -0.4399 -0.2695 -0.4626
   11MOL   H160 5780   1.931   3.824   5.368 -1.6952  1.5064  0.8965
   11MOL   H161 5781   2.093   3.956   5.182 -0.4099  0.0729 -0.1275
   11MOL   H162 5782   2.274   4.103   5.139  1.5365  0.2897  0.0758
   11MOL   H163 5783   2.671   4.400   5.484  1.6469  1.4102 -1.7178
   11MOL   H164 5784   2.621   4.416   5.321  1.0493 -1.2680 -1.3892
   11MOL   H165 5785   2.862   4.308   5.415  1.6933  1.9700 -3.0510
   11MOL   H166 5786   2.775   4.166   5.361  2.2003  0.4735 -3.3541
   11MOL   H167 5787   2.377   4.107   5.558 -1.6235  0.7054  0.8229
   11MOL   H168 5788   2.248   3.990   5.728  0.4053 -0.8266  0.2408
   11MOL   H169 5789   2.068   3.838   5.774  1.7736  1.8475  0.3842
   11MOL   O170 5790   2.984   4.420   5.268  0.5028 -0.1684  0.4088
   11MOL   C171 5791   2.914   4.376   5.178 -0.3084  0.6609 -0.1903
   11MOL   O172 5792   2.808   4.298   5.218  0.4524 -0.5032  0.1025
   11MOL   C173 5793   2.923   4.409   5.034  0.1031  0.3443 -0.3320
   11MOL   C174 5794   2.838   4.360   4.936  0.0482  0.0214  0.4636
   11MOL   C175 5795   2.838   4.400   4.806 -0.0105  0.1204  0.5371
   11MOL   C176 5796   2.742   4.357   4.714 -0.0634 -0.1987  0.2242
   11MOL   C177 5797   2.733   4.402   4.576  0.1980  0.6915 -0.5364
   11MOL   C178 5798   2.838   4.487   4.534  0.5850  0.5242  0.1723
   11MOL   C179 5799   2.828   4.541   4.394 -0.0078  0.0270  0.1023
   11MOL   O180 5800   2.944   4.603   4.360  0.2623 -0.5549  0.4575
   11MOL   C181 5801   2.955   4.675   4.237  0.1113 -0.8240  0.0662
   11MOL   C182 5802   3.070   4.776   4.256 -0.7470 -0.0696  0.3673
   11MOL   O183 5803   2.726   4.548   4.334  0.5252  0.4466  0.6242
   11MOL   C184 5804   2.940   4.528   4.624  0.1731  0.6557 -0.7637
   11MOL   C185 5805   2.936   4.488   4.761 -0.0032  0.6854  0.1276
   11MOL   C186 5806   3.040   4.521   4.854 -0.8285 -1.0473  0.5038
   11MOL   C187 5807   3.028   4.496   4.989 -0.1684  0.2980  0.0246
   11MOL   H188 5808   2.760   4.290   4.962  0.9651 -1.4861 -0.8408
   11MOL   H189 5809   2.665   4.290   4.751  0.7098 -1.8858 -1.1636
   11MOL   H190 5810   2.653   4.362   4.516 -0.0177 -0.8446  0.7365
   11MOL   H191 5811   2.859   4.718   4.210  0.7875  1.0493  0.5386
   11MOL   H192 5812   2.982   4.608   4.156  1.2912  0.4963 -0.6532
   11MOL   H193 5813   3.027   4.875   4.237  0.6471  0.2738 -1.0791
   11MOL   H194 5814   3.115   4.774   4.356 -3.3898 -1.3418  1.5940
   11MOL   H195 5815   3.024   4.585   4.587  1.1583 -0.3337 -0.1178
   11MOL   H196 5816   3.129   4.576   4.826 -1.3698 -0.5403 -0.2762
   11MOL   H197 5817   3.101   4.537   5.057  1.0034 -0.6957 -0.6219
   11MOL   O198 5818   3.055   4.891   3.999 -0.1399  0.0435 -0.2986
   11MOL   C199 5819   3.154   4.820   4.028 -0.1876 -0.0929  0.0957
   11MOL   O200 5820   3.172   4.768   4.154 -0.2595 -0.3468 -0.0989
   11MOL   C201 5821   3.271   4.794   3.939  1.3378 -0.2859  0.6748
   11MOL   C202 5822   3.261   4.849   3.811 -0.3539  0.2872 -0.5419
   11MOL   C203 5823   3.353   4.807   3.709 -0.2863 -0.1995  0.3013
   11MOL   C204 5824   3.340   4.844   3.572 -0.8682  0.4007 -0.0512
   11MOL   C205 5825   3.421   4.781   3.479  0.4810 -0.1518 -0.0586
   11MOL   C206 5826   3.520   4.686   3.517  0.1108  0.5395 -0.7460
   11MOL   C207 5827   3.602   4.618   3.412 -0.1422 -0.6185  0.2112
   11MOL   O208 5828   3.699   4.543   3.468  0.5642  0.2108  0.8397
   11MOL   C209 5829   3.802   4.481   3.389 -0.3084 -0.1661  0.2763
   11MOL   C210 5830   3.933   4.521   3.456  0.2383 -0.3211  0.0826
   11MOL   O211 5831   3.600   4.647   3.294  0.2705  0.4483  0.5194
   11MOL   C212 5832   3.540   4.656   3.653  0.2492 -1.0937  0.2414
   11MOL   C213 5833   3.453   4.711   3.746  0.0938 -0.4910 -1.0537
   11MOL   C214 5834   3.472   4.674   3.881 -0.3581 -0.3390 -0.5548
   11MOL   C215 5835   3.377   4.712   3.979  0.3296  0.3613  0.1518
   11MOL   H216 5836   3.179   4.914   3.786 -1.8497 -1.1457  0.5571
   11MOL   H217 5837   3.264   4.913   3.540 -0.2387 -0.6818 -4.1783
   11MOL   H218 5838   3.420   4.806   3.374 -1.5030 -1.8373 -0.4762
   11MOL   H219 5839   3.799   4.506   3.283 -1.2976  0.0913  0.3631
   11MOL   H220 5840   3.778   4.374   3.395 -0.9201 -0.1570 -1.6884
   11MOL   H221 5841   3.931   4.485   3.559  0.3451 -1.7737 -0.4102
   11MOL   H222 5842   4.017   4.463   3.419 -0.0978  1.1842 -3.2042
   11MOL   H223 5843   3.619   4.589   3.681  1.8767  0.9071  0.5355
   11MOL   H224 5844   3.546   4.603   3.915 -1.0694 -0.0525  1.6724
   11MOL   H225 5845   3.376   4.668   4.077  1.2090 -0.2225 -0.0952
   11MOL   O226 5846   4.093   4.657   3.611  0.4841 -0.2057  0.3438
   11MOL   C227 5847   4.026   4.726   3.530 -0.0730  1.1398 -0.3730
   11MOL   O228 5848   3.950   4.661   3.444 -0.1816  0.0868 -0.0596
   11MOL   C229 5849   4.009   4.866   3.527  0.3832  0.4947  1.1704
   11MOL   C230 5850   4.071   4.944   3.624 -0.1471  0.4131  0.3530
   11MOL   C231 5851   4.071   5.082   3.617 -0.2681  0.7211 -0.8485
   11MOL   C232 5852   4.151   5.158   3.702  0.0575  0.5066  0.1601
   11MOL   C233 5853   4.137   5.294   3.706 -0.1381  0.1694 -0.4276
   11MOL   C234 5854   4.060   5.358   3.611  0.1835  0.1800 -0.2208
   11MOL   C235 5855   4.047   5.504   3.620  0.3547 -0.1320  0.4870
   11MOL   O236 5856   3.960   5.554   3.530  0.0843 -0.0138  0.5281
   11MOL   C237 5857   3.927   5.683   3.533  0.0770 -0.2295  0.1995
   11MOL   C238 5858   3.879   5.716   3.389 -0.3000  0.5846 -0.3961
   11MOL   O239 5859   4.111   5.572   3.696 -0.3230  0.5829  0.1369
   11MOL   C240 5860   3.985   5.282   3.518  0.0353  0.7789 -0.4346
   11MOL   C241 5861   3.991   5.142   3.517 -0.3847 -0.4647  0.2559
   11MOL   C242 5862   3.921   5.065   3.419  0.1218 -0.2672  0.2700
   11MOL   C243 5863   3.932   4.925   3.424  0.3236 -0.1518  0.0462
   11MOL   H244 5864   4.129   4.891   3.699 -1.4646 -1.1909  0.2748
   11MOL   H245 5865   4.198   5.095   3.775 -1.2944 -0.0389  0.5849
   11MOL   H246 5866   4.188   5.344   3.787  0.1951 -0.4544 -0.2568
   11MOL   H247 5867   4.005   5.756   3.555  1.2328 -1.4192  0.0966
   11MOL   H248 5868   3.854   5.694   3.613  0.3066 -0.1039  0.3969
   11MOL   H249 5869   3.880   5.626   3.326 -0.3821  0.1877  0.1645
   11MOL   H250 5870   3.774   5.745   3.390 -0.6191 -0.5531  0.6188
   11MOL   H251 5871   3.924   5.334   3.446  1.1257  1.2050 -1.0521
   11MOL   H252 5872   3.861   5.108   3.340 -2.4586 -0.6437  1.9533
   11MOL   H253 5873   3.889   4.866   3.345  0.3103  0.7236 -0.6163
   11MOL   O254 5874   3.860   5.977   3.442  0.0590  0.2843  0.4490
   11MOL   C255 5875   3.929   5.945   3.349 -0.1986 -0.3382  0.1891
   11MOL   O256 5876   3.943   5.817   3.311 -0.3286  0.4581 -0.2852
   11MOL   C257 5877   4.011   6.037   3.270 -0.0045  0.6078  0.0752
   11MOL   C258 5878   4.082   5.985   3.157  0.2586 -0.1808  0.0324
   11MOL   C259 5879   4.158   6.067   3.067  0.1087  0.3972  1.0924
   11MOL   C260 5880   4.232   6.006   2.961 -0.1209  0.1294 -0.4466
   11MOL   C261 5881   4.295   6.094   2.873 -0.2547 -0.0506  0.0665
   11MOL   C262 5882   4.308   6.231   2.901 -0.5126  0.7780  0.0318
   11MOL   C263 5883   4.382   6.321   2.807 -0.1330 -0.0136 -0.0290
   11MOL   O264 5884   4.384   6.454   2.850  0.4178  0.6378 -0.4472
   11MOL   C265 5885   4.466   6.541   2.791 -0.5327 -1.0482  0.1016
   11MOL   C266 5886   4.612   6.515   2.833  0.0464  0.6041 -0.2984
   11MOL   O267 5887   4.430   6.280   2.699 -0.2048  0.1794 -0.5484
   11MOL   C268 5888   4.251   6.281   3.014 -0.0575 -0.0944 -0.2164
   11MOL   C269 5889   4.173   6.200   3.100  0.1600  0.8648  0.8107
   11MOL   C270 5890   4.111   6.257   3.217  0.3908  0.3255 -0.0387
   11MOL   C271 5891   4.033   6.174   3.302 -0.4615  0.3340 -0.7439
   11MOL   H272 5892   4.080   5.879   3.141 -0.8633  0.0134 -1.1776
   11MOL   H273 5893   4.226   5.899   2.953  1.8675 -0.1793  1.5269
   11MOL   H274 5894   4.350   6.059   2.787  1.8010  1.2995  0.8043
   11MOL   H275 5895   4.430   6.637   2.825  0.3531 -1.7132  3.0218
   11MOL   H276 5896   4.458   6.540   2.682 -2.2245 -1.0586  0.2130
   11MOL   H277 5897   4.670   6.603   2.804 -0.8247  0.2754 -3.2156
   11MOL   H278 5898   4.623   6.515   2.942  0.4303  0.3249 -0.3367
   11MOL   H279 5899   4.263   6.380   3.055  0.1716 -0.7815  1.4336
   11MOL   H280 5900   4.106   6.362   3.239 -1.0190  0.2251  0.1890
   11MOL   H281 5901   3.986   6.225   3.385  1.2827 -1.1670  1.2177
   11MOL   O282 5902   4.776   6.333   2.944 -0.5269  0.4559  0.0221
   11MOL   C283 5903   4.760   6.327   2.820 -0.4194 -0.7873 -0.1967
   11MOL   O284 5904   4.685   6.419   2.758 -0.3554  1.3278  0.2784
   11MOL   C285 5905   4.818   6.230   2.723 -0.8814 -0.6931 -0.0960
   11MOL   C286 5906   4.775   6.234   2.589  0.2976  0.7065 -0.4996
   11MOL   C287 5907   4.822   6.145   2.489  0.7104 -0.5486  0.1126
   11MOL   C288 5908   4.768   6.149   2.358 -0.6886 -0.4113 -0.3748
   11MOL   C289 5909   4.821   6.051   2.268  0.5553 -0.9962  0.1202
   11MOL   C290 5910   4.920   5.956   2.308 -0.0515 -0.1179  0.6057
   11MOL   C291 5911   4.964   5.856   2.207  0.1463  0.1850  0.0045
   11MOL   O292 5912   4.864   5.824   2.121 -0.3150 -0.3195  0.1243
   11MOL   C293 5913   4.884   5.701   2.049  0.1385 -0.2168 -0.4390
   11MOL   C294 5914   4.756   5.651   1.975  0.1496  0.1470 -0.0922
   11MOL   O295 5915   5.073   5.800   2.206  0.0078  0.1820  0.0006
   11MOL   C296 5916   4.972   5.956   2.438 -0.0520 -0.4925  0.0902
   11MOL   C297 5917   4.919   6.047   2.532 -0.0989 -0.0137 -0.4413
   11MOL   C298 5918   4.970   6.053   2.663 -0.0499 -0.3130 -0.5055
   11MOL   C299 5919   4.925   6.150   2.756 -0.5099  0.4682  0.1391
   11MOL   H300 5920   4.697   6.303   2.560 -0.1528 -0.3894 -1.9865
   11MOL   H301 5921   4.691   6.220   2.331 -2.6923 -2.4996 -0.3482
   11MOL   H302 5922   4.788   6.050   2.165  1.0343  2.7327 -0.1214
   11MOL   H303 5923   4.905   5.621   2.121  0.3265  0.3540  0.1483
   11MOL   H304 5924   4.965   5.723   1.980  1.1425 -2.1772  0.0724
   11MOL   H305 5925   4.733   5.718   1.892 -1.3427 -0.9776 -0.6237
   11MOL   H306 5926   4.786   5.564   1.917  0.4423  0.6684 -0.7262
   11MOL   H307 5927   5.047   5.886   2.472  1.3016  0.9345  0.0934
   11MOL   H308 5928   5.052   5.986   2.686  0.8625  0.8569 -0.2898
   11MOL   H309 5929   4.964   6.165   2.856 -2.6768 -3.9171  1.7684
   11MOL   O310 5930   4.589   5.842   2.114  0.1751 -0.0814  0.5501
   11MOL   C311 5931   4.563   5.723   2.125 -0.1036  0.4667 -0.6658
   11MOL   O312 5932   4.648   5.619   2.064  0.8335 -0.2267  0.0761
   11MOL   C313 5933   4.446   5.680   2.196 -0.2145  0.9326 -0.2596
   11MOL   C314 5934   4.354   5.772   2.261  0.5318 -0.3446  0.0178
   11MOL   C315 5935   4.234   5.722   2.317 -0.4407 -0.1727 -0.5640
   11MOL   C316 5936   4.152   5.813   2.381  0.2086 -0.4556  0.4996
   11MOL   C317 5937   4.025   5.762   2.434  0.2127  0.0711  0.1761
   11MOL   C318 5938   3.992   5.621   2.431 -0.0815  0.5142 -0.4713
   11MOL   C319 5939   3.868   5.571   2.492 -0.0866 -0.1949 -0.2294
   11MOL   O320 5940   3.856   5.434   2.480  0.0083  0.1539 -0.6079
   11MOL   C321 5941   3.738   5.370   2.514  0.0791  0.4302  1.0444
   11MOL   C322 5942   3.735   5.343   2.660 -0.3545  0.2939 -0.3667
   11MOL   O323 5943   3.782   5.643   2.535  0.2893  0.0536 -0.5147
   11MOL   C324 5944   4.082   5.537   2.369 -0.0490 -0.9942 -0.3160
   11MOL   C325 5945   4.199   5.586   2.311  0.4385 -0.2391  0.2275
   11MOL   C326 5946   4.296   5.497   2.257 -0.1332  1.0637 -0.2573
   11MOL   C327 5947   4.419   5.544   2.208  0.0561 -0.1143  0.0610
   11MOL   H328 5948   4.361   5.878   2.242 -0.3259 -0.0431  1.3362
   11MOL   H329 5949   4.152   5.921   2.375 -1.0284 -0.5788 -3.2169
   11MOL   H330 5950   3.946   5.825   2.470 -1.1507 -2.5468  1.8917
   11MOL   H331 5951   3.737   5.280   2.454  0.3389  1.8043 -1.0866
   11MOL   H332 5952   3.653   5.426   2.476  1.0016  1.2040  0.0736
   11MOL   H333 5953   3.747   5.435   2.717 -0.3865 -0.8080  1.4466
   11MOL   H334 5954   3.637   5.302   2.686 -0.6352  1.4394  0.4476
   11MOL   H335 5955   4.068   5.430   2.369  0.9387 -1.1413  0.8207
   11MOL   H336 5956   4.273   5.392   2.265  2.2590  0.6255  1.3404
   11MOL   H337 5957   4.487   5.464   2.181 -2.8574 -3.2746  1.6089
   11MOL   O338 5958   3.732   5.068   2.619  0.4195  0.2608 -0.1300
   11MOL   C339 5959   3.826   5.122   2.678 -0.3046 -0.5555  0.3669
   11MOL   O340 5960   3.840   5.253   2.704  0.4089 -0.5513 -0.3393
   11MOL   C341 5961   3.948   5.044   2.710  0.0292  0.1096  0.4108
   11MOL   C342 5962   4.069   5.109   2.739  0.5138  0.3180 -0.7862
   11MOL   C343 5963   4.185   5.035   2.754  0.1898 -0.3693  0.6996
   11MOL   C344 5964   4.311   5.102   2.790  0.1238  0.2758  0.2683
   11MOL   C345 5965   4.429   5.039   2.772 -0.0389  0.2281  0.1360
   11MOL   C346 5966   4.431   4.898   2.737  0.3501  0.4952  0.2814
   11MOL   C347 5967   4.559   4.824   2.724  0.0524  0.0285 -0.3623
   11MOL   O348 5968   4.552   4.698   2.738  0.0866 -0.3397  0.5660
   11MOL   C349 5969   4.666   4.619   2.767 -1.0469  0.0119  0.8266
   11MOL   C350 5970   4.675   4.501   2.664  0.1521 -0.0787  0.4226
   11MOL   O351 5971   4.663   4.889   2.709  0.0644 -0.0123 -0.4128
   11MOL   C352 5972   4.309   4.829   2.712 -0.7118 -0.5367 -0.8068
   11MOL   C353 5973   4.188   4.897   2.721  0.5413 -0.4255  0.4393
   11MOL   C354 5974   4.071   4.831   2.681  0.4077 -0.4099 -0.0605
   11MOL   C355 5975   3.946   4.901   2.675  0.4105  0.6194 -0.1771
   11MOL   H356 5976   4.069   5.211   2.774  1.5147  0.6025 -1.5830
   11MOL   H357 5977   4.309   5.207   2.813 -0.6933  0.6762 -1.5152
   11MOL   H358 5978   4.521   5.086   2.803  0.3853  0.3210 -1.2242
   11MOL   H359 5979   4.647   4.581   2.867 -1.8355 -1.7470  0.0333
   11MOL   H360 5980   4.758   4.675   2.783 -1.4681  1.5134 -1.6515
   11MOL   H361 5981   4.740   4.533   2.582  2.8411  0.0681  2.5188
   11MOL   H362 5982   4.722   4.419   2.718  0.0814  0.0879  0.7429
   11MOL   H363 5983   4.315   4.724   2.690 -1.9544 -0.9689  0.8842
   11MOL   H364 5984   4.077   4.729   2.644  1.0762 -0.9785  1.5995
   11MOL   H365 5985   3.858   4.855   2.633  0.5364 -0.6990  0.9611
   11MOL   O366 5986   4.505   4.364   2.823  0.1428 -0.0896 -0.0705
   11MOL   C367 5987   4.484   4.374   2.699 -0.0471 -0.0916 -0.8604
   11MOL   O368 5988   4.554   4.450   2.615  0.7156  0.5298  0.3913
   11MOL   C369 5989   4.368   4.301   2.635 -1.3446  0.0707 -0.7774
   11MOL   C370 5990   4.295   4.215   2.721 -0.1006 -0.1300  0.0968
   11MOL   C371 5991   4.193   4.140   2.660  0.1243  0.5205  0.2384
   11MOL   C372 5992   4.130   4.039   2.729  0.2553  0.4834  0.5285
   11MOL   C373 5993   4.028   3.964   2.674  0.4876 -0.9461  0.7077
   11MOL   C374 5994   3.981   3.989   2.545 -0.0667 -0.3334 -0.7293
   11MOL   C375 5995   3.869   3.913   2.494  0.0434  0.0511 -0.2174
   11MOL   O376 5996   3.860   3.911   2.362 -0.4936 -0.1448  0.6200
   11MOL   C377 5997   3.740   3.865   2.303  0.4699  0.6591 -0.5652
   11MOL   C378 5998   3.708   3.937   2.178  0.3927  0.4427 -0.4717
   11MOL   O379 5999   3.800   3.839   2.565 -0.0576  0.2503  0.2399
   11MOL   C380 6000   4.050   4.083   2.464 -0.5544 -0.3938  0.1127
   11MOL   C381 6001   4.154   4.157   2.526  0.1764  0.1387 -0.0182
   11MOL   C382 6002   4.221   4.254   2.451  0.2849 -1.0262  0.3853
   11MOL   C383 6003   4.323   4.328   2.504  0.1577  0.0614 -0.7625
   11MOL   H384 6004   4.326   4.199   2.823  1.8772 -1.0981 -0.6323
   11MOL   H385 6005   4.167   4.017   2.828 -1.4786  1.0973  1.3306
   11MOL   H386 6006   3.982   3.895   2.743 -0.6197 -0.5356  0.3908
   11MOL   H387 6007   3.663   3.841   2.375  2.0831  1.0078  1.3374
   11MOL   H388 6008   3.768   3.766   2.266  1.8388  0.0752  1.8914
   11MOL   H389 6009   3.791   3.940   2.107  1.1109 -0.6728  0.3149
   11MOL   H390 6010   3.617   3.894   2.137  1.5193  0.7310 -3.4552
   11MOL   H391 6011   4.019   4.101   2.363 -0.8097 -0.2051  0.2256
   11MOL   H392 6012   4.186   4.268   2.350  2.9295  0.1592 -0.3844
   11MOL   H393 6013   4.372   4.410   2.453  0.6500  2.3405  3.1263
   11MOL   O394 6014   3.864   4.172   2.144 -0.3989  0.1624  0.3515
   11MOL   C395 6015   3.753   4.168   2.206  0.1286  0.1998  0.4432
   11MOL   O396 6016   3.663   4.070   2.206  0.1638  0.0234  0.2265
   11MOL   C397 6017   3.713   4.264   2.309 -0.0885  0.3508 -0.2092
   11MOL   C398 6018   3.806   4.307   2.406  0.0259 -0.5228 -0.5502
   11MOL   C399 6019   3.761   4.410   2.493 -0.2253  0.7601 -0.3480
   11MOL   C400 6020   3.855   4.474   2.582  0.0125  0.2893  0.3460
   11MOL   C401 6021   3.811   4.573   2.671  0.8413  0.1890  0.6252
   11MOL   C402 6022   3.673   4.615   2.676 -0.2559  0.4855  0.3403
   11MOL   C403 6023   3.614   4.729   2.756  0.4175 -0.2445 -0.5985
   11MOL   O404 6024   3.689   4.787   2.856 -0.3139  0.4556 -0.3036
   11MOL   C405 6025   3.646   4.897   2.932 -0.1259  1.1263 -0.4127
   11MOL   C406 6026   3.604   4.877   3.079 -0.4703 -0.3409  0.3084
   11MOL   O407 6027   3.498   4.770   2.737  0.2689 -0.6369  0.3841
   11MOL   C408 6028   3.583   4.542   2.597 -0.4269 -0.0825  0.4227
   11MOL   C409 6029   3.624   4.448   2.499  0.2653  0.0772  0.0229
   11MOL   C410 6030   3.535   4.398   2.411 -0.2980 -0.0541  0.1429
   11MOL   C411 6031   3.577   4.309   2.307  0.1073 -0.8548 -0.2114
   11MOL   H412 6032   3.909   4.277   2.399 -0.1251 -1.1478 -0.1169
   11MOL   H413 6033   3.959   4.443   2.581  0.7592  2.6774 -0.6669
   11MOL   H414 6034   3.877   4.624   2.741  0.5015 -0.2724  1.2912
   11MOL   H415 6035   3.566   4.951   2.882 -0.0758  1.6396  0.0602
   11MOL   H416 6036   3.731   4.963   2.951  1.9340 -0.6375 -3.0205
   11MOL   H417 6037   3.524   4.803   3.079 -0.0262 -0.8271 -0.0620
   11MOL   H418 6038   3.694   4.854   3.136  0.7755  1.1811 -0.9512
   11MOL   H419 6039   3.479   4.570   2.610  0.1240  1.1733  2.3217
   11MOL   H420 6040   3.434   4.433   2.392 -0.0707 -0.9038 -3.0555
   11MOL   H421 6041   3.513   4.272   2.228 -0.5611 -0.4387  0.1364
   11MOL   O422 6042   3.723   5.133   3.134 -0.2638  0.3068 -0.1537
   11MOL   C423 6043   3.614   5.098   3.180 -0.5258  0.2289 -1.3303
   11MOL   O424 6044   3.544   4.982   3.138 -0.3356  0.1288  0.5275
   11MOL   C425 6045   3.533   5.177   3.276  0.0308  0.5131 -0.8957
   11MOL   C426 6046   3.586   5.295   3.329 -0.1474  0.2128 -0.5080
   11MOL   C427 6047   3.521   5.366   3.430 -0.4588  0.0884  0.0895
   11MOL   C428 6048   3.583   5.481   3.473 -0.9718 -0.5921  0.3097
   11MOL   C429 6049   3.518   5.569   3.560 -0.3603 -0.1932  0.0391
   11MOL   C430 6050   3.391   5.532   3.614 -0.8545 -0.6061  0.1056
   11MOL   C431 6051   3.332   5.614   3.724  0.0289  0.4325  0.2846
   11MOL   O432 6052   3.217   5.559   3.771 -0.6338  0.2389 -1.0109
   11MOL   C433 6053   3.154   5.613   3.880 -0.2108  0.5129 -0.1768
   11MOL   C434 6054   3.060   5.508   3.941  0.5982  0.0518  0.3685
   11MOL   O435 6055   3.394   5.710   3.771 -0.0873 -0.3820 -0.3912
   11MOL   C436 6056   3.334   5.408   3.575 -0.4420 -0.0578 -0.9004
   11MOL   C437 6057   3.400   5.324   3.480 -1.0795 -0.0819  0.1341
   11MOL   C438 6058   3.341   5.201   3.441  0.0866 -0.2406 -0.0689
   11MOL   C439 6059   3.408   5.128   3.338 -0.6283  0.7591 -0.5976
   11MOL   H440 6060   3.690   5.312   3.307  0.4013 -1.5537  0.6188
   11MOL   H441 6061   3.685   5.493   3.437 -1.0836  1.1254  0.5078
   11MOL   H442 6062   3.552   5.666   3.592 -1.4925 -0.5425  2.4523
   11MOL   H443 6063   3.090   5.699   3.860 -0.9150  0.0413  0.0357
   11MOL   H444 6064   3.229   5.630   3.957  0.8912  0.0228 -1.1109
   11MOL   H445 6065   2.997   5.561   4.013 -0.5976 -0.2188 -0.4489
   11MOL   H446 6066   2.985   5.455   3.882 -0.4431  0.7826  1.0041
   11MOL   H447 6067   3.249   5.369   3.629 -0.3703  0.0205 -0.7306
   11MOL   H448 6068   3.243   5.169   3.474 -0.1587  1.3294  0.7460
   11MOL   H449 6069   3.367   5.032   3.308  0.8363  0.1009 -0.5396
   11MOL   O450 6070   3.018   5.425   4.211 -0.0515  0.4354  0.4755
   11MOL   C451 6071   3.092   5.363   4.140 -0.5774 -0.6002  0.2275
   11MOL   O452 6072   3.124   5.403   4.012 -0.5263  0.0101 -0.4178
   11MOL   C453 6073   3.170   5.241   4.180 -0.1179  0.3406 -0.0987
   11MOL   C454 6074   3.263   5.190   4.092 -0.2032  1.0354  0.0121
   11MOL   C455 6075   3.349   5.088   4.149  0.0646 -1.0940  0.0638
   11MOL   C456 6076   3.455   5.043   4.071  0.2832  0.0741 -0.5697
   11MOL   C457 6077   3.547   4.951   4.126  0.7295  0.5358 -0.3535
   11MOL   C458 6078   3.531   4.901   4.261 -0.2343 -0.8165  0.6627
   11MOL   C459 6079   3.628   4.801   4.300 -0.1198 -0.7897  0.2157
   11MOL   O460 6080   3.649   4.700   4.211 -0.7581  0.0997  0.1649
   11MOL   C461 6081   3.748   4.595   4.229  0.8637  0.1159 -0.2581
   11MOL   C462 6082   3.676   4.484   4.309 -0.4243  0.1053 -0.5176
   11MOL   O463 6083   3.685   4.802   4.411 -0.5358 -0.6572  0.3299
   11MOL   C464 6084   3.424   4.949   4.339 -0.5144  0.5520  0.3410
   11MOL   C465 6085   3.341   5.048   4.284 -0.6823  0.2763  0.1191
   11MOL   C466 6086   3.242   5.099   4.366  1.4055  0.8378 -0.3614
   11MOL   C467 6087   3.163   5.197   4.318  0.1872 -0.2973 -0.2311
   11MOL   H468 6088   3.282   5.228   3.993 -1.4442  1.6025 -0.0181
   11MOL   H469 6089   3.464   5.074   3.968  1.9584 -0.2225 -0.5107
   11MOL   H470 6090   3.626   4.905   4.070 -0.2970  1.6841 -2.8462
   11MOL   H471 6091   3.835   4.631   4.284  2.5557 -2.7678 -0.8947
   11MOL   H472 6092   3.791   4.567   4.133  0.5963  2.0787 -0.9704
   11MOL   H473 6093   3.743   4.397   4.309 -0.6739 -0.0892  0.7978
   11MOL   H474 6094   3.653   4.511   4.412 -1.7243  1.3372 -1.1157
   11MOL   H475 6095   3.404   4.912   4.439  0.0087  2.1250  1.0449
   11MOL   H476 6096   3.235   5.089   4.473  1.1410  1.8527 -0.2790
   11MOL   H477 6097   3.098   5.256   4.381 -1.2116 -1.3485 -0.6786
   11MOL   O478 6098   3.579   4.236   4.320  1.1094  0.1184  0.4933
   11MOL   C479 6099   3.519   4.318   4.252  0.0128  0.3279  0.0855
   11MOL   O480 6100   3.561   4.447   4.239  0.0580 -0.3742 -0.1755
   11MOL   C481 6101   3.400   4.286   4.166  0.2203 -0.2824  0.2746
   11MOL   C482 6102   3.317   4.384   4.107  0.6830 -0.2631  0.2157
   11MOL   C483 6103   3.225   4.352   4.004 -0.1179  0.2158 -0.0561
   11MOL   C484 6104   3.132   4.444   3.954  0.0260  0.9986  0.7901
   11MOL   C485 6105   3.033   4.404   3.862 -0.0711  0.0153  0.9628
   11MOL   C486 6106   3.026   4.271   3.818 -1.0217 -0.0719 -0.4560
   11MOL   C487 6107   2.911   4.230   3.735  0.2963 -0.3740  0.4176
   11MOL   O488 6108   2.906   4.103   3.706 -0.4896  0.0867 -0.1129
   11MOL   C489 6109   2.807   4.044   3.617 -0.8223  0.1144 -0.3447
   11MOL   C490 6110   2.833   4.079   3.471  0.4142  0.1652 -0.1339
   11MOL   O491 6111   2.815   4.306   3.712  0.2629 -0.0242  0.2338
   11MOL   C492 6112   3.123   4.174   3.863  0.5298 -0.3323  0.3486
   11MOL   C493 6113   3.224   4.220   3.950  0.3210  0.0770 -0.4817
   11MOL   C494 6114   3.308   4.123   4.000 -1.3130  0.5898  0.3453
   11MOL   C495 6115   3.396   4.157   4.107 -0.3498  0.5804  0.1493
   11MOL   H496 6116   3.321   4.484   4.147  1.7717  1.3059 -3.6439
   11MOL   H497 6117   3.147   4.549   3.974 -1.8925  1.4990 -0.2125
   11MOL   H498 6118   2.965   4.475   3.818 -2.0593 -2.8347 -0.6993
   11MOL   H499 6119   2.711   4.071   3.661  0.0380  0.2128  1.5372
   11MOL   H500 6120   2.809   3.936   3.629  0.0277  0.3268  1.6864
   11MOL   H501 6121   2.748   4.044   3.413 -1.0999  0.3444  1.8981
   11MOL   H502 6122   2.837   4.187   3.457  0.6609  0.4598  2.0162
   11MOL   H503 6123   3.121   4.070   3.833  0.5372 -0.6852  1.5479
   11MOL   H504 6124   3.297   4.021   3.966 -0.6185  0.3486  0.8492
   11MOL   H505 6125   3.461   4.078   4.143  0.2000  1.5406  1.2915
   11MOL   O506 6126   2.867   3.805   3.420  0.2681 -0.8375  0.4058
   11MOL   C507 6127   2.963   3.884   3.402  0.2025  1.1067 -0.3149
   11MOL   O508 6128   2.948   4.021   3.412 -0.1971 -0.0084 -0.2573
   11MOL   C509 6129   3.101   3.845   3.355 -0.1057 -0.4716 -0.0409
   11MOL   C510 6130   3.180   3.942   3.295  0.2168  0.0029 -0.1635
   11MOL   C511 6131   3.315   3.925   3.270 -0.5673  0.2559 -0.3218
   11MOL   C512 6132   3.396   4.027   3.220  0.9086  0.8573 -0.3146
   11MOL   C513 6133   3.532   4.007   3.208 -0.0250 -0.4692  0.4992
   11MOL   C514 6134   3.593   3.884   3.250  0.6160  0.1564 -0.5013
   11MOL   C515 6135   3.736   3.874   3.244 -0.2285 -0.3415 -0.1218
   11MOL   O516 6136   3.778   3.829   3.361 -0.4554  0.2854  0.1640
   11MOL   C517 6137   3.911   3.801   3.393 -0.4790  0.6318 -0.9855
   11MOL   C518 6138   4.006   3.922   3.391 -0.1684  0.5024  0.1616
   11MOL   O519 6139   3.801   3.889   3.143 -0.3752  0.4135  0.2921
   11MOL   C520 6140   3.511   3.782   3.297 -0.5518  0.2633  0.0356
   11MOL   C521 6141   3.373   3.800   3.304  0.0484 -0.4500  0.1913
   11MOL   C522 6142   3.296   3.697   3.360  0.3150  0.1525 -0.5677
   11MOL   C523 6143   3.155   3.720   3.384 -0.0902 -0.0032 -0.4481
   11MOL   H524 6144   3.133   4.029   3.253 -2.1051 -1.2973 -0.3410
   11MOL   H525 6145   3.346   4.119   3.192 -2.5082 -0.6536  0.5134
   11MOL   H526 6146   3.580   4.095   3.169 -0.2459 -0.6936 -0.3059
   11MOL   H527 6147   3.950   3.729   3.320  0.9405 -0.9783  1.3038
   11MOL   H528 6148   3.933   3.761   3.492 -1.8169 -0.4333 -1.1065
   11MOL   H529 6149   4.109   3.886   3.388 -1.0708 -2.1619 -4.7091
   11MOL   H530 6150   4.005   3.975   3.296 -4.2789  0.9257  0.3438
   11MOL   H531 6151   3.542   3.682   3.323 -2.6883 -0.7009 -0.9870
   11MOL   H532 6152   3.336   3.602   3.391 -2.6208 -1.1531 -0.5943
   11MOL   H533 6153   3.105   3.640   3.435  1.9244 -0.7164  0.4461
   11MOL   O534 6154   3.950   4.197   3.415 -0.1556 -0.0427 -0.7059
   11MOL   C535 6155   3.983   4.131   3.517 -0.1324  0.0983  0.7532
   11MOL   O536 6156   4.013   3.997   3.521 -0.6932 -0.0662  0.0416
   11MOL   C537 6157   3.993   4.194   3.646  0.2303  0.0619 -0.2329
   11MOL   C538 6158   4.117   4.185   3.717  0.4088  0.4116  0.6165
   11MOL   C539 6159   4.125   4.238   3.847  0.1915  0.1729  0.6144
   11MOL   C540 6160   4.235   4.206   3.929  0.2485  0.2568  0.0504
   11MOL   C541 6161   4.226   4.233   4.064 -0.5396 -0.4488 -0.2073
   11MOL   C542 6162   4.118   4.306   4.123  0.2218  0.4883  0.5040
   11MOL   C543 6163   4.112   4.330   4.272  0.2886  0.1041 -0.3061
   11MOL   O544 6164   4.228   4.293   4.331  0.6017  0.1020 -0.1985
   11MOL   C545 6165   4.253   4.343   4.457  0.5275 -0.1344 -0.0605
   11MOL   C546 6166   4.384   4.269   4.492 -0.1612 -0.9963  0.9494
   11MOL   O547 6167   4.014   4.374   4.332 -0.1677 -0.0218 -0.6242
   11MOL   C548 6168   4.015   4.352   4.032  0.4193  0.4009  0.2452
   11MOL   C549 6169   4.011   4.309   3.902 -0.8693 -0.5568 -0.1823
   11MOL   C550 6170   3.893   4.329   3.824  0.1055  0.1201 -0.1411
   11MOL   C551 6171   3.882   4.276   3.693 -0.0764 -0.9528  0.0975
   11MOL   H552 6172   4.203   4.130   3.684 -0.7418  0.2508 -2.2256
   11MOL   H553 6173   4.327   4.156   3.902  0.9271  0.3058  2.1458
   11MOL   H554 6174   4.305   4.190   4.123  1.1821 -1.1933 -2.9516
   11MOL   H555 6175   4.167   4.317   4.520  1.2945  0.8412  1.4078
   11MOL   H556 6176   4.263   4.451   4.450 -1.1000  0.0655  0.4393
   11MOL   H557 6177   4.424   4.306   4.587 -0.0658  0.5815  0.3154
   11MOL   H558 6178   4.463   4.284   4.418 -0.2211 -3.1190  0.4078
   11MOL   H559 6179   3.924   4.398   4.067 -0.3533 -0.1711 -0.9637
   11MOL   H560 6180   3.808   4.376   3.872  0.9433  0.6573  0.8255
   11MOL   H561 6181   3.786   4.285   3.644 -0.0854  0.1441  0.3131
   11MOL   H562 6182   4.357   4.164   4.504 -1.1481 -1.0434 -1.4298
   12MOL     O1 6183   5.137   6.852   3.370  0.2135 -0.1344  0.0966
   12MOL     C2 6184   5.218   6.833   3.456  0.0196  0.2136 -0.1621
   12MOL     O3 6185   5.343   6.887   3.456  0.3169 -0.2459 -0.1094
   12MOL     C4 6186   5.186   6.742   3.569 -0.3064  0.3915  0.5353
   12MOL     C5 6187   5.064   6.677   3.573 -0.4432  0.5859 -0.6953
   12MOL     C6 6188   5.036   6.576   3.672 -0.1958  0.1170 -0.3077
   12MOL     C7 6189   4.913   6.501   3.673  0.6201  0.0953  0.2226
   12MOL     C8 6190   4.879   6.416   3.784 -0.3257  0.0570  0.5527
   12MOL     C9 6191   4.970   6.404   3.887 -0.9854  0.2345 -0.4255
   12MOL    C10 6192   4.940   6.314   4.000 -0.3921  0.3175 -0.3686
   12MOL    O11 6193   5.034   6.306   4.093  0.9637 -0.4422 -0.1935
   12MOL    C12 6194   5.017   6.219   4.203 -0.5489 -0.3897  0.0542
   12MOL    C13 6195   4.954   6.299   4.317 -0.3827 -0.4805 -0.1912
   12MOL    O14 6196   4.836   6.248   4.008  0.7058  0.2649 -0.0901
   12MOL    C15 6197   5.094   6.477   3.878 -0.2638  0.4553 -0.1064
   12MOL    C16 6198   5.125   6.560   3.776 -0.7184 -1.7639 -0.4049
   12MOL    C17 6199   5.249   6.630   3.776 -0.1971  0.5992  0.0144
   12MOL    C18 6200   5.279   6.720   3.672  0.5244 -0.3036  0.0990
   12MOL    H19 6201   4.986   6.694   3.501 -0.5819  0.2641 -0.6220
   12MOL    H20 6202   4.838   6.505   3.595 -1.7697  1.9903  2.5326
   12MOL    H21 6203   4.786   6.361   3.781 -0.3553  0.0237  1.7953
   12MOL    H22 6204   4.969   6.132   4.158 -0.8674  0.4046 -1.1547
   12MOL    H23 6205   5.118   6.192   4.236 -1.1814 -1.3572  1.2183
   12MOL    H24 6206   4.863   6.348   4.282  0.8083  2.3869  0.6302
   12MOL    H25 6207   4.921   6.241   4.404  0.6444  0.4130  0.7978
   12MOL    H26 6208   5.171   6.445   3.946 -0.8972  0.7429  0.7674
   12MOL    H27 6209   5.324   6.598   3.847 -2.7114  0.6239  2.7540
   12MOL    H28 6210   5.377   6.763   3.681  1.1687 -2.2594  3.4206
   12MOL    H29 6211   5.350   6.937   3.375  1.1561 -0.2317 -0.0326
   12MOL    O30 6212   5.090   6.303   4.560 -0.3205 -0.0692  0.2873
   12MOL    C31 6213   5.126   6.384   4.472 -0.4865  0.4659 -0.5461
   12MOL    O32 6214   5.050   6.396   4.358  0.0608 -0.3010  0.1149
   12MOL    C33 6215   5.241   6.480   4.486  0.3832 -0.9964 -0.1173
   12MOL    C34 6216   5.291   6.551   4.371 -0.3747 -0.2836 -0.3354
   12MOL    C35 6217   5.407   6.635   4.381  0.5639 -0.5258  0.8576
   12MOL    C36 6218   5.452   6.715   4.272  0.2918 -0.9426 -0.1872
   12MOL    C37 6219   5.558   6.806   4.276  0.0487  0.5486 -0.2150
   12MOL    C38 6220   5.623   6.824   4.401  0.1205 -0.8375 -0.7572
   12MOL    C39 6221   5.740   6.913   4.423  0.1314  0.0271  0.5068
   12MOL    O40 6222   5.779   6.959   4.304 -1.1499  0.4643  0.0607
   12MOL    C41 6223   5.893   7.038   4.296  0.6427 -0.8193 -0.3409
   12MOL    C42 6224   5.976   6.993   4.175 -0.3616 -0.6015  0.1717
   12MOL    O43 6225   5.785   6.942   4.532 -0.4341 -0.7689  0.5883
   12MOL    C44 6226   5.571   6.747   4.512  0.2474  0.2431  0.8756
   12MOL    C45 6227   5.468   6.650   4.503 -0.1517  0.1307 -0.5559
   12MOL    C46 6228   5.420   6.584   4.617 -0.2385 -0.0667 -0.2694
   12MOL    C47 6229   5.306   6.504   4.611 -0.5461 -0.7791 -0.3749
   12MOL    H48 6230   5.241   6.549   4.276  1.3643  0.5858 -1.2915
   12MOL    H49 6231   5.406   6.703   4.175  0.7402 -2.1959 -0.2558
   12MOL    H50 6232   5.587   6.874   4.197 -1.2040  1.2726 -0.0673
   12MOL    H51 6233   5.959   7.020   4.381 -1.7171 -1.0489  1.5102
   12MOL    H52 6234   5.861   7.142   4.301 -0.2026 -1.1384  1.5016
   12MOL    H53 6235   6.069   7.049   4.169 -0.7728  0.1828  1.0364
   12MOL    H54 6236   6.007   6.889   4.180  1.8100 -0.0382 -0.8266
   12MOL    H55 6237   5.633   6.754   4.601  0.3319 -0.1443  0.8512
   12MOL    H56 6238   5.471   6.601   4.711 -2.0153  0.3130  0.6547
   12MOL    H57 6239   5.285   6.447   4.700  2.7267 -1.2321  0.1646
   12MOL    O58 6240   5.953   7.230   4.062  0.0730  0.1942 -0.0971
   12MOL    C59 6241   5.883   7.142   4.013  0.2235 -0.2319 -0.1575
   12MOL    O60 6242   5.903   7.010   4.049  0.0747  0.0304  0.6861
   12MOL    C61 6243   5.788   7.160   3.898 -0.4115  0.6572 -0.0405
   12MOL    C62 6244   5.809   7.246   3.791 -0.8973  0.5561  0.0149
   12MOL    C63 6245   5.720   7.251   3.679 -0.2103 -0.3001 -0.5156
   12MOL    C64 6246   5.750   7.331   3.568 -0.3628 -0.4939  0.1634
   12MOL    C65 6247   5.653   7.337   3.463  0.4152 -0.1982 -0.6926
   12MOL    C66 6248   5.531   7.272   3.473  0.9973  0.0890 -0.0288
   12MOL    C67 6249   5.420   7.285   3.367 -0.3333  0.7048 -0.6885
   12MOL    O68 6250   5.421   7.404   3.313 -0.1840  0.1216  0.5498
   12MOL    C69 6251   5.321   7.435   3.219  0.1218  0.7455 -0.4742
   12MOL    C70 6252   5.358   7.565   3.143 -0.8944 -1.0798 -0.5123
   12MOL    O71 6253   5.333   7.201   3.351  0.8461 -0.2623  0.1298
   12MOL    C72 6254   5.514   7.171   3.572 -0.2767  0.0847 -0.1675
   12MOL    C73 6255   5.605   7.167   3.682  0.3703  0.6283  0.0118
   12MOL    C74 6256   5.584   7.075   3.788 -0.0348 -0.0676 -0.1223
   12MOL    C75 6257   5.676   7.080   3.897  0.3679 -0.1148  0.3662
   12MOL    H76 6258   5.902   7.300   3.793  0.9216 -2.4789 -0.7939
   12MOL    H77 6259   5.821   7.412   3.568 -0.5532 -0.3286  0.8399
   12MOL    H78 6260   5.671   7.400   3.377  0.6753 -0.6339 -0.9594
   12MOL    H79 6261   5.226   7.447   3.271 -0.4118 -0.7364 -1.0829
   12MOL    H80 6262   5.302   7.355   3.149  0.2563 -0.7859  1.1909
   12MOL    H81 6263   5.259   7.602   3.115  0.0357  1.8962 -0.1036
   12MOL    H82 6264   5.405   7.637   3.211  0.9342 -0.0412 -2.7862
   12MOL    H83 6265   5.425   7.110   3.570  1.5104 -2.6271 -5.1209
   12MOL    H84 6266   5.491   7.021   3.793  0.7470 -1.3936  0.1450
   12MOL    H85 6267   5.660   7.016   3.983 -2.0271  0.6441  0.5131
   12MOL    O86 6268   5.629   7.531   3.131 -0.7779  0.0990 -0.3079
   12MOL    C87 6269   5.566   7.509   3.028  0.3625  0.1964  0.1078
   12MOL    O88 6270   5.437   7.539   3.020  0.2948 -0.4364  0.7302
   12MOL    C89 6271   5.627   7.472   2.894  0.1032  0.3729 -0.2278
   12MOL    C90 6272   5.555   7.467   2.776 -0.3254  0.2933  0.1046
   12MOL    C91 6273   5.609   7.413   2.659  0.2908  0.7968  0.3145
   12MOL    C92 6274   5.536   7.405   2.539 -0.3116 -0.1137  0.8783
   12MOL    C93 6275   5.597   7.352   2.418 -0.8909 -0.2293  0.1951
   12MOL    C94 6276   5.735   7.319   2.420  0.5111 -0.3255  0.7343
   12MOL    C95 6277   5.795   7.255   2.301 -0.6330  0.9300  0.0709
   12MOL    O96 6278   5.917   7.199   2.323 -0.4153 -0.3776 -0.3665
   12MOL    C97 6279   6.008   7.181   2.212 -0.3338 -0.2631 -0.1943
   12MOL    C98 6280   6.072   7.322   2.179 -0.5614 -0.1499 -0.9669
   12MOL    O99 6281   5.740   7.264   2.189 -0.2632 -0.5472  0.3035
   12MOL   C100 6282   5.805   7.336   2.536  0.6149 -0.1300 -0.4150
   12MOL   C101 6283   5.750   7.381   2.656  0.4195  0.2205  0.3218
   12MOL   C102 6284   5.826   7.396   2.774  0.2551 -0.2748 -0.2395
   12MOL   C103 6285   5.764   7.438   2.892  0.6937 -0.3251 -0.3280
   12MOL   H104 6286   5.450   7.492   2.775 -0.4283 -0.1421 -0.0335
   12MOL   H105 6287   5.433   7.439   2.544 -0.1355  0.9950 -2.2727
   12MOL   H106 6288   5.533   7.328   2.334 -1.7641 -1.9192  1.3091
   12MOL   H107 6289   5.963   7.133   2.125  2.9542 -1.1523 -1.4902
   12MOL   H108 6290   6.088   7.129   2.265  0.4993  1.2338  0.0329
   12MOL   H109 6291   6.152   7.321   2.104 -1.0986 -2.2685 -1.5547
   12MOL   H110 6292   5.996   7.388   2.137  1.0317  1.4373 -1.4078
   12MOL   H111 6293   5.910   7.311   2.545  0.4993 -0.3655  0.2805
   12MOL   H112 6294   5.931   7.377   2.784  0.4102  1.2062  1.2072
   12MOL   H113 6295   5.826   7.453   2.979  0.9290 -1.2276 -0.3349
   12MOL   O114 6296   6.224   7.542   2.189  0.1128 -0.8967  0.1167
   12MOL   C115 6297   6.205   7.483   2.295  0.2888 -0.7310 -0.4521
   12MOL   O116 6298   6.129   7.373   2.301  0.1188 -0.2616  0.1861
   12MOL   C117 6299   6.261   7.522   2.431  0.7881 -0.0281 -0.3036
   12MOL   C118 6300   6.235   7.452   2.551  0.3302  0.1228 -0.3835
   12MOL   C119 6301   6.290   7.494   2.675  0.0811 -0.6506 -0.4216
   12MOL   C120 6302   6.252   7.432   2.796 -0.6091 -0.5447  0.3249
   12MOL   C121 6303   6.320   7.462   2.919  0.0106 -0.1182  1.2173
   12MOL   C122 6304   6.423   7.560   2.922 -0.1160  0.2247 -0.0275
   12MOL   C123 6305   6.494   7.593   3.047  0.2795  0.8614 -0.4537
   12MOL   O124 6306   6.575   7.698   3.027  0.4542  0.4536 -0.2604
   12MOL   C125 6307   6.678   7.739   3.119  0.5416  0.0703 -0.1820
   12MOL   C126 6308   6.743   7.869   3.066 -0.5449 -0.4038 -0.0929
   12MOL   O127 6309   6.483   7.537   3.154 -0.4433 -0.4536 -0.3829
   12MOL   C128 6310   6.454   7.622   2.800  0.1317 -0.4111  0.3679
   12MOL   C129 6311   6.385   7.592   2.681  0.5728 -0.2875 -0.4750
   12MOL   C130 6312   6.414   7.665   2.562 -0.3022  0.0819  0.2284
   12MOL   C131 6313   6.353   7.631   2.442 -0.2247 -0.4883 -0.6141
   12MOL   H132 6314   6.158   7.377   2.550 -0.9600  1.3738  1.8431
   12MOL   H133 6315   6.172   7.360   2.798 -0.1107 -1.1839 -1.7067
   12MOL   H134 6316   6.275   7.417   3.006 -1.0733  0.5682  1.0202
   12MOL   H135 6317   6.746   7.658   3.146  0.2778  0.3103  1.2575
   12MOL   H136 6318   6.634   7.763   3.216  0.8351  1.7547 -0.4607
   12MOL   H137 6319   6.666   7.944   3.054 -0.1927  0.0992  0.7667
   12MOL   H138 6320   6.822   7.894   3.137  0.1693 -2.2302 -0.1925
   12MOL   H139 6321   6.525   7.702   2.812  0.4134 -0.8921  1.9925
   12MOL   H140 6322   6.479   7.751   2.575 -0.4332  0.1233  0.6251
   12MOL   H141 6323   6.375   7.689   2.353 -0.2864  0.8109  0.2051
   12MOL   O142 6324   6.995   7.752   3.005 -0.0782 -0.3889 -0.4802
   12MOL   C143 6325   6.914   7.786   2.916 -0.6163  0.2212  1.2117
   12MOL   O144 6326   6.797   7.841   2.939  0.2879  0.1404 -0.1292
   12MOL   C145 6327   6.934   7.758   2.770 -0.0735  0.2222  0.6446
   12MOL   C146 6328   6.829   7.801   2.680  0.2558 -0.5851  0.2325
   12MOL   C147 6329   6.846   7.775   2.543  0.5552 -0.1403 -0.0010
   12MOL   C148 6330   6.756   7.824   2.445  0.1636  0.1138 -0.7856
   12MOL   C149 6331   6.782   7.814   2.308  0.0375 -0.4638 -1.0111
   12MOL   C150 6332   6.900   7.742   2.259 -0.6018 -0.2804 -0.4369
   12MOL   C151 6333   6.927   7.738   2.114  0.3779 -0.2329 -0.2718
   12MOL   O152 6334   7.021   7.655   2.083 -0.6184  0.3776  0.0305
   12MOL   C153 6335   7.066   7.644   1.950  0.3427 -0.5332  0.2903
   12MOL   C154 6336   7.193   7.731   1.941  0.6214 -0.1909  0.3525
   12MOL   O155 6337   6.857   7.802   2.035  0.2797 -0.6144 -0.4681
   12MOL   C156 6338   6.987   7.683   2.362  0.7574 -0.0114 -0.2198
   12MOL   C157 6339   6.959   7.706   2.500 -0.2537  0.1621  0.2678
   12MOL   C158 6340   7.058   7.663   2.590 -0.8084  0.2927  0.0287
   12MOL   C159 6341   7.048   7.690   2.728  0.0711 -0.0223 -0.0116
   12MOL   H160 6342   6.746   7.866   2.703  3.2235  3.4601  0.0945
   12MOL   H161 6343   6.671   7.882   2.477  0.6507  0.2241  0.3271
   12MOL   H162 6344   6.721   7.863   2.234 -1.2962 -1.7192 -0.7749
   12MOL   H163 6345   6.983   7.663   1.881 -2.1891 -0.1319  3.2859
   12MOL   H164 6346   7.095   7.541   1.937  0.9378 -0.2992 -0.2105
   12MOL   H165 6347   7.214   7.755   2.046  0.8584  0.8984  0.0709
   12MOL   H166 6348   7.275   7.663   1.920 -0.0453 -1.0333  0.4449
   12MOL   H167 6349   7.073   7.622   2.337  0.0033 -1.1383 -0.0913
   12MOL   H168 6350   7.144   7.606   2.557 -0.6921  0.6032 -0.2067
   12MOL   H169 6351   7.126   7.649   2.791 -0.0175 -1.3763 -0.7819
   12MOL   O170 6352   7.184   7.750   1.662  0.0414  0.4163  0.3696
   12MOL   C171 6353   7.175   7.847   1.735 -0.6781  0.1475 -0.7503
   12MOL   O172 6354   7.173   7.847   1.864 -0.7968  0.0392 -0.0162
   12MOL   C173 6355   7.157   7.978   1.672  0.8053  0.3129 -0.3140
   12MOL   C174 6356   7.179   8.094   1.743  0.3019  0.3702 -0.3948
   12MOL   C175 6357   7.176   8.224   1.678 -0.6458 -0.4389  0.4777
   12MOL   C176 6358   7.180   0.093   1.754  0.2852  0.4524 -0.2314
   12MOL   C177 6359   7.154   0.209   1.695 -0.0474  0.4120  0.1935
   12MOL   C178 6360   7.143   0.226   1.555  0.0829 -0.0341  0.2249
   12MOL   C179 6361   7.127   0.363   1.495  0.2564 -0.1231  0.9454
   12MOL   O180 6362   7.145   0.352   1.358 -0.2386  0.3182 -0.0573
   12MOL   C181 6363   7.117   0.459   1.271 -0.0778  0.4921 -1.3165
   12MOL   C182 6364   7.221   0.457   1.154  0.1765 -0.2358 -0.1230
   12MOL   O183 6365   7.097   0.465   1.556  0.0682  0.5520 -0.3511
   12MOL   C184 6366   7.149   0.106   1.481  0.2494  0.7463 -0.1060
   12MOL   C185 6367   7.152   8.231   1.540  0.4896 -0.7852 -0.6291
   12MOL   C186 6368   7.141   8.113   1.470  0.0683  0.4626 -0.1153
   12MOL   C187 6369   7.142   7.984   1.533 -0.9015 -0.7743  0.0154
   12MOL   H188 6370   7.189   8.088   1.850 -2.7865 -0.4663 -0.1001
   12MOL   H189 6371   7.184   0.087   1.861  0.4385 -1.0661 -0.3185
   12MOL   H190 6372   7.145   0.296   1.758  0.2023 -0.4580  1.4542
   12MOL   H191 6373   7.128   0.545   1.336  0.6160 -0.3693 -0.2678
   12MOL   H192 6374   7.015   0.447   1.234 -1.5747  2.3396  2.0039
   12MOL   H193 6375   7.171   0.520   1.081 -2.2118 -2.7885 -0.7608
   12MOL   H194 6376   7.315   0.508   1.179  0.3203 -0.1106 -0.9095
   12MOL   H195 6377   7.140   0.108   1.373  0.6014 -1.2269 -0.1933
   12MOL   H196 6378   7.129   8.113   1.363 -0.1333  1.3849 -0.0989
   12MOL   H197 6379   7.152   7.894   1.474  0.1605 -0.5523 -0.1667
   12MOL   O198 6380   7.057   0.360   0.951 -0.8171  0.2611  0.9521
   12MOL   C199 6381   7.149   0.293   1.002  0.3455 -0.1905 -0.2599
   12MOL   O200 6382   7.228   0.321   1.109 -0.0758  0.1407  0.3374
   12MOL   C201 6383   7.188   0.157   0.944  0.2302  0.2326  0.6170
   12MOL   C202 6384   7.303   0.087   0.980 -0.0250  0.6782  0.2032
   12MOL   C203 6385   7.332   8.217   0.911 -0.1792 -0.5286  0.1622
   12MOL   C204 6386   7.454   8.151   0.950  0.0326 -0.3238 -0.2517
   12MOL   C205 6387   7.495   8.040   0.882 -0.0350  0.5071  0.0190
   12MOL   C206 6388   7.409   7.977   0.783  0.4907  0.2025 -0.1722
   12MOL   C207 6389   7.445   7.845   0.719 -0.6036 -0.2201 -0.5054
   12MOL   O208 6390   7.567   7.798   0.761  0.5107  0.1198  0.0429
   12MOL   C209 6391   7.616   7.671   0.710  0.1937  0.2744  0.3927
   12MOL   C210 6392   7.586   7.560   0.809  0.6312  0.4128 -0.2567
   12MOL   O211 6393   7.370   7.783   0.643  0.3583  0.2139  0.9692
   12MOL   C212 6394   7.285   8.041   0.750 -0.3705  0.0229  1.1589
   12MOL   C213 6395   7.244   8.163   0.815  0.1166  0.3326 -0.5945
   12MOL   C214 6396   7.122   8.232   0.783 -0.5652  0.8335 -0.0379
   12MOL   C215 6397   7.095   0.106   0.849 -0.3549 -0.2304 -0.1022
   12MOL   H216 6398   7.384   0.132   1.034  0.5194 -0.5885  0.4650
   12MOL   H217 6399   7.524   8.188   1.023  0.6180 -0.6266 -0.6583
   12MOL   H218 6400   7.584   7.986   0.909  0.5865  1.9358  0.9049
   12MOL   H219 6401   7.723   7.693   0.711 -0.0415  1.4303  1.1245
   12MOL   H220 6402   7.591   7.645   0.607  0.1483 -0.1021  0.5007
   12MOL   H221 6403   7.646   7.470   0.804  0.8471  0.4781  0.9597
   12MOL   H222 6404   7.588   7.589   0.914 -2.5471  0.0110 -0.0426
   12MOL   H223 6405   7.216   7.996   0.681  0.7620  1.2905 -0.8387
   12MOL   H224 6406   7.057   8.202   0.702 -0.7029 -1.2355  0.8159
   12MOL   H225 6407   7.005   0.158   0.821 -0.8507 -0.7343  0.5488
   12MOL   O226 6408   7.499   7.362   0.643  0.5953 -0.3537  0.6015
   12MOL   C227 6409   7.412   7.429   0.702 -0.4100 -0.5408 -0.0404
   12MOL   O228 6410   7.449   7.528   0.792  0.0159  0.2662  0.0960
   12MOL   C229 6411   7.263   7.420   0.672 -0.0645  0.2893 -0.4533
   12MOL   C230 6412   7.174   7.517   0.717 -0.2966  0.0669 -0.5546
   12MOL   C231 6413   7.035   7.512   0.691  0.3072  0.3833 -0.2022
   12MOL   C232 6414   6.949   7.610   0.742  0.2408  0.0310 -0.2228
   12MOL   C233 6415   6.811   7.598   0.719 -0.3968 -0.1574 -0.2532
   12MOL   C234 6416   6.761   7.481   0.656 -0.8455 -0.5085 -0.3003
   12MOL   C235 6417   6.619   7.483   0.634  0.6418  0.3989  0.3669
   12MOL   O236 6418   6.562   7.356   0.646  0.3146 -0.1712  0.0326
   12MOL   C237 6419   6.421   7.341   0.652 -0.0351  0.1354  0.4245
   12MOL   C238 6420   6.399   7.210   0.726  0.6232 -0.5552 -0.5741
   12MOL   O239 6421   6.561   7.585   0.602  0.3634  0.4845 -0.5963
   12MOL   C240 6422   6.846   7.380   0.606 -0.4378  0.0857  0.3350
   12MOL   C241 6423   6.984   7.394   0.628 -0.0497 -0.2335  0.1919
   12MOL   C242 6424   7.074   7.289   0.594 -1.2144  0.1796 -0.5701
   12MOL   C243 6425   7.217   7.299   0.610  0.1901  0.4577 -0.4403
   12MOL   H244 6426   7.218   7.600   0.771  1.9270 -1.1404 -0.4473
   12MOL   H245 6427   6.994   7.691   0.798  1.2744 -0.3739 -0.4460
   12MOL   H246 6428   6.749   7.676   0.761  2.0702  2.1317 -0.7185
   12MOL   H247 6429   6.382   7.342   0.550  3.0822  0.9640 -0.7906
   12MOL   H248 6430   6.378   7.418   0.715  0.9279 -0.0554  1.3095
   12MOL   H249 6431   6.472   7.133   0.705  0.2114 -1.0504 -0.2139
   12MOL   H250 6432   6.372   7.232   0.830  0.9332  2.3360 -1.0728
   12MOL   H251 6433   6.801   7.297   0.554  0.3024  0.3976 -0.8319
   12MOL   H252 6434   7.030   7.200   0.552 -1.1769  1.1358 -2.7057
   12MOL   H253 6435   7.279   7.216   0.580 -0.5616 -0.8376  1.5212
   12MOL   O254 6436   6.136   7.276   0.757  0.2899  0.3403 -0.1263
   12MOL   C255 6437   6.167   7.179   0.689  0.2845 -0.0781 -0.1552
   12MOL   O256 6438   6.291   7.142   0.669 -0.0642 -0.0407  0.1355
   12MOL   C257 6439   6.063   7.089   0.625  0.5792 -0.3697  0.2020
   12MOL   C258 6440   6.085   6.951   0.609 -0.0945 -0.0216 -0.6060
   12MOL   C259 6441   5.992   6.873   0.533  0.0470 -0.5237  0.4104
   12MOL   C260 6442   6.015   6.737   0.506 -0.5865  0.2640  0.0071
   12MOL   C261 6443   5.925   6.664   0.429  0.9000  0.9633  0.3963
   12MOL   C262 6444   5.816   6.732   0.359 -0.1360  0.2809  0.1338
   12MOL   C263 6445   5.726   6.670   0.256  0.7295  0.4195 -0.4719
   12MOL   O264 6446   5.762   6.539   0.237  0.0736 -0.0545  0.3867
   12MOL   C265 6447   5.715   6.471   0.122  0.6169 -0.6736  0.1672
   12MOL   C266 6448   5.597   6.375   0.158  0.4594 -0.7769  0.1280
   12MOL   O267 6449   5.636   6.734   0.198 -0.3326  0.1582 -0.0052
   12MOL   C268 6450   5.789   6.864   0.396  0.1484  0.1732 -0.1872
   12MOL   C269 6451   5.874   6.931   0.483  0.5515  0.1337  0.0876
   12MOL   C270 6452   5.844   7.063   0.515  0.1065 -0.2005  0.0766
   12MOL   C271 6453   5.936   7.144   0.589  0.0143  0.4356  0.0821
   12MOL   H272 6454   6.180   6.914   0.646 -0.6181 -0.5455  0.2012
   12MOL   H273 6455   6.106   6.692   0.544 -0.2968 -0.7572 -1.8674
   12MOL   H274 6456   5.931   6.557   0.418 -1.2560  1.0006 -1.4213
   12MOL   H275 6457   5.798   6.408   0.089  0.8148 -0.9589  1.1980
   12MOL   H276 6458   5.693   6.539   0.040 -0.3488 -0.2001  0.8110
   12MOL   H277 6459   5.574   6.315   0.069  0.6282 -1.1434  0.3309
   12MOL   H278 6460   5.635   6.311   0.238  0.4194 -0.6253  0.2670
   12MOL   H279 6461   5.704   6.914   0.352  1.8527  2.3170 -1.1237
   12MOL   H280 6462   5.744   7.096   0.489 -0.1447 -0.5464  0.5742
   12MOL   H281 6463   5.908   7.242   0.627 -2.4652 -0.9131  1.8830
   12MOL   O282 6464   5.414   6.508   0.014  0.9355 -0.3291 -0.1933
   12MOL   C283 6465   5.400   6.499   0.132  0.1423 -0.4647 -0.3362
   12MOL   O284 6466   5.483   6.432   0.216  0.0426 -0.2114 -0.6773
   12MOL   C285 6467   5.282   6.552   0.213 -0.0471 -0.3379  0.6190
   12MOL   C286 6468   5.258   6.511   0.348  0.5095  0.2362  0.3817
   12MOL   C287 6469   5.141   6.536   0.415 -0.2802 -0.3291  0.2755
   12MOL   C288 6470   5.125   6.495   0.546  0.1516  0.6143 -0.1860
   12MOL   C289 6471   5.004   6.517   0.610  0.0833  0.6650 -0.3455
   12MOL   C290 6472   4.896   6.581   0.548  0.5833 -0.3522  0.8091
   12MOL   C291 6473   4.768   6.602   0.619 -0.2510  0.6553 -0.5843
   12MOL   O292 6474   4.676   6.669   0.550  0.1587 -1.0454  0.1893
   12MOL   C293 6475   4.551   6.693   0.613 -0.2096  0.2543  0.3222
   12MOL   C294 6476   4.447   6.590   0.567  0.4651  0.4100  0.0082
   12MOL   O295 6477   4.756   6.560   0.740 -0.3175  0.3165  0.3392
   12MOL   C296 6478   4.913   6.627   0.411  0.5450  0.5635 -0.4824
   12MOL   C297 6479   5.040   6.610   0.349 -0.4578 -0.3496 -0.3379
   12MOL   C298 6480   5.064   6.667   0.225  0.1485  0.8258 -0.1235
   12MOL   C299 6481   5.182   6.639   0.156  0.3796  0.2956  0.1691
   12MOL   H300 6482   5.330   6.445   0.394  0.2906 -0.6088 -0.4945
   12MOL   H301 6483   5.196   6.434   0.601  0.2263  0.1783 -0.7568
   12MOL   H302 6484   4.981   6.470   0.705 -3.2318  1.0799 -0.8696
   12MOL   H303 6485   4.505   6.787   0.580 -1.0448  0.1461  1.1571
   12MOL   H304 6486   4.558   6.707   0.721 -0.5582  0.2814  0.3415
   12MOL   H305 6487   4.414   6.602   0.464 -1.1439 -2.2619  0.1734
   12MOL   H306 6488   4.479   6.487   0.581 -0.7747  0.2249  1.6379
   12MOL   H307 6489   4.844   6.685   0.352 -1.1454 -1.1882 -0.2862
   12MOL   H308 6490   4.986   6.729   0.182  0.7810  0.7129 -1.4588
   12MOL   H309 6491   5.200   6.677   0.057 -0.1067  2.7988  0.9996
   12MOL   O310 6492   4.248   6.777   0.542 -0.1604 -0.5530 -0.0787
   12MOL   C311 6493   4.241   6.693   0.632 -0.7646 -0.1735 -0.4618
   12MOL   O312 6494   4.338   6.598   0.657 -0.0458 -0.4479  0.1041
   12MOL   C313 6495   4.132   6.692   0.729  0.1608 -0.9317 -0.0862
   12MOL   C314 6496   4.115   6.585   0.821 -0.1811 -0.2547 -0.4931
   12MOL   C315 6497   3.996   6.587   0.902 -0.1552 -0.9124  0.5356
   12MOL   C316 6498   3.974   6.484   0.996  0.1765 -0.8698  0.3609
   12MOL   C317 6499   3.865   6.489   1.084  1.0380 -0.1196  0.5127
   12MOL   C318 6500   3.775   6.595   1.084  0.2252 -0.3630 -0.0865
   12MOL   C319 6501   3.654   6.596   1.167 -0.1654  0.5582 -0.2206
   12MOL   O320 6502   3.578   6.710   1.162 -0.0816  0.2607 -0.4299
   12MOL   C321 6503   3.445   6.714   1.221  0.4675  0.5593 -0.4918
   12MOL   C322 6504   3.336   6.661   1.128 -0.1991  0.3712 -0.0730
   12MOL   O323 6505   3.612   6.493   1.221  0.5432 -0.0029 -0.5762
   12MOL   C324 6506   3.793   6.702   0.989 -0.1836 -0.2914 -0.2773
   12MOL   C325 6507   3.904   6.697   0.900  0.1346  0.1520 -0.9802
   12MOL   C326 6508   3.927   6.804   0.813 -0.4520 -0.0916 -0.8521
   12MOL   C327 6509   4.035   6.799   0.727  0.1181 -0.1201  0.1591
   12MOL   H328 6510   4.187   6.508   0.845 -0.2880 -0.4120 -0.6709
   12MOL   H329 6511   4.040   6.401   1.018  0.2746 -0.9379 -0.1796
   12MOL   H330 6512   3.853   6.407   1.153  2.7516 -0.2619  0.6756
   12MOL   H331 6513   3.423   6.820   1.239 -0.8900  0.4772 -1.5912
   12MOL   H332 6514   3.436   6.654   1.312 -0.4495  3.1063  1.1857
   12MOL   H333 6515   3.246   6.722   1.135 -0.9265 -0.9034  2.1748
   12MOL   H334 6516   3.371   6.665   1.025  1.1654  0.9688  0.3907
   12MOL   H335 6517   3.739   6.796   0.986  2.0367  1.1458  2.1782
   12MOL   H336 6518   3.869   6.895   0.820 -0.3945  0.0703 -2.4949
   12MOL   H337 6519   4.047   6.885   0.662 -2.0227 -0.3399 -0.5790
   12MOL   O338 6520   3.112   6.576   1.262  0.0025  0.0214  0.1908
   12MOL   C339 6521   3.195   6.494   1.230  0.4094 -0.8700  0.1203
   12MOL   O340 6522   3.312   6.529   1.168  0.2911 -0.3364  0.7186
   12MOL   C341 6523   3.181   6.347   1.263  0.3602 -0.0788  0.4604
   12MOL   C342 6524   3.059   6.297   1.322 -0.5373 -1.0856 -0.2832
   12MOL   C343 6525   3.051   6.173   1.388  0.0367  0.0454  0.7877
   12MOL   C344 6526   2.931   6.129   1.453 -0.1636 -0.3742 -0.1942
   12MOL   C345 6527   2.934   6.002   1.512  0.1830  0.0701  0.5172
   12MOL   C346 6528   3.050   5.922   1.514 -0.0848  0.8518  0.3209
   12MOL   C347 6529   3.049   5.788   1.578  0.4561 -0.6765  0.6533
   12MOL   O348 6530   2.941   5.779   1.659  0.1724  0.9097 -0.7126
   12MOL   C349 6531   2.920   5.670   1.754 -0.4113 -0.7010  0.1047
   12MOL   C350 6532   2.789   5.708   1.831  0.3738  0.5741  0.2535
   12MOL   O351 6533   3.137   5.704   1.580 -0.9033  0.0671  0.8943
   12MOL   C352 6534   3.165   5.968   1.450 -0.4575  0.8426 -0.2142
   12MOL   C353 6535   3.168   6.096   1.387  0.1102 -0.1552 -0.1683
   12MOL   C354 6536   3.287   6.135   1.327  0.9900 -0.0123 -0.2561
   12MOL   C355 6537   3.292   6.261   1.260  0.0350 -0.3716  0.3914
   12MOL   H356 6538   2.982   6.372   1.319  3.2077  2.9394 -0.2416
   12MOL   H357 6539   2.839   6.184   1.443  0.1427  0.6515  2.2008
   12MOL   H358 6540   2.841   5.965   1.552  1.6192 -1.2290  2.7312
   12MOL   H359 6541   2.998   5.660   1.829 -0.2167 -0.5684 -0.0795
   12MOL   H360 6542   2.910   5.570   1.711 -1.2645 -0.9108  0.7637
   12MOL   H361 6543   2.714   5.704   1.752  0.5548 -1.2488  0.1426
   12MOL   H362 6544   2.766   5.628   1.902 -0.4547 -0.7788 -1.4910
   12MOL   H363 6545   3.251   5.903   1.445 -1.7775 -1.0720  1.1388
   12MOL   H364 6546   3.378   6.079   1.339  0.3786 -1.1232 -0.7786
   12MOL   H365 6547   3.386   6.297   1.222  0.3084  0.4677  1.8457
   12MOL   O366 6548   2.687   5.953   1.755 -0.2077  0.3519  0.6001
   12MOL   C367 6549   2.757   5.949   1.861 -0.3373  0.1061  0.2638
   12MOL   O368 6550   2.811   5.831   1.905 -0.1316 -0.2881  1.2123
   12MOL   C369 6551   2.803   6.068   1.938 -0.0701 -0.4469  0.5220
   12MOL   C370 6552   2.844   6.053   2.076  0.0742  0.6012 -0.0657
   12MOL   C371 6553   2.873   6.169   2.147 -0.6649  0.3413  0.2615
   12MOL   C372 6554   2.907   6.157   2.284  0.0796 -0.3065  0.4276
   12MOL   C373 6555   2.934   6.275   2.360 -0.4924 -0.5167  0.3227
   12MOL   C374 6556   2.918   6.407   2.297  0.2822  0.4927 -0.3011
   12MOL   C375 6557   2.961   6.528   2.377 -0.5937  0.1076  0.1213
   12MOL   O376 6558   2.971   6.640   2.293 -1.0491 -0.0749  0.2200
   12MOL   C377 6559   3.037   6.753   2.345  0.7854  0.6309  0.5302
   12MOL   C378 6560   2.948   6.870   2.353 -0.6408 -0.6252  0.0055
   12MOL   O379 6561   2.976   6.533   2.496 -0.5153  0.5426 -0.1545
   12MOL   C380 6562   2.877   6.408   2.164 -0.0289 -0.1960  0.0028
   12MOL   C381 6563   2.865   6.294   2.088 -0.2778 -0.3805  0.0316
   12MOL   C382 6564   2.830   6.307   1.953 -0.0859 -0.0458  0.1160
   12MOL   C383 6565   2.790   6.194   1.880  0.3516 -0.1646 -0.6207
   12MOL   H384 6566   2.834   5.958   2.128 -0.6245  0.5685 -0.2475
   12MOL   H385 6567   2.928   6.059   2.323  1.0022 -0.7103 -1.0862
   12MOL   H386 6568   2.967   6.264   2.462 -1.4033 -0.8563  0.5874
   12MOL   H387 6569   3.112   6.773   2.268  0.5671  0.4249  0.2639
   12MOL   H388 6570   3.091   6.731   2.437  1.5038 -1.2346 -0.3302
   12MOL   H389 6571   2.913   6.883   2.251  0.5218 -2.0816 -0.6024
   12MOL   H390 6572   2.858   6.862   2.414 -1.8200 -0.2968 -1.6620
   12MOL   H391 6573   2.878   6.497   2.104  0.6924 -1.1310 -1.4108
   12MOL   H392 6574   2.810   6.402   1.906  2.9557 -0.0372 -1.2612
   12MOL   H393 6575   2.763   6.209   1.777  0.5609  0.3223 -0.6045
   12MOL   O394 6576   3.050   7.084   2.206 -0.0291  0.1449  0.2393
   12MOL   C395 6577   3.061   7.088   2.328 -0.1325  0.4134  0.3971
   12MOL   O396 6578   3.025   6.982   2.404  0.1241  0.9706  0.4297
   12MOL   C397 6579   3.125   7.204   2.403 -0.0763  0.1996  0.2064
   12MOL   C398 6580   3.141   7.326   2.342  0.4368  0.0487  0.5085
   12MOL   C399 6581   3.181   7.439   2.417  0.2263  0.4545 -0.1334
   12MOL   C400 6582   3.190   7.568   2.357  0.1701  0.1526  0.0305
   12MOL   C401 6583   3.237   7.678   2.435  0.8205 -0.5749  0.1139
   12MOL   C402 6584   3.278   7.655   2.568 -0.2130  0.0240  0.1935
   12MOL   C403 6585   3.319   7.773   2.652 -0.0076 -0.0206  0.2869
   12MOL   O404 6586   3.326   7.755   2.783  0.1477  0.2128  0.4200
   12MOL   C405 6587   3.345   7.853   2.877 -0.3252  0.5567 -0.4995
   12MOL   C406 6588   3.243   7.834   2.983  0.4714 -0.7149 -0.1343
   12MOL   O407 6589   3.355   7.881   2.604 -0.3597  0.2438  0.4009
   12MOL   C408 6590   3.282   7.526   2.619  0.4715  0.1463 -0.6677
   12MOL   C409 6591   3.235   7.419   2.544 -0.5655  0.3553 -0.8057
   12MOL   C410 6592   3.230   7.291   2.598 -0.5841  0.6193 -0.3075
   12MOL   C411 6593   3.175   7.182   2.531 -0.4240 -0.4183 -0.3190
   12MOL   H412 6594   3.099   7.346   2.244  0.0012 -0.4107  0.6009
   12MOL   H413 6595   3.181   7.575   2.249  2.3191 -0.6513 -0.2193
   12MOL   H414 6596   3.236   7.779   2.396  3.2507  0.3020  2.1612
   12MOL   H415 6597   3.355   7.954   2.836 -0.2806  1.3647  1.4401
   12MOL   H416 6598   3.446   7.835   2.914 -0.4402 -0.7177 -0.7862
   12MOL   H417 6599   3.143   7.831   2.940  1.2731 -2.1428 -1.9124
   12MOL   H418 6600   3.258   7.734   3.022  2.3699 -0.1777  0.5973
   12MOL   H419 6601   3.307   7.514   2.723  0.9215  2.8108 -0.4263
   12MOL   H420 6602   3.257   7.278   2.702 -0.5449  0.5163 -0.3305
   12MOL   H421 6603   3.177   7.092   2.591  1.0227  0.1399  0.4983
   12MOL   O422 6604   3.388   7.805   3.206 -0.0295  0.2126  0.0750
   12MOL   C423 6605   3.320   7.907   3.200  0.4586  0.1067 -0.8126
   12MOL   O424 6606   3.248   7.935   3.089 -0.2518 -0.5588 -0.5823
   12MOL   C425 6607   3.316   8.010   3.301  0.3321  0.1065  0.4102
   12MOL   C426 6608   3.215   8.109   3.308  0.4486 -0.0279 -0.0273
   12MOL   C427 6609   3.213   8.207   3.412  0.2384  0.1464  0.2706
   12MOL   C428 6610   3.116   0.059   3.430 -0.2692 -0.3690 -0.3561
   12MOL   C429 6611   3.115   0.150   3.537  0.3346 -0.0083 -0.0164
   12MOL   C430 6612   3.218   0.149   3.633  0.6277 -0.6185  0.1712
   12MOL   C431 6613   3.228   0.256   3.737  0.4317 -0.2733  0.5078
   12MOL   O432 6614   3.151   0.357   3.701  0.3124 -0.0363 -0.3115
   12MOL   C433 6615   3.127   0.469   3.788 -0.1630 -0.4317 -0.1352
   12MOL   C434 6616   3.004   0.534   3.718  0.6665 -0.8880 -0.8136
   12MOL   O435 6617   3.300   0.260   3.832  0.1119 -0.1118  0.2067
   12MOL   C436 6618   3.315   0.048   3.617  0.0573  0.0604 -0.3128
   12MOL   C437 6619   3.313   8.204   3.511 -0.2881 -0.0663 -0.4585
   12MOL   C438 6620   3.405   8.098   3.514  0.5708  0.3453 -0.0520
   12MOL   C439 6621   3.406   7.999   3.410  0.1582  0.1868 -0.2049
   12MOL   H440 6622   3.137   8.106   3.234 -0.9976 -0.8148  1.5043
   12MOL   H441 6623   3.034   0.059   3.359 -0.2224 -1.2872 -0.4150
   12MOL   H442 6624   3.033   0.220   3.546  1.6591  1.6369 -0.5718
   12MOL   H443 6625   3.214   0.534   3.789 -0.1162 -0.5009  0.3142
   12MOL   H444 6626   3.115   0.427   3.888  0.5798 -1.1347 -0.3375
   12MOL   H445 6627   3.042   0.592   3.634 -0.1404  2.3918  1.0002
   12MOL   H446 6628   2.946   0.446   3.691  1.2021 -0.6467 -2.7836
   12MOL   H447 6629   3.405   0.043   3.678  0.1001  2.2216 -0.1889
   12MOL   H448 6630   3.482   8.093   3.590  1.5803  3.7571 -0.7497
   12MOL   H449 6631   3.481   7.922   3.411  0.9899  0.9394 -2.1254
   12MOL   O450 6632   3.077   0.756   3.855 -0.4736  0.6414  1.0714
   12MOL   C451 6633   2.962   0.717   3.862  0.7027 -0.7552  0.0812
   12MOL   O452 6634   2.914   0.614   3.788  0.1541 -0.2024  0.8475
   12MOL   C453 6635   2.863   0.788   3.949  0.0957 -0.6375  0.2697
   12MOL   C454 6636   2.723   0.776   3.924  0.3523 -0.0490 -0.5775
   12MOL   C455 6637   2.632   0.834   4.015 -0.1294 -0.3576 -0.1345
   12MOL   C456 6638   2.491   0.815   3.992  0.2816  0.2317  0.4678
   12MOL   C457 6639   2.404   0.875   4.083  0.6462  0.1832 -0.4861
   12MOL   C458 6640   2.449   0.947   4.197 -0.2423  0.2994 -0.6877
   12MOL   C459 6641   2.344   1.013   4.288  0.3529 -0.1720 -0.0344
   12MOL   O460 6642   2.224   1.025   4.225 -0.0606  0.3662  0.4360
   12MOL   C461 6643   2.130   1.124   4.265  0.4115  0.7662  0.3325
   12MOL   C462 6644   2.015   1.080   4.357 -0.5640  0.8870 -0.2538
   12MOL   O463 6645   2.366   1.066   4.396  0.2295 -0.1410  0.3048
   12MOL   C464 6646   2.589   0.968   4.211 -0.2280  0.2438 -0.0313
   12MOL   C465 6647   2.682   0.915   4.121 -0.2119  0.1084 -0.4640
   12MOL   C466 6648   2.819   0.940   4.134 -0.1290 -0.0018 -1.2453
   12MOL   C467 6649   2.908   0.870   4.054 -1.0447  0.0284 -0.0070
   12MOL   H468 6650   2.679   0.714   3.848 -1.2909  1.0911 -0.5703
   12MOL   H469 6651   2.451   0.776   3.899  0.6207 -0.1039  0.4605
   12MOL   H470 6652   2.299   0.859   4.067  0.8548 -0.6586 -1.0542
   12MOL   H471 6653   2.078   1.131   4.169 -0.9721  1.6862  1.1269
   12MOL   H472 6654   2.190   1.213   4.287  0.4537  0.8071  0.0555
   12MOL   H473 6655   1.920   1.115   4.316 -1.0463 -1.6281 -1.4562
   12MOL   H474 6656   2.005   0.971   4.355  2.6318  0.5414 -0.8898
   12MOL   H475 6657   2.631   1.026   4.292  0.1401  0.2564 -0.2311
   12MOL   H476 6658   2.856   1.001   4.214 -2.1503 -0.7061  0.2858
   12MOL   H477 6659   3.016   0.880   4.060 -1.3661  1.9466  3.6033
   12MOL   O478 6660   1.830   1.112   4.568  0.5350 -0.2109 -0.0817
   12MOL   C479 6661   1.952   1.131   4.577  0.0348 -0.1561 -0.7500
   12MOL   O480 6662   2.046   1.110   4.489  0.0382 -0.2572  0.4524
   12MOL   C481 6663   2.006   1.186   4.703  0.3334 -0.3284 -0.5103
   12MOL   C482 6664   1.922   1.193   4.814 -1.0779  0.5290  0.4753
   12MOL   C483 6665   1.963   1.248   4.937 -0.1678 -0.1067 -0.0273
   12MOL   C484 6666   1.876   1.246   5.047 -0.3743 -0.3287  0.6575
   12MOL   C485 6667   1.921   1.289   5.176 -0.3732  0.1517 -0.2558
   12MOL   C486 6668   2.043   1.350   5.189  0.0749 -0.9003 -0.7442
   12MOL   C487 6669   2.083   1.413   5.324  0.4063 -0.0951  0.3352
   12MOL   O488 6670   2.187   1.488   5.316 -0.0054 -0.1632 -0.2809
   12MOL   C489 6671   2.240   1.541   5.436 -0.3090  0.0777 -0.8052
   12MOL   C490 6672   2.167   1.670   5.481 -0.8004 -0.2209 -0.1846
   12MOL   O491 6673   2.014   1.401   5.421  0.4710  0.4807 -0.2693
   12MOL   C492 6674   2.130   1.355   5.076  0.6345  0.0684  0.3732
   12MOL   C493 6675   2.092   1.298   4.951 -1.0237 -0.1042  0.8303
   12MOL   C494 6676   2.184   1.281   4.846  0.1452  0.4353  0.6928
   12MOL   C495 6677   2.135   1.233   4.717 -0.9662  0.7288 -0.0265
   12MOL   H496 6678   1.819   1.162   4.805 -0.4997 -1.6296  1.1764
   12MOL   H497 6679   1.773   1.214   5.038 -0.5892  0.0013  1.8107
   12MOL   H498 6680   1.856   1.287   5.262  0.0487 -0.3535  0.0501
   12MOL   H499 6681   2.347   1.561   5.422 -0.4196  1.2798 -0.0363
   12MOL   H500 6682   2.235   1.461   5.510 -0.1392  1.9099  1.2239
   12MOL   H501 6683   2.135   1.729   5.395 -0.9991  1.6974  1.1834
   12MOL   H502 6684   2.071   1.640   5.523  0.5661 -0.5617  2.8199
   12MOL   H503 6685   2.232   1.392   5.083  0.4717  0.2564  1.9087
   12MOL   H504 6686   2.284   1.320   4.856  0.5587 -0.9179  1.9806
   12MOL   H505 6687   2.209   1.218   4.640  0.1878 -0.3459  1.2753
   12MOL   O506 6688   2.329   1.895   5.406 -0.0690  0.3136 -0.3157
   12MOL   C507 6689   2.313   1.858   5.526 -0.0536 -0.6077 -1.3352
   12MOL   O508 6690   2.237   1.753   5.571  0.1962 -0.2526  0.7819
   12MOL   C509 6691   2.375   1.928   5.639  0.0949  0.1740 -0.1494
   12MOL   C510 6692   2.419   2.055   5.615  0.2068  0.3275  0.1569
   12MOL   C511 6693   2.495   2.125   5.712 -0.5171  0.2081 -0.7152
   12MOL   C512 6694   2.529   2.261   5.694 -0.2045 -0.1400 -0.1845
   12MOL   C513 6695   2.601   2.326   5.800  0.1576 -0.5915 -0.5433
   12MOL   C514 6696   2.622   2.258   5.925 -0.0949  0.1278  0.0302
   12MOL   C515 6697   2.686   2.329   6.039  0.4208 -0.4539  0.2593
   12MOL   O516 6698   2.793   2.256   6.084 -0.2167 -1.4419  0.8269
   12MOL   C517 6699   2.868   2.290   6.200 -1.1906  0.4888  0.7590
   12MOL   C518 6700   2.806   2.276   6.336  0.2980  0.6914 -0.4351
   12MOL   O519 6701   2.656   2.445   6.073 -0.0120 -0.1240  0.5525
   12MOL   C520 6702   2.585   2.123   5.943 -1.1133 -0.1236  0.2829
   12MOL   C521 6703   2.522   2.057   5.838 -0.0751 -0.8988  0.3290
   12MOL   C522 6704   2.474   1.924   5.860  0.6497 -0.2436  0.3417
   12MOL   C523 6705   2.387   1.868   5.764  0.1778  0.4531  0.1025
   12MOL   H524 6706   2.379   2.115   5.534 -0.0752 -2.3736 -1.7415
   12MOL   H525 6707   2.518   2.315   5.601 -2.1274  3.0424  1.7774
   12MOL   H526 6708   2.637   2.427   5.789 -1.5466  0.0460 -0.4147
   12MOL   H527 6709   2.893   2.396   6.195  3.9975 -0.4876  2.8028
   12MOL   H528 6710   2.964   2.239   6.193 -1.7513 -0.5739  0.8146
   12MOL   H529 6711   2.873   2.320   6.410 -0.1370 -1.9640  1.5904
   12MOL   H530 6712   2.714   2.335   6.340 -0.7448 -0.9301 -0.1689
   12MOL   H531 6713   2.599   2.089   6.045  3.1677  1.3299  0.2974
   12MOL   H532 6714   2.499   1.875   5.953  0.8548  1.6880  1.3197
   12MOL   H533 6715   2.351   1.767   5.774 -1.3073  0.8849 -0.8043
   12MOL   O534 6716   3.018   2.115   6.422 -0.5337  0.1867  0.0590
   12MOL   C535 6717   2.896   2.080   6.416  0.4782  0.1533 -0.1949
   12MOL   O536 6718   2.794   2.146   6.379 -0.2383 -0.0767  0.1698
   12MOL   C537 6719   2.852   1.937   6.443 -0.0319 -0.7884 -0.0181
   12MOL   C538 6720   2.954   1.844   6.478  0.2906  0.0807 -0.1565
   12MOL   C539 6721   2.919   1.710   6.507  0.0858 -0.9636  0.1457
   12MOL   C540 6722   3.021   1.623   6.562  0.4464 -0.4007  0.6920
   12MOL   C541 6723   2.982   1.494   6.592  0.0630  0.5774 -0.3170
   12MOL   C542 6724   2.859   1.440   6.564  0.1911 -0.7700 -0.1655
   12MOL   C543 6725   2.815   1.298   6.602  0.1670 -0.1969  0.2969
   12MOL   O544 6726   2.884   1.251   6.704  0.4020  0.2155 -0.1719
   12MOL   C545 6727   2.884   1.108   6.730 -0.3249 -0.6835  0.0544
   12MOL   C546 6728   2.932   1.080   6.872 -0.1275  0.0674  0.5629
   12MOL   O547 6729   2.731   1.228   6.538  0.0902  0.6401  0.1081
   12MOL   C548 6730   2.757   1.524   6.507 -0.5508 -0.2735  0.4882
   12MOL   C549 6731   2.784   1.665   6.491 -0.0486 -0.1861 -0.3805
   12MOL   C550 6732   2.683   1.756   6.452  0.3510 -0.0204  0.0030
   12MOL   C551 6733   2.718   1.892   6.430 -0.7848  0.7452  0.4258
   12MOL   H552 6734   3.055   1.881   6.488  0.0220  0.3612  1.6075
   12MOL   H553 6735   3.116   1.671   6.577 -0.9213  2.4710  0.4845
   12MOL   H554 6736   3.053   1.438   6.651 -0.9389  1.2497  1.5739
   12MOL   H555 6737   2.948   1.057   6.658 -0.4152 -1.0268  0.2161
   12MOL   H556 6738   2.786   1.062   6.721  0.3802 -1.8475 -1.8485
   12MOL   H557 6739   2.854   1.122   6.936 -0.5213 -0.4321  0.4187
   12MOL   H558 6740   3.025   1.132   6.891 -0.1743  1.1733 -2.0998
   12MOL   H559 6741   2.658   1.490   6.480  0.3796 -1.2766 -1.7737
   12MOL   H560 6742   2.582   1.720   6.440 -1.0358  3.1772  1.3388
   12MOL   H561 6743   2.641   1.966   6.411  0.9986  2.1477 -1.6341
   12MOL   H562 6744   2.938   0.972   6.885 -2.7039 -0.7300 -3.9586
   13MOL     O1 6745   1.233   7.901   5.664 -0.3716 -0.4263 -0.5283
   13MOL     C2 6746   1.278   8.016   5.648  0.6428 -0.0916  0.3675
   13MOL     O3 6747   1.391   8.050   5.578 -0.1581 -0.1747  0.5268
   13MOL     C4 6748   1.217   8.140   5.702 -0.1143 -0.0932  0.2701
   13MOL     C5 6749   1.237   0.013   5.631  0.9223 -0.2703 -0.0089
   13MOL     C6 6750   1.169   0.132   5.674 -0.9619  0.5410  0.1586
   13MOL     C7 6751   1.159   0.240   5.593  0.4672 -1.1026  1.3015
   13MOL     C8 6752   1.103   0.354   5.644 -0.2973  0.1064  0.5262
   13MOL     C9 6753   1.037   0.357   5.770 -0.7421 -0.1071 -0.2538
   13MOL    C10 6754   0.997   0.486   5.825 -0.4528 -0.5301 -0.5291
   13MOL    O11 6755   0.970   0.479   5.964  0.2853 -0.4516  0.8191
   13MOL    C12 6756   0.953   0.604   6.037  0.7616 -0.2207 -0.0777
   13MOL    C13 6757   0.831   0.685   5.996  0.3550  0.3871 -0.3685
   13MOL    O14 6758   1.008   0.595   5.768  0.1599 -0.3929 -0.0215
   13MOL    C15 6759   1.031   0.245   5.848  0.2298  0.6115 -0.6800
   13MOL    C16 6760   1.094   0.131   5.796 -0.0641  0.3293 -0.3011
   13MOL    C17 6761   1.088   0.006   5.866  0.0130 -0.0814  0.3561
   13MOL    C18 6762   1.149   8.136   5.822  0.6662 -0.7595  0.2812
   13MOL    H19 6763   1.291   0.027   5.538 -0.6112  1.9037 -0.6081
   13MOL    H20 6764   1.219   0.235   5.503  1.9603  1.0949  2.1252
   13MOL    H21 6765   1.106   0.444   5.584 -1.1759 -0.7056 -0.7585
   13MOL    H22 6766   0.932   0.581   6.141  0.7680 -0.0220 -0.0323
   13MOL    H23 6767   1.042   0.667   6.039  1.6944 -1.5435 -0.0144
   13MOL    H24 6768   0.799   0.766   6.061 -0.5435 -1.3377  1.3768
   13MOL    H25 6769   0.845   0.732   5.898  2.5274  0.4432 -0.0572
   13MOL    H26 6770   0.973   0.238   5.939  0.5071 -0.6440 -0.5987
   13MOL    H27 6771   1.039   0.011   5.962  0.7731  0.0025  0.7515
   13MOL    H28 6772   1.127   8.045   5.875 -1.6594 -1.2714 -1.4937
   13MOL    H29 6773   1.430   7.971   5.543  1.5088  0.3420  1.1552
   13MOL    O30 6774   0.718   0.552   6.206  0.5639 -0.0187  0.3947
   13MOL    C31 6775   0.682   0.531   6.093  0.3560  0.3762 -0.0653
   13MOL    O32 6776   0.714   0.605   5.989  1.1818 -0.0151 -0.4161
   13MOL    C33 6777   0.596   0.412   6.053  0.7132  0.1287  0.5999
   13MOL    C34 6778   0.604   0.371   5.918  0.3326  0.1716 -0.3054
   13MOL    C35 6779   0.527   0.255   5.885  0.3223 -0.1951 -0.4799
   13MOL    C36 6780   0.527   0.203   5.755 -0.2954 -0.8713 -0.6745
   13MOL    C37 6781   0.442   0.099   5.722  0.4041  0.1229 -0.0676
   13MOL    C38 6782   0.354   0.044   5.815  0.3777  0.0773 -0.0369
   13MOL    C39 6783   0.248   8.196   5.774 -0.2327 -0.2569 -0.3646
   13MOL    O40 6784   0.219   8.206   5.641  0.5924  0.2899 -0.0922
   13MOL    C41 6785   0.125   8.121   5.583 -0.0868  1.1024 -0.2496
   13MOL    C42 6786   8.231   8.187   5.586 -0.5210 -0.1061  0.1627
   13MOL    O43 6787   0.178   8.128   5.846  0.0340  0.5347 -0.0645
   13MOL    C44 6788   0.367   0.081   5.952 -0.7800  0.3382  0.0230
   13MOL    C45 6789   0.449   0.189   5.991 -0.2996  0.2895  0.2027
   13MOL    C46 6790   0.453   0.234   6.129 -0.0543 -0.4243  0.5399
   13MOL    C47 6791   0.524   0.348   6.154  0.2403  0.5583 -0.5818
   13MOL    H48 6792   0.672   0.418   5.850  0.1760 -1.5545 -1.6884
   13MOL    H49 6793   0.593   0.252   5.685 -0.0284 -1.7547 -1.0585
   13MOL    H50 6794   0.435   0.067   5.619  0.3034  0.7420 -0.2525
   13MOL    H51 6795   0.132   8.018   5.618  0.8807  1.0534 -0.5726
   13MOL    H52 6796   0.146   8.119   5.476 -0.4032 -0.8322 -0.2967
   13MOL    H53 6797   8.248   0.044   5.606  0.3907 -0.1263 -0.4803
   13MOL    H54 6798   8.190   8.185   5.485  3.1380  0.5189 -1.4221
   13MOL    H55 6799   0.308   0.034   6.030  1.8094 -0.9031  1.3162
   13MOL    H56 6800   0.398   0.182   6.206 -0.6029  2.3693  2.0754
   13MOL    H57 6801   0.523   0.382   6.256 -1.2880 -1.2236  0.0282
   13MOL    O58 6802   8.163   7.921   5.597 -0.7097 -0.5634  0.5815
   13MOL    C59 6803   8.113   7.995   5.679  0.0666 -0.1934 -0.4635
   13MOL    O60 6804   8.139   8.127   5.682 -0.7020  0.3891 -0.0885
   13MOL    C61 6805   8.028   7.954   5.788 -0.1709  0.0466  0.4270
   13MOL    C62 6806   8.005   7.815   5.800 -0.6112 -0.0718 -0.1227
   13MOL    C63 6807   7.918   7.771   5.904 -0.3623  0.4682  0.6984
   13MOL    C64 6808   7.900   7.632   5.919  0.2733  0.6948 -0.0318
   13MOL    C65 6809   7.818   7.588   6.025 -0.7677 -0.1237  0.1421
   13MOL    C66 6810   7.754   7.676   6.117  0.5321 -0.1562  0.0869
   13MOL    C67 6811   7.657   7.624   6.219  0.3541 -0.3023  0.4404
   13MOL    O68 6812   7.619   7.500   6.201 -0.4804  0.8405  0.2611
   13MOL    C69 6813   7.507   7.444   6.264  0.4839 -0.3545  0.3206
   13MOL    C70 6814   7.540   7.402   6.411 -0.4876  0.0479  0.1213
   13MOL    O71 6815   7.615   7.691   6.312  0.0346 -0.0056  0.2092
   13MOL    C72 6816   7.789   7.815   6.109  0.1269 -0.3321  0.0588
   13MOL    C73 6817   7.862   7.858   5.999  0.7143  0.2302 -0.1628
   13MOL    C74 6818   7.877   7.999   5.976  0.1371 -0.6032  0.5721
   13MOL    C75 6819   7.954   8.049   5.871  0.0393 -0.2592  0.3565
   13MOL    H76 6820   8.044   7.743   5.730 -0.8412 -0.2231 -0.0982
   13MOL    H77 6821   7.942   7.553   5.860  0.0303 -0.0509  0.7807
   13MOL    H78 6822   7.803   7.481   6.020 -0.2770 -0.2789  1.6704
   13MOL    H79 6823   7.462   7.364   6.206 -1.5052  1.4188 -0.6504
   13MOL    H80 6824   7.433   7.524   6.266  1.5807  0.6616  0.9982
   13MOL    H81 6825   7.617   7.463   6.457  0.4781  0.8398 -2.4466
   13MOL    H82 6826   7.455   7.400   6.479  0.3033  0.3508  1.1301
   13MOL    H83 6827   7.755   7.892   6.177  2.1653 -0.1263  0.8736
   13MOL    H84 6828   7.819   8.066   6.038  0.7851 -0.7945  1.3872
   13MOL    H85 6829   7.968   8.156   5.871 -1.6335 -0.0220  1.1719
   13MOL    O86 6830   7.796   7.270   6.354 -0.3594 -0.1670 -0.0947
   13MOL    C87 6831   7.694   7.208   6.384  0.8749 -0.7844 -0.8556
   13MOL    O88 6832   7.570   7.263   6.409 -0.0151 -0.2281  0.1457
   13MOL    C89 6833   7.696   7.065   6.417  0.4135 -0.4649 -0.5250
   13MOL    C90 6834   7.571   6.991   6.421  0.3505  0.3917  0.0087
   13MOL    C91 6835   7.567   6.851   6.458 -1.0952  0.8971  0.4006
   13MOL    C92 6836   7.445   6.787   6.472  0.3474 -0.1177 -0.1227
   13MOL    C93 6837   7.451   6.651   6.508 -0.4276 -0.0610 -0.0449
   13MOL    C94 6838   7.572   6.586   6.538 -0.1609  0.5208 -0.0343
   13MOL    C95 6839   7.577   6.451   6.588  0.1355  0.3907 -0.2193
   13MOL    O96 6840   7.459   6.391   6.606  0.6307  0.5783  0.6499
   13MOL    C97 6841   7.454   6.246   6.628  0.3899  0.5891 -0.3648
   13MOL    C98 6842   7.497   6.151   6.505  0.0596 -0.0056 -0.3843
   13MOL    O99 6843   7.682   6.389   6.599 -0.1000  0.1026  0.0800
   13MOL   C100 6844   7.698   6.655   6.521  0.4686 -0.1711  0.8814
   13MOL   C101 6845   7.694   6.790   6.483 -0.5586 -0.0691 -0.3255
   13MOL   C102 6846   7.819   6.858   6.458  0.3433  0.3959 -0.8135
   13MOL   C103 6847   7.817   6.991   6.424 -0.1222 -0.8077 -0.1810
   13MOL   H104 6848   7.483   7.045   6.387 -0.7738 -1.1529  0.4363
   13MOL   H105 6849   7.348   6.834   6.459 -0.5486 -2.1555 -0.9888
   13MOL   H106 6850   7.362   6.592   6.521  0.5223 -1.3781  0.6693
   13MOL   H107 6851   7.354   6.218   6.659  1.6249  0.5917  3.9519
   13MOL   H108 6852   7.521   6.230   6.713  0.4229  0.1254 -0.4763
   13MOL   H109 6853   7.426   6.147   6.423 -0.4872 -1.4191  0.1412
   13MOL   H110 6854   7.587   6.191   6.459 -0.5866  0.1771 -1.4815
   13MOL   H111 6855   7.795   6.611   6.540 -0.0251 -1.8953 -0.4444
   13MOL   H112 6856   7.906   6.797   6.477  1.4139  1.9569 -0.5467
   13MOL   H113 6857   7.912   7.043   6.415 -0.3771 -0.1526  0.7718
   13MOL   O114 6858   7.336   5.940   6.477  0.0335 -0.0272 -0.8107
   13MOL   C115 6859   7.431   5.921   6.549 -0.0405 -0.5401 -0.1655
   13MOL   O116 6860   7.522   6.026   6.566 -0.2071 -0.0194  0.1131
   13MOL   C117 6861   7.462   5.799   6.619  0.1217  0.6260  0.2381
   13MOL   C118 6862   7.561   5.797   6.721  0.4578 -0.4542 -0.1122
   13MOL   C119 6863   7.593   5.678   6.790  0.0594  0.3019 -0.1817
   13MOL   C120 6864   7.698   5.670   6.889  0.3635 -0.2813  0.2505
   13MOL   C121 6865   7.714   5.556   6.965  0.4110 -0.1456 -0.4580
   13MOL   C122 6866   7.637   5.440   6.938  0.1655  0.1048 -1.1284
   13MOL   C123 6867   7.661   5.321   7.026 -0.6836 -0.2265 -0.3249
   13MOL   O124 6868   7.624   5.209   6.958 -0.1079  0.1179 -0.2281
   13MOL   C125 6869   7.658   5.081   7.012  0.3574  0.1202 -0.3299
   13MOL   C126 6870   7.575   5.055   7.150 -0.2022 -0.0109 -0.0615
   13MOL   O127 6871   7.712   5.326   7.141  0.0566 -0.4309 -0.3771
   13MOL   C128 6872   7.537   5.441   6.839  0.5770  0.0600 -0.6409
   13MOL   C129 6873   7.516   5.561   6.768 -0.2452 -0.5115  1.1305
   13MOL   C130 6874   7.418   5.569   6.668  0.5659 -0.3155 -0.1975
   13MOL   C131 6875   7.396   5.680   6.582  0.1489 -0.1425  0.5904
   13MOL   H132 6876   7.604   5.893   6.745  1.0946 -1.0562  1.1929
   13MOL   H133 6877   7.758   5.754   6.919 -0.5857 -0.0237  1.4727
   13MOL   H134 6878   7.786   5.547   7.046 -0.0056 -0.9776 -0.1726
   13MOL   H135 6879   7.765   5.063   7.015  0.2249 -0.3696  1.8282
   13MOL   H136 6880   7.629   4.997   6.947 -1.7295  0.1698  0.4843
   13MOL   H137 6881   7.565   5.145   7.210 -1.6194  0.0317 -0.3652
   13MOL   H138 6882   7.476   5.012   7.137  0.2944 -1.2858  0.2499
   13MOL   H139 6883   7.482   5.353   6.807 -2.1696  1.1256  1.0306
   13MOL   H140 6884   7.360   5.478   6.661  1.3937 -0.8100 -0.7636
   13MOL   H141 6885   7.315   5.677   6.510 -0.3233 -2.5178  1.1728
   13MOL   O142 6886   7.575   4.792   7.110 -0.3364  0.0191  0.6759
   13MOL   C143 6887   7.629   4.838   7.212  0.2403  0.5846 -0.8678
   13MOL   O144 6888   7.640   4.962   7.234 -0.1725  0.7139  0.0539
   13MOL   C145 6889   7.696   4.750   7.323  0.3774  0.4168 -0.4368
   13MOL   C146 6890   7.775   4.816   7.417  0.5297 -0.6351 -0.8322
   13MOL   C147 6891   7.856   4.741   7.511 -0.2427  0.6572  0.3061
   13MOL   C148 6892   7.927   4.806   7.610 -0.3943  0.1076 -0.2007
   13MOL   C149 6893   7.988   4.733   7.708 -0.8005  0.1855 -0.5644
   13MOL   C150 6894   7.991   4.590   7.701  0.5340 -0.2743 -0.2412
   13MOL   C151 6895   8.043   4.502   7.807 -0.0595  0.0461 -0.0327
   13MOL   O152 6896   8.084   4.584   7.905  0.4684 -0.0756 -0.0539
   13MOL   C153 6897   8.157   4.529   8.012 -0.3596  0.3141 -0.7501
   13MOL   C154 6898   0.027   4.611   8.035  0.0127 -0.6420 -0.3348
   13MOL   O155 6899   8.035   4.380   7.803  0.0203  0.1805 -0.4488
   13MOL   C156 6900   7.926   4.525   7.597 -0.5949 -0.3919 -0.6356
   13MOL   C157 6901   7.853   4.601   7.506  0.5883 -0.3345  0.6240
   13MOL   C158 6902   7.769   4.536   7.412 -0.3260  1.3693 -0.2710
   13MOL   C159 6903   7.697   4.607   7.316 -0.0750 -0.8155  0.5051
   13MOL   H160 6904   7.776   4.924   7.424  0.0515 -0.6295 -0.7865
   13MOL   H161 6905   7.935   4.913   7.623  1.7869  0.3634 -3.1139
   13MOL   H162 6906   8.051   4.778   7.784  0.6882  0.6174 -2.0218
   13MOL   H163 6907   8.190   4.426   8.004  1.1423  0.7128  0.2041
   13MOL   H164 6908   8.094   4.510   8.100 -0.0605 -0.4475 -0.7071
   13MOL   H165 6909   0.110   4.579   8.099  0.5956  2.9237  0.8255
   13MOL   H166 6910   0.068   4.622   7.935  2.8622 -1.8679  0.6466
   13MOL   H167 6911   7.912   4.418   7.600 -2.3331 -0.1443  0.8864
   13MOL   H168 6912   7.754   4.430   7.401  0.4983  1.4485 -2.4699
   13MOL   H169 6913   7.643   4.552   7.239 -0.7671  0.8986 -0.2738
   13MOL   O170 6914   8.173   4.666   0.037  0.2473  0.0707 -0.0273
   13MOL   C171 6915   8.212   4.756   8.210 -0.3701 -0.0541  0.4647
   13MOL   O172 6916   0.002   4.742   8.083  0.1129  0.1926  0.2172
   13MOL   C173 6917   8.233   4.893   0.012  0.1778  0.4368  0.3513
   13MOL   C174 6918   0.014   4.905   0.151 -0.4226  0.4220  0.5452
   13MOL   C175 6919   0.014   5.035   0.210 -0.2213 -0.3784 -0.2950
   13MOL   C176 6920   0.039   5.042   0.348  0.0579  0.3935 -0.1157
   13MOL   C177 6921   0.040   5.174   0.405  0.6333  0.1815 -0.4993
   13MOL   C178 6922   0.027   5.291   0.326 -1.2898 -0.2087 -0.1357
   13MOL   C179 6923   0.022   5.431   0.386  0.8845  0.5167  0.1111
   13MOL   O180 6924   8.196   5.525   0.308  0.1376  0.4569 -0.0132
   13MOL   C181 6925   8.173   5.657   0.354 -0.6427 -0.6083  0.1560
   13MOL   C182 6926   8.095   5.733   0.241  1.1538  0.0260 -0.1652
   13MOL   O183 6927   0.071   5.456   0.494  0.1721 -0.3370 -0.0286
   13MOL   C184 6928   0.006   5.276   0.185 -0.3658  0.4517  0.3872
   13MOL   C185 6929   0.000   5.150   0.126 -0.5083  0.9672  0.7579
   13MOL   C186 6930   8.237   5.137   8.237  1.1940 -0.7010 -0.0284
   13MOL   C187 6931   8.230   5.006   8.180 -0.1559 -0.3136  0.3992
   13MOL   H188 6932   0.024   4.811   0.202  1.7016  0.4743  0.2590
   13MOL   H189 6933   0.055   4.959   0.415  1.9651  2.0073  1.4814
   13MOL   H190 6934   0.036   5.184   0.512  1.6460 -4.5992  0.0906
   13MOL   H191 6935   0.021   5.701   0.378 -0.7909  0.0204 -0.3722
   13MOL   H192 6936   8.107   5.667   0.440  0.3817 -1.6556  1.0720
   13MOL   H193 6937   8.025   5.682   0.175 -0.8126  0.7412  1.3268
   13MOL   H194 6938   8.033   5.802   0.299 -2.2522 -1.6979 -1.6390
   13MOL   H195 6939   8.230   5.362   0.124  0.3831  0.5193  0.1700
   13MOL   H196 6940   8.237   5.223   8.172  0.6689 -1.3129 -0.8595
   13MOL   H197 6941   8.211   4.997   8.074  1.5635 -1.4943  0.1734
   13MOL   O198 6942   8.244   5.623   0.039  0.2392 -0.3523 -0.5707
   13MOL   C199 6943   8.244   5.745   0.056 -0.3263  0.1614 -0.2402
   13MOL   O200 6944   8.172   5.808   0.146 -0.6324  0.4512 -0.3101
   13MOL   C201 6945   0.087   5.830   8.221  0.0692 -0.0376  0.0120
   13MOL   C202 6946   0.092   5.972   8.233  0.1468  0.4449  0.2405
   13MOL   C203 6947   0.178   6.051   8.162 -0.4315  0.2413 -0.1114
   13MOL   C204 6948   0.169   6.193   8.173 -0.6614  0.0973 -0.5327
   13MOL   C205 6949   0.242   6.274   8.091 -0.5879 -0.4755  0.8649
   13MOL   C206 6950   0.341   6.221   8.005 -0.2677  0.2939 -0.2198
   13MOL   C207 6951   0.453   6.300   7.944  0.2908 -0.0892 -0.3950
   13MOL   O208 6952   0.535   6.229   7.861 -0.1509 -0.1569 -0.3884
   13MOL   C209 6953   0.653   6.283   7.810  0.1076 -0.1550  0.2184
   13MOL   C210 6954   0.767   6.264   7.905 -0.7571 -0.2257 -0.6746
   13MOL   O211 6955   0.469   6.422   7.968  0.7969  0.4152 -0.0729
   13MOL   C212 6956   0.350   6.078   7.995  0.3123  0.4123  0.0194
   13MOL   C213 6957   0.267   5.992   8.072  0.3312  0.9575 -0.3963
   13MOL   C214 6958   0.272   5.849   8.064 -0.2556  0.2566 -0.0902
   13MOL   C215 6959   0.189   5.772   8.146 -0.0973  0.3383  0.0604
   13MOL   H216 6960   0.021   6.020   0.050  0.5957 -0.7172  1.5730
   13MOL   H217 6961   0.108   6.234   0.002 -0.6656  0.3279 -0.6589
   13MOL   H218 6962   0.233   6.382   8.099 -1.4934 -0.4132 -0.8206
   13MOL   H219 6963   0.651   6.386   7.775 -1.1746 -0.2685 -0.0612
   13MOL   H220 6964   0.672   6.212   7.729 -1.5287  0.2173 -0.5083
   13MOL   H221 6965   0.745   6.196   7.987  0.9086 -0.6006 -0.5160
   13MOL   H222 6966   0.855   6.224   7.855 -0.5033 -0.6387  0.0906
   13MOL   H223 6967   0.422   6.015   7.946  0.6844  1.7350 -1.1629
   13MOL   H224 6968   0.333   5.792   7.996 -1.1392 -0.3007 -0.4178
   13MOL   H225 6969   0.203   5.665   8.140  0.0828  0.4045 -0.7284
   13MOL   O226 6970   1.007   6.337   8.023 -0.0370  0.3700  0.3048
   13MOL   C227 6971   0.923   6.428   8.000  0.1372  1.2165 -0.5753
   13MOL   O228 6972   0.800   6.395   7.950 -0.3028  0.3043 -0.3286
   13MOL   C229 6973   0.948   6.573   8.017 -0.6931  0.4266 -0.1426
   13MOL   C230 6974   0.838   6.671   8.020 -0.6459  0.2205  0.0207
   13MOL   C231 6975   0.873   6.805   8.028  0.2915 -0.3423  0.1784
   13MOL   C232 6976   0.764   6.899   8.025  0.8872  0.4090  0.0671
   13MOL   C233 6977   0.789   7.037   8.036 -0.1484 -0.0955 -0.4672
   13MOL   C234 6978   0.925   7.085   8.043 -0.4112 -0.1858  0.1718
   13MOL   C235 6979   0.960   7.233   8.041  0.1225 -0.2459 -0.4865
   13MOL   O236 6980   0.870   7.300   7.969  0.0560 -0.1983  0.5108
   13MOL   C237 6981   0.871   7.442   7.974  0.1280  0.0668 -0.4255
   13MOL   C238 6982   0.985   7.519   7.902 -0.4184 -0.5823 -0.2251
   13MOL   O239 6983   1.056   7.287   8.099 -0.1103  0.2237 -0.3529
   13MOL   C240 6984   1.033   6.986   8.035  0.5254 -0.1702 -0.5111
   13MOL   C241 6985   1.009   6.851   8.033 -0.4891  0.0872  0.9619
   13MOL   C242 6986   1.112   6.754   8.041 -0.2411 -0.2788 -0.1138
   13MOL   C243 6987   1.080   6.614   8.036  0.3341 -0.2072 -0.0007
   13MOL   H244 6988   0.734   6.645   8.004  0.2103 -2.1768 -1.9745
   13MOL   H245 6989   0.665   6.859   8.013  1.2166 -0.8718  1.3812
   13MOL   H246 6990   0.709   7.110   8.032 -0.2230  0.0788  2.6480
   13MOL   H247 6991   0.866   7.463   8.081 -1.0851  2.0202 -0.8417
   13MOL   H248 6992   0.783   7.489   7.931  0.9539  0.6867 -1.4658
   13MOL   H249 6993   0.979   7.625   7.929  1.1395 -0.3220 -0.8421
   13MOL   H250 6994   1.082   7.489   7.942 -1.1272  0.5891  2.4524
   13MOL   H251 6995   1.132   7.023   8.057  0.4934 -0.4790  0.1907
   13MOL   H252 6996   1.213   6.791   8.034 -0.7175  1.1569  0.6084
   13MOL   H253 6997   1.163   6.544   8.042 -0.3145 -0.8183  2.7818
   13MOL   O254 6998   1.148   7.335   7.786  0.3160  0.4812  0.1214
   13MOL   C255 6999   1.075   7.405   7.713 -0.5628  0.3819  0.1896
   13MOL   O256 7000   0.982   7.489   7.762 -0.0509 -0.2344  0.0471
   13MOL   C257 7001   1.095   7.412   7.567  0.0540  0.4760 -0.6663
   13MOL   C258 7002   1.210   7.361   7.512  0.3901 -0.2751 -0.4540
   13MOL   C259 7003   1.228   7.357   7.374  0.1753 -0.2596  0.7569
   13MOL   C260 7004   1.347   7.309   7.324 -0.1496  0.4495 -0.0753
   13MOL   C261 7005   1.368   7.297   7.187  0.2118 -0.1664 -0.2437
   13MOL   C262 7006   1.272   7.342   7.095 -0.2784  0.0240  0.6289
   13MOL   C263 7007   1.295   7.327   6.950  0.2481 -0.4088  0.7006
   13MOL   O264 7008   1.428   7.325   6.912 -0.3823 -0.4645  0.2521
   13MOL   C265 7009   1.464   7.338   6.773 -0.0075  0.1050 -0.0365
   13MOL   C266 7010   1.485   7.485   6.735 -0.1797 -0.5024 -0.1198
   13MOL   O267 7011   1.195   7.318   6.873  0.2301  0.0467  0.0230
   13MOL   C268 7012   1.150   7.396   7.145  0.2039 -0.3458  0.4695
   13MOL   C269 7013   1.130   7.410   7.287  0.1910 -0.1695  0.0623
   13MOL   C270 7014   1.010   7.471   7.339  0.2972  0.4266  0.4695
   13MOL   C271 7015   0.990   7.464   7.483 -0.4779 -0.0766 -0.0690
   13MOL   H272 7016   1.287   7.340   7.584 -1.3943  2.7590  2.4879
   13MOL   H273 7017   1.421   7.270   7.392 -0.3681  0.2574  0.0526
   13MOL   H274 7018   1.452   7.236   7.158 -0.8998 -1.3932 -0.9560
   13MOL   H275 7019   1.385   7.294   6.712 -1.0622 -0.3468  1.6201
   13MOL   H276 7020   1.552   7.278   6.750  1.6323  2.1008  0.9352
   13MOL   H277 7021   1.488   7.531   6.834 -0.4226 -1.9155  0.5637
   13MOL   H278 7022   1.581   7.498   6.685  0.0589  0.2186  0.5259
   13MOL   H279 7023   1.064   7.416   7.083 -0.6586  0.0305  1.7447
   13MOL   H280 7024   0.935   7.523   7.281 -1.1743 -1.5454  0.5310
   13MOL   H281 7025   0.904   7.497   7.538  0.4760  2.6605 -0.1653
   13MOL   O282 7026   1.348   7.723   6.765  0.1833  0.3802 -0.0604
   13MOL   C283 7027   1.307   7.645   6.675  0.4029  1.0028  0.1452
   13MOL   O284 7028   1.372   7.526   6.654 -0.1886  0.1817 -0.8766
   13MOL   C285 7029   1.181   7.664   6.592 -1.5152  0.2366 -0.0364
   13MOL   C286 7030   1.137   7.558   6.513 -0.0457 -0.3864  1.0471
   13MOL   C287 7031   1.028   7.579   6.423 -0.3220 -0.2797 -0.1058
   13MOL   C288 7032   0.984   7.472   6.352 -0.4685 -0.2060 -0.0451
   13MOL   C289 7033   0.866   7.485   6.278  0.2553 -0.3383 -0.4855
   13MOL   C290 7034   0.792   7.607   6.268 -0.0754  0.9507  0.3453
   13MOL   C291 7035   0.669   7.616   6.187 -0.3718 -0.6330  0.0615
   13MOL   O292 7036   0.587   7.711   6.234  0.7533  0.5228  0.6242
   13MOL   C293 7037   0.470   7.739   6.160  0.2795 -0.0992  1.1982
   13MOL   C294 7038   0.509   7.849   6.048  0.1625  0.3811  0.5679
   13MOL   O295 7039   0.650   7.550   6.087  0.5942  0.0849 -0.5490
   13MOL   C296 7040   0.841   7.715   6.343 -0.1464 -0.2101 -0.6381
   13MOL   C297 7041   0.957   7.699   6.414 -0.5213  0.8973 -0.2845
   13MOL   C298 7042   0.997   7.804   6.499  0.2851  0.5337 -0.5772
   13MOL   C299 7043   1.112   7.785   6.583  0.0644  0.1969 -0.0455
   13MOL   H300 7044   1.174   7.458   6.528  0.1835 -0.6334 -0.9822
   13MOL   H301 7045   1.044   7.383   6.350 -3.4660 -2.2893 -2.3511
   13MOL   H302 7046   0.820   7.398   6.233 -1.7471 -0.3798  1.5645
   13MOL   H303 7047   0.390   7.777   6.223  0.8982 -0.1680  2.0331
   13MOL   H304 7048   0.429   7.654   6.105  0.3186  0.1692  0.7555
   13MOL   H305 7049   0.597   7.826   5.987  1.0515  1.6732  1.3332
   13MOL   H306 7050   0.427   7.868   5.979  0.4263 -1.0549 -0.1515
   13MOL   H307 7051   0.787   7.808   6.350  0.2304  0.1547 -2.2839
   13MOL   H308 7052   0.950   7.901   6.504 -0.8046  0.0330 -0.9155
   13MOL   H309 7053   1.154   7.863   6.645  0.0805 -0.0316  0.2305
   13MOL   O310 7054   0.745   7.993   6.020 -0.0140 -0.1182  0.3041
   13MOL   C311 7055   0.657   8.037   6.099  0.1046 -0.7529  0.5802
   13MOL   O312 7056   0.536   7.972   6.118  0.0859 -0.5485  0.4505
   13MOL   C313 7057   0.667   8.158   6.185  0.5615 -0.2441 -0.5936
   13MOL   C314 7058   0.597   8.182   6.309 -0.2455  0.2724  0.6437
   13MOL   C315 7059   0.621   0.049   6.388 -0.1682 -0.8019  0.6334
   13MOL   C316 7060   0.554   0.074   6.511  0.1495 -0.2108  0.7004
   13MOL   C317 7061   0.592   0.194   6.580 -0.3233  0.5234  0.1054
   13MOL   C318 7062   0.675   0.294   6.523  0.5556 -0.0613 -0.1203
   13MOL   C319 7063   0.709   0.414   6.594  0.0194  0.4749  0.2988
   13MOL   O320 7064   0.754   0.517   6.518  0.3532 -0.0583  0.7385
   13MOL   C321 7065   0.818   0.630   6.578  0.9967  0.3776 -0.6249
   13MOL   C322 7066   0.966   0.596   6.605 -0.3727  0.0844 -0.3613
   13MOL   O323 7067   0.701   0.412   6.716 -0.2769  0.3375 -0.1078
   13MOL   C324 7068   0.739   0.261   6.405  0.1847  0.5719 -0.9459
   13MOL   C325 7069   0.718   0.141   6.339 -0.3277  0.4057  0.3509
   13MOL   C326 7070   0.784   0.117   6.218  0.5388  0.0254 -0.0106
   13MOL   C327 7071   0.761   0.007   6.137 -1.1047 -0.4484 -0.4596
   13MOL   H328 7072   0.524   8.116   6.353  2.8216 -1.1951  3.7038
   13MOL   H329 7073   0.493   0.001   6.563  0.6838 -1.1012  0.0906
   13MOL   H330 7074   0.558   0.211   6.681  1.6592 -0.2440  0.9250
   13MOL   H331 7075   0.779   0.648   6.678  2.0743 -4.0525  0.7148
   13MOL   H332 7076   0.791   0.724   6.530 -1.3487  0.1313  0.1366
   13MOL   H333 7077   1.007   0.690   6.643 -0.6942  0.7729 -1.6575
   13MOL   H334 7078   0.980   0.525   6.686 -0.8800  0.3732 -0.0197
   13MOL   H335 7079   0.807   0.335   6.363  0.5451  0.9290  0.2489
   13MOL   H336 7080   0.852   0.194   6.184  0.7088  0.3502  1.0645
   13MOL   H337 7081   0.812   8.244   6.043 -3.2697  0.3983 -1.7613
   13MOL   O338 7082   1.012   0.344   6.515 -0.6345  0.0998  0.2634
   13MOL   C339 7083   1.048   0.439   6.447 -0.0261 -0.0202 -0.5860
   13MOL   O340 7084   1.035   0.564   6.485  0.7701 -0.0839 -0.6738
   13MOL   C341 7085   1.121   0.428   6.325 -0.5632  0.6321 -0.2074
   13MOL   C342 7086   1.197   0.543   6.276  0.3567  0.2182  0.2335
   13MOL   C343 7087   1.270   0.523   6.156  0.5899 -0.2801  0.1736
   13MOL   C344 7088   1.341   0.633   6.103  0.8177 -0.8026  0.9094
   13MOL   C345 7089   1.418   0.617   5.984  0.2636 -0.0890 -0.4619
   13MOL   C346 7090   1.413   0.492   5.919 -0.1020  0.4197 -1.0665
   13MOL   C347 7091   1.484   0.470   5.786  0.2373  0.2934 -0.1117
   13MOL   O348 7092   1.461   0.347   5.733 -1.0413  0.2353  0.5945
   13MOL   C349 7093   1.531   0.303   5.619 -0.8437  0.0666 -0.9913
   13MOL   C350 7094   1.675   0.249   5.658  0.4064 -0.0109  0.5936
   13MOL   O351 7095   1.555   0.556   5.733  0.0467  0.0954 -0.2073
   13MOL   C352 7096   1.343   0.385   5.972  0.2583 -1.2038  0.6715
   13MOL   C353 7097   1.276   0.395   6.093  0.1547 -0.0357  0.3693
   13MOL   C354 7098   1.199   0.289   6.147 -0.0158  0.1445  0.1673
   13MOL   C355 7099   1.121   0.301   6.258 -0.0300 -0.4889  0.0769
   13MOL   H356 7100   1.207   0.636   6.331 -0.1201  0.2368  0.2843
   13MOL   H357 7101   1.327   0.727   6.153 -3.5899  0.6149 -2.6545
   13MOL   H358 7102   1.453   0.711   5.944 -1.1004  0.6856  0.1239
   13MOL   H359 7103   1.524   0.379   5.541 -1.3620  1.0639  0.0125
   13MOL   H360 7104   1.475   0.214   5.589 -0.3242 -0.0049 -1.7737
   13MOL   H361 7105   1.723   0.219   5.565  1.2490 -1.4653  1.4843
   13MOL   H362 7106   1.720   0.336   5.707 -1.4086  1.0730  0.4138
   13MOL   H363 7107   1.336   0.290   5.921  0.3156 -0.5560 -0.5647
   13MOL   H364 7108   1.194   0.192   6.102 -0.7563 -0.0231  0.5962
   13MOL   H365 7109   1.066   0.214   6.292 -3.2525  1.4603 -0.0089
   13MOL   O366 7110   1.850   0.030   5.661  0.1512 -0.2565 -0.8563
   13MOL   C367 7111   1.743   0.026   5.727 -0.0325  0.7355  0.4307
   13MOL   O368 7112   1.664   0.136   5.739 -0.1390 -0.1655 -0.2120
   13MOL   C369 7113   1.690   8.149   5.792 -0.0164  0.1653  0.5648
   13MOL   C370 7114   1.572   8.150   5.864  0.1573 -0.0216 -0.1530
   13MOL   C371 7115   1.523   8.029   5.914  0.1971  0.2703 -0.0482
   13MOL   C372 7116   1.403   8.038   5.991 -0.5137  0.2321  1.2485
   13MOL   C373 7117   1.358   7.917   6.053  0.1668 -0.2993 -0.0577
   13MOL   C374 7118   1.423   7.794   6.031  0.2429  0.0240  0.1666
   13MOL   C375 7119   1.357   7.674   6.100 -0.8012  0.2694  0.0687
   13MOL   O376 7120   1.426   7.551   6.092 -0.1965 -0.4506  0.2813
   13MOL   C377 7121   1.407   7.441   6.183 -0.1286 -0.0155  0.2938
   13MOL   C378 7122   1.274   7.365   6.160 -0.1697 -0.2022  0.2133
   13MOL   O379 7123   1.259   7.682   6.168 -0.5650  0.3893  0.0718
   13MOL   C380 7124   1.541   7.789   5.955  0.1767  0.1683 -0.3450
   13MOL   C381 7125   1.583   7.906   5.891  0.4628  0.3659  0.1313
   13MOL   C382 7126   1.700   7.910   5.815 -0.6046  0.2589 -0.9525
   13MOL   C383 7127   1.752   8.028   5.760 -0.1631 -0.1420 -0.5682
   13MOL   H384 7128   1.521   8.242   5.888  1.2480  0.4105  0.5489
   13MOL   H385 7129   1.354   8.132   6.007 -1.3714 -0.1276  0.7836
   13MOL   H386 7130   1.268   7.925   6.112 -0.5182 -3.3744 -0.6051
   13MOL   H387 7131   1.396   7.485   6.282 -2.9820 -2.0585  0.9466
   13MOL   H388 7132   1.497   7.379   6.188  0.3617  0.7541  1.1082
   13MOL   H389 7133   1.244   7.330   6.258 -0.1055  0.0095  0.3107
   13MOL   H390 7134   1.196   7.433   6.126  0.0982  0.1028  0.2029
   13MOL   H391 7135   1.605   7.702   5.950 -0.0937  0.0314 -1.7590
   13MOL   H392 7136   1.746   7.812   5.805 -1.1509 -0.1137  0.0805
   13MOL   H393 7137   1.842   8.023   5.700  0.4570 -0.0316  0.3471
   13MOL   O394 7138   1.097   7.159   6.155 -0.2286 -0.3216 -0.0240
   13MOL   C395 7139   1.183   7.169   6.067 -0.0455  0.7222 -0.1448
   13MOL   O396 7140   1.286   7.258   6.065 -0.4936 -0.3016  0.1905
   13MOL   C397 7141   1.186   7.068   5.954  0.1640  0.0662 -0.2364
   13MOL   C398 7142   1.126   6.940   5.973 -0.8265 -0.8987  0.1236
   13MOL   C399 7143   1.143   6.844   5.871 -0.3807 -0.0350  0.9994
   13MOL   C400 7144   1.089   6.718   5.891 -0.4879 -0.0447 -0.3869
   13MOL   C401 7145   1.125   6.616   5.796 -0.1383 -0.0441  0.7055
   13MOL   C402 7146   1.205   6.643   5.683 -0.1177 -0.3750 -0.3552
   13MOL   C403 7147   1.249   6.533   5.591 -0.0834  0.6087  0.5911
   13MOL   O404 7148   1.334   6.587   5.495 -0.2954 -0.2376  0.3814
   13MOL   C405 7149   1.396   6.496   5.401  0.1282  0.9437 -0.5815
   13MOL   C406 7150   1.476   6.374   5.456  0.5178 -0.5736  0.4106
   13MOL   O407 7151   1.220   6.413   5.604 -0.3973  0.5806 -0.1442
   13MOL   C408 7152   1.236   6.779   5.652  0.8020 -0.7468 -0.3787
   13MOL   C409 7153   1.212   6.872   5.750  0.7804 -0.6504  0.2962
   13MOL   C410 7154   1.255   7.009   5.726  0.1213  0.0950 -0.7302
   13MOL   C411 7155   1.252   7.101   5.834  0.3076 -0.2107  0.1507
   13MOL   H412 7156   1.069   6.928   6.065 -1.5073 -2.3734 -0.4752
   13MOL   H413 7157   1.035   6.697   5.982  0.8174 -1.6533  0.0486
   13MOL   H414 7158   1.086   6.515   5.805  2.3274 -1.0280  0.5358
   13MOL   H415 7159   1.463   6.560   5.344 -0.1860  0.0962 -1.9325
   13MOL   H416 7160   1.319   6.468   5.328 -1.4469  1.8765  0.6707
   13MOL   H417 7161   1.509   6.407   5.555 -1.5628 -1.6920  1.5305
   13MOL   H418 7162   1.414   6.286   5.478  1.7161 -1.3972  0.5153
   13MOL   H419 7163   1.280   6.817   5.561 -0.7625  0.0759 -0.8198
   13MOL   H420 7164   1.304   7.033   5.633 -1.0626 -0.1423 -1.4154
   13MOL   H421 7165   1.289   7.202   5.822  0.3361 -0.3338 -0.8217
   13MOL   O422 7166   1.717   6.501   5.431 -0.2367 -0.1422 -0.3937
   13MOL   C423 7167   1.700   6.399   5.367 -0.5798  0.5941  0.4368
   13MOL   O424 7168   1.587   6.325   5.378  0.5040 -0.0786  0.9924
   13MOL   C425 7169   1.784   6.343   5.261 -0.1924 -0.0743  0.5203
   13MOL   C426 7170   1.850   6.431   5.168  0.3369  0.6621 -0.0321
   13MOL   C427 7171   1.925   6.376   5.058 -0.1066 -0.0017 -0.4273
   13MOL   C428 7172   1.997   6.460   4.971 -0.0174 -0.2127  0.5612
   13MOL   C429 7173   2.066   6.402   4.858 -0.3212 -0.0037 -0.7205
   13MOL   C430 7174   2.077   6.264   4.848  0.4219  0.4527  0.6241
   13MOL   C431 7175   2.152   6.211   4.725 -0.1521  0.5363 -0.7151
   13MOL   O432 7176   2.162   6.075   4.734  0.2699 -0.3975  0.0369
   13MOL   C433 7177   2.241   6.011   4.637 -0.1800  0.0196 -0.1113
   13MOL   C434 7178   2.394   6.034   4.664  0.3838  0.0874 -0.3655
   13MOL   O435 7179   2.211   6.279   4.635 -0.3678  0.3185  0.2336
   13MOL   C436 7180   2.017   6.180   4.943  0.4271 -0.6967 -0.4988
   13MOL   C437 7181   1.936   6.235   5.048 -0.2633 -0.6833 -0.2081
   13MOL   C438 7182   1.869   6.149   5.140  0.2213 -0.2074  0.0434
   13MOL   C439 7183   1.789   6.202   5.241 -0.5366  0.5218 -0.4439
   13MOL   H440 7184   1.846   6.535   5.196 -0.2755  1.0308 -1.4580
   13MOL   H441 7185   1.994   6.568   4.976 -0.5109 -0.0065 -3.0556
   13MOL   H442 7186   2.116   6.462   4.783 -2.1443  0.9412 -1.2301
   13MOL   H443 7187   2.195   6.027   4.539 -1.9155 -1.0245  0.5258
   13MOL   H444 7188   2.237   5.902   4.643 -1.6835  0.1197  0.8207
   13MOL   H445 7189   2.416   6.134   4.703  1.1578 -0.9193  1.8484
   13MOL   H446 7190   2.436   5.954   4.725  1.5902 -0.8589 -2.3786
   13MOL   H447 7191   2.029   6.073   4.940 -0.8906 -0.8498 -0.6707
   13MOL   H448 7192   1.891   6.043   5.134  1.6532  0.0864 -0.1103
   13MOL   H449 7193   1.741   6.136   5.311  0.7472  1.2671  1.1585
   13MOL   O450 7194   2.454   5.830   4.501  0.3807  0.3326 -0.5459
   13MOL   C451 7195   2.486   5.945   4.462 -0.1867  0.8127 -0.7903
   13MOL   O452 7196   2.471   6.046   4.540  0.4011  0.1606 -0.3206
   13MOL   C453 7197   2.540   5.984   4.330 -0.1872  0.8405  0.2682
   13MOL   C454 7198   2.517   5.906   4.218 -0.3912 -0.4568  0.2404
   13MOL   C455 7199   2.559   5.946   4.089  0.7755  0.6238  0.3020
   13MOL   C456 7200   2.523   5.861   3.982 -0.6233  0.1596 -0.1958
   13MOL   C457 7201   2.578   5.891   3.857 -0.1535 -0.4573  0.5106
   13MOL   C458 7202   2.637   6.018   3.836 -0.0040  0.1048  0.5068
   13MOL   C459 7203   2.666   6.060   3.694  0.0645  0.3452  0.6227
   13MOL   O460 7204   2.700   6.191   3.688  0.2875  0.4310  0.1687
   13MOL   C461 7205   2.713   6.258   3.564  0.0129  0.6112 -0.2143
   13MOL   C462 7206   2.693   6.408   3.582 -0.3657  0.5867 -0.3932
   13MOL   O463 7207   2.645   5.993   3.591  0.4802 -0.5239 -0.1737
   13MOL   C464 7208   2.672   6.099   3.946 -0.0769 -0.8655  0.4170
   13MOL   C465 7209   2.636   6.060   4.077 -0.3124  0.3337 -0.3379
   13MOL   C466 7210   2.668   6.138   4.189 -0.3721  0.2851 -0.0586
   13MOL   C467 7211   2.620   6.099   4.315 -0.1104 -0.5819  0.4186
   13MOL   H468 7212   2.451   5.821   4.226  0.1071 -0.8423  0.2809
   13MOL   H469 7213   2.459   5.774   3.987  1.8850 -1.6879  0.8688
   13MOL   H470 7214   2.542   5.836   3.772 -0.9838  0.2760  0.3763
   13MOL   H471 7215   2.639   6.213   3.497 -1.6399 -0.9713  2.5469
   13MOL   H472 7216   2.809   6.239   3.517  0.8705  0.0586  1.6904
   13MOL   H473 7217   2.671   6.451   3.484  1.5644  1.9156 -0.2781
   13MOL   H474 7218   2.607   6.440   3.640  1.3365  2.0961  1.3866
   13MOL   H475 7219   2.726   6.192   3.946 -2.1062  0.3356  0.7902
   13MOL   H476 7220   2.720   6.232   4.174 -2.1617  0.9313 -2.5602
   13MOL   H477 7221   2.628   6.169   4.397 -1.3357  1.0397 -0.8133
   13MOL   O478 7222   2.893   6.494   3.437  0.0234 -0.2648 -0.3726
   13MOL   C479 7223   2.898   6.503   3.561  0.3655 -0.4675 -0.2597
   13MOL   O480 7224   2.807   6.460   3.640 -0.8159 -0.0618 -0.0632
   13MOL   C481 7225   3.015   6.544   3.636 -0.2347  0.7431 -0.2410
   13MOL   C482 7226   3.138   6.545   3.565 -0.1800  0.3846 -0.3315
   13MOL   C483 7227   3.258   6.576   3.635  0.1402  0.2982  0.2041
   13MOL   C484 7228   3.380   6.560   3.564 -0.4976  1.0856 -1.1350
   13MOL   C485 7229   3.505   6.577   3.636  0.4717  0.6374 -0.0407
   13MOL   C486 7230   3.499   6.626   3.771 -0.1655  0.3121  0.2306
   13MOL   C487 7231   3.634   6.652   3.838 -0.4021  0.5719 -0.4777
   13MOL   O488 7232   3.628   6.647   3.976 -0.0512 -0.0165 -0.1064
   13MOL   C489 7233   3.754   6.661   4.047  0.4380  0.5630  0.2315
   13MOL   C490 7234   3.839   6.529   4.069 -0.2340  0.0290  0.0709
   13MOL   O491 7235   3.740   6.670   3.776 -0.1441 -0.3071 -0.3325
   13MOL   C492 7236   3.378   6.636   3.836  0.4836 -0.3237  0.0340
   13MOL   C493 7237   3.259   6.614   3.769  0.0251  0.9142 -0.4463
   13MOL   C494 7238   3.132   6.618   3.840 -0.4631  0.1179 -0.1765
   13MOL   C495 7239   3.019   6.578   3.778 -0.0034  0.3624 -0.2801
   13MOL   H496 7240   3.143   6.506   3.465 -0.2310  1.3131 -0.7084
   13MOL   H497 7241   3.376   6.521   3.463 -0.9734  2.4552 -1.6504
   13MOL   H498 7242   3.608   6.570   3.603  0.1418  1.0421 -1.2010
   13MOL   H499 7243   3.735   6.694   4.150 -1.1258  0.6112 -0.0699
   13MOL   H500 7244   3.828   6.727   4.002 -0.5292  1.7846  0.3965
   13MOL   H501 7245   3.923   6.516   4.000  0.0782  1.1235  0.2427
   13MOL   H502 7246   3.896   6.551   4.160 -1.8260  1.9469  0.6238
   13MOL   H503 7247   3.370   6.662   3.941  0.0123  0.2586 -0.1461
   13MOL   H504 7248   3.124   6.646   3.944 -2.0434 -0.0377 -0.2524
   13MOL   H505 7249   2.930   6.573   3.840 -0.4310  0.6933 -0.8591
   13MOL   O506 7250   3.767   6.369   3.863 -0.4331  0.1382 -0.1167
   13MOL   C507 7251   3.720   6.338   3.975  0.1068 -0.3738 -0.4241
   13MOL   O508 7252   3.751   6.414   4.082 -0.1070  0.6922  0.1488
   13MOL   C509 7253   3.621   6.228   4.004  0.0224  0.3627  0.3247
   13MOL   C510 7254   3.564   6.219   4.129  0.5450 -0.2358  0.8591
   13MOL   C511 7255   3.485   6.108   4.161 -0.1541  0.3354 -0.6341
   13MOL   C512 7256   3.427   6.091   4.289  0.2451 -0.3148  0.5079
   13MOL   C513 7257   3.361   5.974   4.328  0.0605 -0.5016  0.7576
   13MOL   C514 7258   3.328   5.873   4.226  0.2763  0.2568  0.4448
   13MOL   C515 7259   3.245   5.756   4.266  0.5201  0.2838 -0.6427
   13MOL   O516 7260   3.181   5.774   4.385  0.0035 -0.1519  0.1551
   13MOL   C517 7261   3.082   5.682   4.433  0.1885 -0.3375 -0.1884
   13MOL   C518 7262   3.138   5.552   4.488  0.3467  0.2034 -0.1954
   13MOL   O519 7263   3.236   5.654   4.200 -0.1354 -0.1311  0.6330
   13MOL   C520 7264   3.380   5.888   4.095 -0.0843 -0.2452 -0.4443
   13MOL   C521 7265   3.456   6.006   4.068  0.1111  0.2109 -0.0585
   13MOL   C522 7266   3.514   6.017   3.941 -0.4430 -0.0945  0.2658
   13MOL   C523 7267   3.608   6.123   3.910  0.2364 -0.5731 -0.1308
   13MOL   H524 7268   3.579   6.295   4.205  1.3555 -0.0418  0.5184
   13MOL   H525 7269   3.444   6.171   4.360  1.6531 -1.8989  1.9760
   13MOL   H526 7270   3.321   5.966   4.428 -1.3767 -0.0057  0.2274
   13MOL   H527 7271   3.017   5.645   4.354  1.5819  0.1605 -1.5890
   13MOL   H528 7272   3.015   5.739   4.497  0.2216  1.6136 -1.8825
   13MOL   H529 7273   3.066   5.474   4.461 -0.3740  0.3314  1.3216
   13MOL   H530 7274   3.232   5.531   4.437 -1.1538  0.0064 -2.9603
   13MOL   H531 7275   3.346   5.818   4.020 -0.0860 -0.8947  0.1518
   13MOL   H532 7276   3.495   5.936   3.873 -0.1912 -0.5919  0.7917
   13MOL   H533 7277   3.666   6.125   3.819 -0.4992 -1.5820 -0.6331
   13MOL   O534 7278   3.206   5.332   4.624  0.0236 -0.0287 -0.6155
   13MOL   C535 7279   3.174   5.434   4.682  0.6158 -0.3796 -0.4179
   13MOL   O536 7280   3.142   5.549   4.624 -0.4016 -0.0275  0.1199
   13MOL   C537 7281   3.172   5.442   4.829  0.0131 -0.1557  0.1450
   13MOL   C538 7282   3.106   5.550   4.897  0.4270 -0.3848 -0.1847
   13MOL   C539 7283   3.108   5.549   5.040  0.4592  0.5608 -0.1118
   13MOL   C540 7284   3.050   5.657   5.115 -0.6746  0.2126  0.9026
   13MOL   C541 7285   3.079   5.665   5.249  0.4405 -0.2460 -0.1104
   13MOL   C542 7286   3.134   5.559   5.324  0.3377 -0.4844 -0.2637
   13MOL   C543 7287   3.137   5.575   5.471  0.2999 -0.0697 -0.1222
   13MOL   O544 7288   3.178   5.457   5.532  0.1070 -0.1008 -0.1922
   13MOL   C545 7289   3.211   5.460   5.672  0.3931 -0.3331 -0.4467
   13MOL   C546 7290   3.314   5.355   5.699  0.3995  0.5051  0.4290
   13MOL   O547 7291   3.105   5.678   5.525 -0.2003 -0.1785  0.5835
   13MOL   C548 7292   3.174   5.442   5.253 -0.0452 -0.5534 -0.3643
   13MOL   C549 7293   3.173   5.440   5.112  0.1111  0.0542 -0.6189
   13MOL   C550 7294   3.224   5.334   5.043  0.3732 -0.0309  0.1667
   13MOL   C551 7295   3.229   5.339   4.904 -0.3347 -0.0069 -0.5498
   13MOL   H552 7296   3.057   5.628   4.841 -0.7781 -1.1876 -0.2742
   13MOL   H553 7297   2.985   5.729   5.067 -3.7256 -2.6635  0.4989
   13MOL   H554 7298   3.042   5.755   5.297  0.1015 -0.5642  0.2256
   13MOL   H555 7299   3.117   5.437   5.723 -0.1190  0.6518 -0.9315
   13MOL   H556 7300   3.242   5.559   5.705  0.9215 -1.0067  1.1181
   13MOL   H557 7301   3.323   5.331   5.805 -1.5183 -3.0171 -0.1142
   13MOL   H558 7302   3.399   5.375   5.633  1.6062 -0.4410  1.6558
   13MOL   H559 7303   3.210   5.354   5.304 -1.3171 -0.4127  0.8027
   13MOL   H560 7304   3.258   5.245   5.093  0.0701 -0.5432 -0.5322
   13MOL   H561 7305   3.274   5.259   4.848 -1.0255 -0.6439 -0.2064
   13MOL   H562 7306   3.301   5.254   5.659 -1.9703  0.0293  2.3139
   14MOL     O1 7307   2.866   5.233   7.547 -0.5745  0.2056 -0.0328
   14MOL     C2 7308   2.787   5.316   7.575  0.8570 -0.7397  0.0399
   14MOL     O3 7309   2.654   5.305   7.538  0.2405  0.0271 -0.5069
   14MOL     C4 7310   2.810   5.429   7.667  0.0155 -0.7304 -0.1288
   14MOL     C5 7311   2.927   5.428   7.752 -0.3320  0.2451 -0.0128
   14MOL     C6 7312   2.937   5.533   7.844 -1.3750  0.1293 -0.4433
   14MOL     C7 7313   3.040   5.522   7.943  0.9001  0.6875 -0.6486
   14MOL     C8 7314   3.054   5.610   8.050  0.1385  0.1373 -0.3521
   14MOL     C9 7315   2.949   5.709   8.064 -0.0858  0.0993 -0.0547
   14MOL    C10 7316   2.951   5.802   8.185 -0.0625  0.2628  0.0063
   14MOL    O11 7317   3.041   5.763   0.027 -0.7858 -0.2312  0.2313
   14MOL    C12 7318   3.086   5.841   0.141  0.3541  0.0852 -0.1465
   14MOL    C13 7319   2.970   5.878   0.235 -0.2583 -0.4898  0.2374
   14MOL    O14 7320   2.875   5.897   8.206 -0.2645  0.1762 -0.4031
   14MOL    C15 7321   2.855   5.733   7.957  0.0555  0.1644 -0.2038
   14MOL    C16 7322   2.845   5.640   7.854 -0.0996  0.2012  0.0994
   14MOL    C17 7323   2.736   5.641   7.766 -0.8513  0.1540 -0.6787
   14MOL    C18 7324   2.717   5.536   7.681 -0.2090  0.5776 -0.1359
   14MOL    H19 7325   2.990   5.341   7.748 -0.6378  0.0502 -0.6647
   14MOL    H20 7326   3.105   5.436   7.943 -1.7949 -1.4409 -1.8137
   14MOL    H21 7327   3.134   5.585   8.118 -0.0113 -1.6566 -0.8210
   14MOL    H22 7328   3.157   5.787   0.203 -1.6147  0.2442  2.3385
   14MOL    H23 7329   3.139   5.930   0.108 -1.0209  1.8099  2.1307
   14MOL    H24 7330   3.019   5.931   0.317 -0.2083 -0.2358  0.0440
   14MOL    H25 7331   2.910   5.953   0.184 -0.9654 -0.8990  0.4659
   14MOL    H26 7332   2.775   5.806   7.963 -1.2675 -1.3963  1.5017
   14MOL    H27 7333   2.670   5.726   7.757  1.5725  2.3521  1.2313
   14MOL    H28 7334   2.631   5.537   7.616 -0.1861 -1.3177 -0.2237
   14MOL    H29 7335   2.617   5.222   7.511  0.5556 -0.5882  0.9198
   14MOL    O30 7336   2.790   5.856   0.441  0.6075  0.0807  0.3407
   14MOL    C31 7337   2.815   5.756   0.379 -0.2189  0.9429  0.2470
   14MOL    O32 7338   2.899   5.757   0.269 -0.5787  0.6716 -0.1027
   14MOL    C33 7339   2.742   5.631   0.396  0.4565  0.6167  0.2582
   14MOL    C34 7340   2.650   5.617   0.499 -0.5875 -0.8423  0.0340
   14MOL    C35 7341   2.571   5.502   0.508  0.2339 -0.4030  0.8672
   14MOL    C36 7342   2.478   5.484   0.610  0.2098  0.3880  0.8232
   14MOL    C37 7343   2.391   5.370   0.613  0.5215  0.0602 -0.3956
   14MOL    C38 7344   2.394   5.282   0.503  0.2798 -0.1212  0.8460
   14MOL    C39 7345   2.303   5.162   0.518 -0.3896 -0.4072  0.4405
   14MOL    O40 7346   2.378   5.050   0.500  0.3743  0.3067  0.0639
   14MOL    C41 7347   2.338   4.917   0.544  0.4022 -0.0400  0.5371
   14MOL    C42 7348   2.361   4.898   0.694  0.5579 -0.0614 -0.4745
   14MOL    O43 7349   2.182   5.157   0.545  0.4545  0.0019 -0.2725
   14MOL    C44 7350   2.493   5.288   0.402  0.1334 -0.6297 -0.7357
   14MOL    C45 7351   2.574   5.402   0.404  0.1810 -0.3579 -0.2669
   14MOL    C46 7352   2.669   5.412   0.310 -0.6234  0.1436  0.4244
   14MOL    C47 7353   2.752   5.526   0.302 -0.1725  0.6605  0.1225
   14MOL    H48 7354   2.622   5.696   0.567 -2.0815  0.0369 -1.5643
   14MOL    H49 7355   2.479   5.559   0.688  2.0847  2.5345 -1.1930
   14MOL    H50 7356   2.323   5.374   0.697  0.5564  3.4825 -0.4698
   14MOL    H51 7357   2.402   4.845   0.492 -0.0171  0.0922 -0.1684
   14MOL    H52 7358   2.236   4.888   0.518  0.3833 -0.4346  1.0497
   14MOL    H53 7359   2.296   4.954   0.762  3.0271  1.6453  0.5931
   14MOL    H54 7360   2.339   4.794   0.719 -1.4825  0.8953  1.9173
   14MOL    H55 7361   2.494   5.223   0.316 -5.3201 -0.6884 -0.9134
   14MOL    H56 7362   2.682   5.341   0.229  0.8195  2.3815 -1.3960
   14MOL    H57 7363   2.810   5.542   0.212 -1.4370  0.3541 -0.7589
   14MOL    O58 7364   2.460   5.122   0.827 -0.1483  0.3595 -0.2344
   14MOL    C59 7365   2.538   5.035   0.790  0.3257  0.4036  0.1123
   14MOL    O60 7366   2.502   4.916   0.736 -0.9550 -0.1471 -0.6008
   14MOL    C61 7367   2.685   5.033   0.802  0.4407  0.0161 -0.2110
   14MOL    C62 7368   2.749   5.112   0.910 -0.3914 -1.1273 -0.4081
   14MOL    C63 7369   2.885   5.129   0.909  0.0104  0.8501 -0.1097
   14MOL    C64 7370   2.942   5.215   1.005  0.0797  0.0001 -0.1568
   14MOL    C65 7371   3.082   5.241   1.007  0.0946 -0.5928 -0.0742
   14MOL    C66 7372   3.165   5.165   0.919 -0.7640 -0.2168 -0.1890
   14MOL    C67 7373   3.318   5.184   0.922  0.1063  0.2012 -0.0611
   14MOL    O68 7374   3.381   5.096   0.844 -0.2478 -0.0070  0.3502
   14MOL    C69 7375   3.517   5.112   0.808 -0.5369  0.5331 -0.4713
   14MOL    C70 7376   3.557   5.002   0.705  0.3648  0.2158 -0.1644
   14MOL    O71 7377   3.375   5.268   0.991  0.8411 -0.1054  0.4016
   14MOL    C72 7378   3.103   5.083   0.821  0.0151 -0.4727  0.2772
   14MOL    C73 7379   2.969   5.067   0.815 -0.2956 -0.2309 -0.1287
   14MOL    C74 7380   2.911   4.983   0.723 -0.1371 -0.1198 -0.1558
   14MOL    C75 7381   2.770   4.967   0.709  0.4447 -0.1797  0.1321
   14MOL    H76 7382   2.686   5.167   0.978 -0.1833  0.7918 -1.7211
   14MOL    H77 7383   2.884   5.252   1.089 -1.9317 -1.8864 -0.6632
   14MOL    H78 7384   3.135   5.310   1.071 -0.8873  1.2975 -1.2922
   14MOL    H79 7385   3.577   5.117   0.898  0.2948 -0.6385 -0.9371
   14MOL    H80 7386   3.523   5.206   0.753  1.3531  0.6845 -0.0221
   14MOL    H81 7387   3.555   4.900   0.743 -0.8487  0.3534  0.1540
   14MOL    H82 7388   3.482   5.005   0.626  1.2296  2.4946 -0.9479
   14MOL    H83 7389   3.161   5.036   0.743  1.2585  1.5512 -0.0704
   14MOL    H84 7390   2.972   4.939   0.645 -2.6004  1.0032 -2.8168
   14MOL    H85 7391   2.734   4.908   0.626 -3.6485  0.3959  1.4154
   14MOL    O86 7392   3.598   5.015   0.423  0.3442 -0.0017  0.1415
   14MOL    C87 7393   3.694   5.028   0.501 -0.3696  0.6110 -0.1292
   14MOL    O88 7394   3.681   5.031   0.638  0.0505 -0.5737 -0.9279
   14MOL    C89 7395   3.834   5.029   0.453 -0.6183  0.1042  0.0656
   14MOL    C90 7396   3.942   5.011   0.542  0.3022  0.0864 -0.1471
   14MOL    C91 7397   4.076   5.016   0.498  0.9011 -0.5304  0.5531
   14MOL    C92 7398   4.186   4.991   0.584  0.0369  0.0009 -0.2247
   14MOL    C93 7399   4.320   5.000   0.535 -0.2514 -0.7152  0.4144
   14MOL    C94 7400   4.345   5.020   0.398 -0.3136 -0.1344  0.1320
   14MOL    C95 7401   4.481   5.028   0.334  0.4778  0.4399  0.4850
   14MOL    O96 7402   4.562   5.114   0.397 -0.3014  0.3756  0.1514
   14MOL    C97 7403   4.697   5.119   0.366  0.0469  0.1734 -0.0094
   14MOL    C98 7404   4.727   5.217   0.254 -0.3143  0.1492  0.3810
   14MOL    O99 7405   4.505   4.966   0.231  0.3321 -0.2871 -0.4819
   14MOL   C100 7406   4.234   5.037   0.312  0.4083 -0.2786  0.1600
   14MOL   C101 7407   4.096   5.035   0.361  0.0288  0.8088  0.5656
   14MOL   C102 7408   3.992   5.053   0.266 -0.4665 -0.9584 -0.3450
   14MOL   C103 7409   3.862   5.054   0.319 -0.0006  0.5175 -0.3679
   14MOL   H104 7410   3.922   4.999   0.648  0.2452  0.5742 -0.1022
   14MOL   H105 7411   4.177   4.969   0.690 -0.8034  3.1851  0.4253
   14MOL   H106 7412   4.405   4.970   0.593  0.6313  0.5481 -0.2108
   14MOL   H107 7413   4.739   5.025   0.329 -0.0763  0.5105 -1.0139
   14MOL   H108 7414   4.766   5.143   0.447  2.9639  2.1092 -2.9410
   14MOL   H109 7415   4.664   5.305   0.260  1.5338  1.4792  0.5422
   14MOL   H110 7416   4.831   5.250   0.258 -0.3421  0.1511  1.0405
   14MOL   H111 7417   4.243   5.040   0.204  2.5274  1.9751  0.3516
   14MOL   H112 7418   4.006   5.071   0.160  1.3779  1.1867  0.2328
   14MOL   H113 7419   3.782   5.069   0.248 -2.0113 -1.4657  1.4086
   14MOL   O114 7420   4.769   5.333   8.236 -0.2912  0.0659 -0.8424
   14MOL   C115 7421   4.720   5.221   0.013  0.6013  0.2521 -0.2173
   14MOL   O116 7422   4.690   5.165   0.127  0.0184 -0.2547  0.4026
   14MOL   C117 7423   4.697   5.125   8.150  0.2319 -0.1309 -1.0334
   14MOL   C118 7424   4.586   5.037   8.165  0.2737 -0.2400  0.1110
   14MOL   C119 7425   4.552   4.956   8.058  0.0460  0.0960  0.1632
   14MOL   C120 7426   4.441   4.870   8.066  0.4073  0.5394  0.3023
   14MOL   C121 7427   4.425   4.779   7.960  0.4363  1.0016 -0.1784
   14MOL   C122 7428   4.498   4.777   7.842 -0.3297 -0.0851 -0.3782
   14MOL   C123 7429   4.466   4.684   7.727  0.5496 -0.7013  0.1385
   14MOL   O124 7430   4.385   4.590   7.765  0.4917  0.0214 -0.2907
   14MOL   C125 7431   4.283   4.554   7.671 -0.9919  0.0053  0.2895
   14MOL   C126 7432   4.297   4.406   7.627  0.2284 -0.1941  0.7393
   14MOL   O127 7433   4.502   4.714   7.614 -0.4798  0.4002  0.3169
   14MOL   C128 7434   4.603   4.869   7.837 -0.2711  0.5595  0.1461
   14MOL   C129 7435   4.636   4.954   7.944 -0.0764 -0.0969  0.3326
   14MOL   C130 7436   4.755   5.031   7.936 -0.2644  0.4637 -0.2964
   14MOL   C131 7437   4.779   5.123   8.039  0.5101  0.2496 -0.0764
   14MOL   H132 7438   4.524   5.033   0.004  0.6978  1.6321  0.5036
   14MOL   H133 7439   4.372   4.876   8.149 -1.5752 -0.7015 -1.2260
   14MOL   H134 7440   4.350   4.703   7.971  1.0345  0.8959  3.7975
   14MOL   H135 7441   4.278   4.621   7.585 -0.9091  0.4888  0.6596
   14MOL   H136 7442   4.193   4.581   7.727 -1.3751  0.6273 -0.6061
   14MOL   H137 7443   4.278   4.334   7.707 -2.5306  1.0278  1.2399
   14MOL   H138 7444   4.215   4.385   7.558 -0.7158  0.3059  1.6980
   14MOL   H139 7445   4.660   4.876   7.746 -0.1105 -1.4987  0.0786
   14MOL   H140 7446   4.815   5.025   7.846 -0.9790  1.1503 -0.8201
   14MOL   H141 7447   4.858   5.197   8.033  0.7736  0.1333  1.7391
   14MOL   O142 7448   4.486   4.187   7.644 -0.2617  0.9831 -0.0443
   14MOL   C143 7449   4.511   4.291   7.587 -0.6131 -0.0375  0.1885
   14MOL   O144 7450   4.417   4.392   7.558 -0.0899 -0.7562 -0.0570
   14MOL   C145 7451   4.649   4.313   7.534  0.1107  0.4028  0.1052
   14MOL   C146 7452   4.671   4.400   7.423  1.0585 -0.0145  0.5277
   14MOL   C147 7453   4.803   4.438   7.380  0.2008 -0.0531 -0.4522
   14MOL   C148 7454   4.822   4.515   7.268  0.0089 -0.8728 -0.3342
   14MOL   C149 7455   4.946   4.556   7.227 -0.9341 -0.7492 -0.2465
   14MOL   C150 7456   5.062   4.517   7.303  0.0330 -0.2923 -0.3900
   14MOL   C151 7457   5.195   4.577   7.268  0.1099 -0.8077  0.3774
   14MOL   O152 7458   5.188   4.651   7.158  0.4509  0.1480 -0.1306
   14MOL   C153 7459   5.306   4.694   7.096  0.0366 -0.1064 -0.0897
   14MOL   C154 7460   5.292   4.672   6.945  0.4308  0.6908  0.0845
   14MOL   O155 7461   5.302   4.559   7.336 -0.3990  0.0811 -0.2649
   14MOL   C156 7462   5.044   4.434   7.415 -0.7510  0.2588  0.8202
   14MOL   C157 7463   4.913   4.391   7.451  0.3392  0.0850  0.1651
   14MOL   C158 7464   4.890   4.301   7.559 -0.0868  0.2028  0.4943
   14MOL   C159 7465   4.763   4.252   7.592  0.0823 -0.5833 -0.1402
   14MOL   H160 7466   4.586   4.440   7.370  1.2048  0.2655  0.5007
   14MOL   H161 7467   4.739   4.545   7.205 -0.1761  1.2537  0.8768
   14MOL   H162 7468   4.955   4.612   7.135 -0.0787 -0.9276 -0.2752
   14MOL   H163 7469   5.399   4.642   7.121 -0.7284 -0.6649  1.7162
   14MOL   H164 7470   5.307   4.801   7.113  0.5467 -0.1493  0.1663
   14MOL   H165 7471   5.244   4.576   6.924  1.8719  0.1750 -0.9345
   14MOL   H166 7472   5.233   4.754   6.904  1.6415  0.2353 -2.6953
   14MOL   H167 7473   5.124   4.407   7.482  0.3820 -0.6403 -0.8531
   14MOL   H168 7474   4.970   4.249   7.610 -0.5615 -1.8704 -0.8238
   14MOL   H169 7475   4.751   4.176   7.668 -0.3817 -0.1928  0.1780
   14MOL   O170 7476   5.329   4.562   6.683  0.0319 -0.0738  1.0165
   14MOL   C171 7477   5.422   4.607   6.748  0.0899 -0.0891 -0.5035
   14MOL   O172 7478   5.413   4.682   6.864  0.0589 -0.0956 -0.0131
   14MOL   C173 7479   5.571   4.598   6.712 -0.1340  0.2244 -0.2588
   14MOL   C174 7480   5.614   4.518   6.607 -0.0305 -0.5094 -0.2092
   14MOL   C175 7481   5.746   4.509   6.574  0.6120  0.4859 -0.1297
   14MOL   C176 7482   5.786   4.430   6.463  0.5658  0.0067 -0.8613
   14MOL   C177 7483   5.919   4.429   6.421  0.0844  0.3076 -0.1474
   14MOL   C178 7484   6.014   4.508   6.485  0.1607 -0.1369  0.1205
   14MOL   C179 7485   6.152   4.516   6.440 -0.2540 -0.6677  0.7334
   14MOL   O180 7486   6.236   4.578   6.512 -0.8305  0.2135 -0.5988
   14MOL   C181 7487   6.378   4.591   6.474 -0.0386 -0.6124 -0.0635
   14MOL   C182 7488   6.479   4.558   6.587  0.0366  0.1297  0.5371
   14MOL   O183 7489   6.184   4.459   6.337  0.5512 -0.4453 -0.0169
   14MOL   C184 7490   5.973   4.587   6.599  0.0881 -0.2962  0.1305
   14MOL   C185 7491   5.842   4.582   6.643  0.7612 -0.4336 -0.7137
   14MOL   C186 7492   5.802   4.662   6.749  0.1474  0.5315  0.6076
   14MOL   C187 7493   5.667   4.668   6.787  0.0336 -1.0813  0.7394
   14MOL   H188 7494   5.543   4.465   6.545 -0.9488  0.1535  0.2654
   14MOL   H189 7495   5.718   4.365   6.411  1.5520 -0.7423 -1.2306
   14MOL   H190 7496   5.947   4.369   6.336 -0.4754 -2.0354  1.2513
   14MOL   H191 7497   6.403   4.692   6.441 -1.5073  0.4148  1.8713
   14MOL   H192 7498   6.406   4.533   6.386  0.9669  0.8414 -0.7257
   14MOL   H193 7499   6.480   4.454   6.621 -0.9688 -0.1390 -0.2404
   14MOL   H194 7500   6.584   4.574   6.559  0.2161  0.8408  1.5946
   14MOL   H195 7501   6.041   4.653   6.650 -0.0132  0.5352 -0.8112
   14MOL   H196 7502   5.858   4.723   6.817 -0.7728  0.9568  0.9966
   14MOL   H197 7503   5.642   4.738   6.866 -1.6811 -1.2062  0.3361
   14MOL   O198 7504   6.682   4.721   6.723  0.1237  0.4882 -0.1051
   14MOL   C199 7505   6.563   4.713   6.760 -0.3837  0.0903  0.2310
   14MOL   O200 7506   6.459   4.640   6.703  0.4031  0.1486  0.9813
   14MOL   C201 7507   6.509   4.789   6.882  0.0851 -0.2134 -0.1936
   14MOL   C202 7508   6.600   4.871   6.946 -0.0810  0.8577 -0.5113
   14MOL   C203 7509   6.567   4.940   7.067 -0.3985 -0.2023  0.2927
   14MOL   C204 7510   6.664   5.009   7.144 -0.0567 -0.1312 -0.0886
   14MOL   C205 7511   6.620   5.082   7.251  1.0342 -0.1567  0.7201
   14MOL   C206 7512   6.495   5.067   7.302 -0.3906  0.2731 -0.0894
   14MOL   C207 7513   6.466   5.122   7.435  0.0817 -0.0032  0.2074
   14MOL   O208 7514   6.335   5.106   7.466 -0.4741 -0.0399 -0.3210
   14MOL   C209 7515   6.276   5.162   7.581 -0.6230 -0.4778 -0.5635
   14MOL   C210 7516   6.307   5.084   7.709  0.1938 -0.3831 -0.1814
   14MOL   O211 7517   6.550   5.176   7.504 -0.5475  0.3110 -0.2350
   14MOL   C212 7518   6.393   4.996   7.231 -0.0517  0.0731  0.8408
   14MOL   C213 7519   6.432   4.929   7.111  1.0029 -0.5557  0.2193
   14MOL   C214 7520   6.333   4.862   7.038  0.5473 -0.8332 -0.2895
   14MOL   C215 7521   6.375   4.785   6.931 -0.3679  0.0942  0.1388
   14MOL   H216 7522   6.701   4.874   6.907 -0.7575 -0.9820 -2.5193
   14MOL   H217 7523   6.767   5.007   7.110  0.1395  0.3750  0.4829
   14MOL   H218 7524   6.683   5.143   7.315 -0.3403 -0.7957  2.7279
   14MOL   H219 7525   6.168   5.167   7.572 -0.4864  0.3139 -1.9064
   14MOL   H220 7526   6.302   5.268   7.591 -0.0254 -0.5739 -1.0018
   14MOL   H221 7527   6.414   5.065   7.721  0.3471  0.2909 -0.4550
   14MOL   H222 7528   6.277   5.138   7.799  2.0774  0.8230 -0.2450
   14MOL   H223 7529   6.294   4.985   7.271 -0.9946  0.7707 -1.2052
   14MOL   H224 7530   6.227   4.876   7.050  0.1706 -1.5253 -2.7283
   14MOL   H225 7531   6.305   4.727   6.873 -0.1655  2.6399 -2.8121
   14MOL   O226 7532   6.044   5.050   7.768 -0.0202  0.3733 -0.9534
   14MOL   C227 7533   6.110   4.951   7.740  0.0169  0.6746  0.0485
   14MOL   O228 7534   6.236   4.960   7.699 -0.3885  0.2722  0.1432
   14MOL   C229 7535   6.052   4.812   7.756  0.0065 -0.3473 -0.4365
   14MOL   C230 7536   5.923   4.795   7.803 -0.5186  0.7400 -0.1987
   14MOL   C231 7537   5.877   4.663   7.831 -0.3725  0.6478  0.0946
   14MOL   C232 7538   5.742   4.642   7.876 -0.5560 -0.0430  0.8853
   14MOL   C233 7539   5.705   4.512   7.920 -0.4362  0.5113  0.1218
   14MOL   C234 7540   5.784   4.398   7.899  0.8478  0.7059  0.5893
   14MOL   C235 7541   5.735   4.259   7.921  0.2116 -0.9041 -0.2536
   14MOL   O236 7542   5.602   4.251   7.940 -0.7067  0.3244 -0.1029
   14MOL   C237 7543   5.550   4.127   7.979 -0.3567  0.6454 -0.3318
   14MOL   C238 7544   5.531   4.017   7.866 -0.3425 -0.1859  0.0521
   14MOL   O239 7545   5.810   4.162   7.928 -0.3565 -0.1211 -0.3280
   14MOL   C240 7546   5.915   4.411   7.844  0.2057 -0.1657  0.1314
   14MOL   C241 7547   5.962   4.547   7.815 -0.0273  0.2097 -0.2208
   14MOL   C242 7548   6.097   4.573   7.767  0.0092 -0.1700 -0.4705
   14MOL   C243 7549   6.140   4.705   7.737 -0.0980  0.1428 -0.1776
   14MOL   H244 7550   5.864   4.880   7.832 -0.6778  0.7246 -0.4752
   14MOL   H245 7551   5.678   4.729   7.880  1.1537  1.3104 -0.5061
   14MOL   H246 7552   5.608   4.500   7.967 -0.2148 -3.4122 -0.2618
   14MOL   H247 7553   5.455   4.153   8.026 -0.8757  1.1032 -1.6214
   14MOL   H248 7554   5.597   4.085   8.068 -0.5288 -2.1744 -1.5294
   14MOL   H249 7555   5.477   4.067   7.785  0.1324  0.3934  0.0895
   14MOL   H250 7556   5.626   3.980   7.827 -0.1136  0.1481  0.2886
   14MOL   H251 7557   5.974   4.321   7.835  1.5954  0.7683 -0.3795
   14MOL   H252 7558   6.161   4.486   7.760 -3.9620 -3.2847 -0.6045
   14MOL   H253 7559   6.245   4.719   7.713 -0.1771  4.0648  1.3773
   14MOL   O254 7560   5.563   3.844   8.091 -0.3121  0.1845  0.2851
   14MOL   C255 7561   5.475   3.828   8.004 -0.2382  0.3307 -0.4195
   14MOL   O256 7562   5.450   3.907   7.904  0.1961 -0.1441  0.2142
   14MOL   C257 7563   5.391   3.711   8.008  0.5701  0.2677 -0.0385
   14MOL   C258 7564   5.270   3.701   7.934  0.2109  0.3094  0.0699
   14MOL   C259 7565   5.202   3.575   7.934 -0.0348 -0.1317  0.2355
   14MOL   C260 7566   5.091   3.563   7.844 -0.2539 -0.8715 -0.6287
   14MOL   C261 7567   5.026   3.435   7.841  0.2396 -0.3572 -0.3644
   14MOL   C262 7568   5.061   3.324   7.921 -0.0924  0.4200 -0.5352
   14MOL   C263 7569   4.973   3.204   7.921 -0.2838  0.7629  0.1607
   14MOL   O264 7570   4.868   3.229   7.843 -0.5479 -0.3736  0.2440
   14MOL   C265 7571   4.755   3.147   7.844  0.1087  0.1004  0.1989
   14MOL   C266 7572   4.673   3.168   7.718  0.7982  0.3830  0.0177
   14MOL   O267 7573   4.985   3.108   7.996 -0.0263 -0.2942 -0.1242
   14MOL   C268 7574   5.172   3.343   8.010 -0.0568  0.7231 -0.2333
   14MOL   C269 7575   5.243   3.465   8.013 -0.2220  0.2230 -0.1217
   14MOL   C270 7576   5.355   3.477   8.095  0.1321  0.1749 -0.2496
   14MOL   C271 7577   5.424   3.599   8.091 -0.1247  0.2609 -0.2196
   14MOL   H272 7578   5.227   3.776   7.870  1.6195  0.4774 -0.7050
   14MOL   H273 7579   5.052   3.643   7.784 -2.8601  0.9622  3.2992
   14MOL   H274 7580   4.943   3.433   7.772 -0.6948  3.6968  0.4924
   14MOL   H275 7581   4.692   3.177   7.928 -2.2208 -0.9976 -1.0797
   14MOL   H276 7582   4.784   3.042   7.849 -0.9013 -0.2914 -1.5197
   14MOL   H277 7583   4.731   3.141   7.629 -0.0003 -2.3250  0.2726
   14MOL   H278 7584   4.581   3.115   7.692  0.4831  1.1077 -0.3513
   14MOL   H279 7585   5.216   3.265   8.070  1.1592  0.7781 -1.0527
   14MOL   H280 7586   5.388   3.397   8.159 -0.2403 -0.7206 -1.1604
   14MOL   H281 7587   5.519   3.606   8.142  0.1098 -1.7741 -0.3592
   14MOL   O282 7588   4.462   3.272   7.563 -0.1440 -0.5280 -0.3490
   14MOL   C283 7589   4.522   3.344   7.649 -0.2607  0.5932  0.4620
   14MOL   O284 7590   4.628   3.302   7.721  0.5835 -0.1799 -0.5577
   14MOL   C285 7591   4.489   3.494   7.662  0.4924 -0.0689  0.7702
   14MOL   C286 7592   4.373   3.534   7.590  0.1015 -0.1940 -0.3925
   14MOL   C287 7593   4.323   3.663   7.600  0.3387 -0.2018 -0.5262
   14MOL   C288 7594   4.203   3.696   7.525 -0.2653 -0.8139 -0.6615
   14MOL   C289 7595   4.147   3.821   7.541 -0.1098 -0.2332  0.3830
   14MOL   C290 7596   4.215   3.922   7.616 -0.1745  0.1810  0.4073
   14MOL   C291 7597   4.156   4.056   7.626 -0.8400 -0.3015 -0.1247
   14MOL   O292 7598   4.082   4.081   7.521  0.4521 -0.2340 -0.2802
   14MOL   C293 7599   3.997   4.197   7.524 -0.3748 -0.5721 -0.5266
   14MOL   C294 7600   3.871   4.154   7.604  0.3466  0.1315 -0.0081
   14MOL   O295 7601   4.161   4.130   7.727 -0.0141  0.1885  0.2362
   14MOL   C296 7602   4.339   3.889   7.682  0.5707  0.0165 -0.0012
   14MOL   C297 7603   4.393   3.760   7.672  0.7211 -0.2181  0.9753
   14MOL   C298 7604   4.510   3.721   7.735  0.1570 -0.3132  0.0302
   14MOL   C299 7605   4.555   3.591   7.737  1.1666  0.1752 -0.6670
   14MOL   H300 7606   4.326   3.457   7.531 -0.1678  0.7259 -1.4102
   14MOL   H301 7607   4.157   3.623   7.460  2.6242 -1.7213 -1.7840
   14MOL   H302 7608   4.057   3.832   7.483 -0.7087 -1.2877  1.1063
   14MOL   H303 7609   3.964   4.210   7.421 -1.3906 -1.7892 -0.3649
   14MOL   H304 7610   4.058   4.283   7.551 -0.0945 -1.6239  2.3930
   14MOL   H305 7611   3.823   4.071   7.554  1.3204 -0.9503  0.8242
   14MOL   H306 7612   3.900   4.125   7.705 -1.4552  1.2428  0.8528
   14MOL   H307 7613   4.387   3.966   7.740 -0.6181  0.6456  0.1652
   14MOL   H308 7614   4.564   3.803   7.778  0.2198 -1.2603  1.7840
   14MOL   H309 7615   4.651   3.564   7.778  0.3099 -2.1192 -0.0902
   14MOL   O310 7616   3.691   4.200   7.411  0.5460 -0.0781 -0.0496
   14MOL   C311 7617   3.696   4.272   7.505  0.6234 -0.6836  0.2422
   14MOL   O312 7618   3.782   4.261   7.606  0.1130  0.5224 -0.0464
   14MOL   C313 7619   3.599   4.388   7.523 -0.3311  0.7139 -0.7098
   14MOL   C314 7620   3.613   4.476   7.635  0.5869 -0.2211 -0.0868
   14MOL   C315 7621   3.530   4.590   7.658  0.1724  0.1485 -0.0174
   14MOL   C316 7622   3.553   4.677   7.766 -0.2353 -0.4187  0.2271
   14MOL   C317 7623   3.456   4.778   7.778  0.4326  0.4535 -0.3973
   14MOL   C318 7624   3.345   4.789   7.688 -0.6625  1.0532 -0.0572
   14MOL   C319 7625   3.248   4.901   7.706  0.0167 -1.2803  0.4348
   14MOL   O320 7626   3.151   4.909   7.610  0.4196 -0.0476  0.0545
   14MOL   C321 7627   3.050   5.015   7.621 -0.1378  0.2391  0.4237
   14MOL   C322 7628   2.942   4.984   7.724  0.0721 -0.0069 -0.0451
   14MOL   O323 7629   3.249   4.984   7.796 -0.0018  0.6593  0.6316
   14MOL   C324 7630   3.333   4.705   7.577  0.6019  0.0863 -0.2573
   14MOL   C325 7631   3.427   4.609   7.565  0.9623 -0.1202  0.4640
   14MOL   C326 7632   3.402   4.508   7.460 -0.0750 -0.4081 -0.7198
   14MOL   C327 7633   3.486   4.400   7.441 -0.1081  0.1749 -0.0109
   14MOL   H328 7634   3.693   4.457   7.705 -1.5538 -0.7916  2.2621
   14MOL   H329 7635   3.637   4.668   7.833 -0.0427 -2.0164 -0.2140
   14MOL   H330 7636   3.477   4.855   7.850 -0.1468 -0.2023  0.4820
   14MOL   H331 7637   3.011   5.029   7.520 -0.3182 -1.0277  0.3176
   14MOL   H332 7638   3.108   5.106   7.639  0.4162  0.5638 -2.7272
   14MOL   H333 7639   2.844   5.021   7.696  0.2810  1.1168  0.6944
   14MOL   H334 7640   2.927   4.877   7.741 -0.0613  0.1508  0.8401
   14MOL   H335 7641   3.255   4.725   7.506 -0.3268 -1.9421  0.1687
   14MOL   H336 7642   3.316   4.528   7.398  0.8758 -1.7150 -2.4888
   14MOL   H337 7643   3.475   4.329   7.360 -1.1164 -1.0613  1.1972
   14MOL   O338 7644   2.774   5.144   7.878  0.3763  0.4110 -0.1821
   14MOL   C339 7645   2.886   5.115   7.915 -0.5613 -0.1711 -0.1771
   14MOL   O340 7646   2.977   5.045   7.849  0.1852 -0.0951 -0.3565
   14MOL   C341 7647   2.945   5.176   8.039  0.1419  0.2095  0.0326
   14MOL   C342 7648   3.086   5.176   8.056  0.2707 -0.1184  0.6857
   14MOL   C343 7649   3.151   5.245   8.162 -0.0819  0.0416  0.9714
   14MOL   C344 7650   3.297   5.254   8.169  0.0016 -0.2340 -0.0626
   14MOL   C345 7651   3.360   5.333   0.019  0.5333 -0.3083  0.1075
   14MOL   C346 7652   3.276   5.408   0.103 -0.3168 -0.5122  0.9505
   14MOL   C347 7653   3.334   5.507   0.200 -0.7452 -0.0193  0.6720
   14MOL   O348 7654   3.469   5.523   0.179  0.3203  0.2724 -0.5677
   14MOL   C349 7655   3.529   5.640   0.230 -0.2353  0.1998 -0.2587
   14MOL   C350 7656   3.611   5.700   0.114  0.5527 -0.0328 -1.0761
   14MOL   O351 7657   3.265   5.575   0.278 -0.7063  0.0769  0.1284
   14MOL   C352 7658   3.133   5.398   0.100  0.0842  1.1853 -0.0038
   14MOL   C353 7659   3.069   5.316   0.006  0.2475  0.6782  0.4261
   14MOL   C354 7660   2.925   5.311   8.242  0.0089 -0.0125 -0.3667
   14MOL   C355 7661   2.865   5.240   8.137 -0.9678  0.5746  0.0264
   14MOL   H356 7662   3.156   5.122   7.995 -1.1272  0.3726 -1.3898
   14MOL   H357 7663   3.353   5.196   8.098 -0.2618  0.9228 -1.2285
   14MOL   H358 7664   3.467   5.330   0.025  0.4628  0.0002  1.4973
   14MOL   H359 7665   3.606   5.614   0.303  0.0371  3.2879  0.5968
   14MOL   H360 7666   3.460   5.716   0.265 -1.2668 -1.0619  0.5212
   14MOL   H361 7667   3.671   5.785   0.146  0.8522 -0.4526 -0.5196
   14MOL   H362 7668   3.689   5.627   0.094 -0.5364 -0.9066 -2.2565
   14MOL   H363 7669   3.067   5.459   0.161 -0.5317  0.6374 -0.1146
   14MOL   H364 7670   2.865   5.366   0.064  0.4429 -1.4588  1.1685
   14MOL   H365 7671   2.758   5.235   8.124 -0.6385  0.5775 -2.9413
   14MOL   O366 7672   3.432   5.930   0.120 -0.4049  0.0397  0.1808
   14MOL   C367 7673   3.450   5.868   0.019  0.2581  0.5681 -0.1046
   14MOL   O368 7674   3.531   5.746   0.008  0.4371 -0.4132 -0.7534
   14MOL   C369 7675   3.375   5.899   8.140  0.0256 -0.0742  0.3366
   14MOL   C370 7676   3.278   6.004   8.138 -0.6038 -0.4414  0.3044
   14MOL   C371 7677   3.200   6.020   8.019 -0.6420  0.0078  0.2011
   14MOL   C372 7678   3.106   6.130   8.008  0.3485 -0.2814 -0.0707
   14MOL   C373 7679   3.022   6.142   7.897 -0.8039 -0.3920 -0.0044
   14MOL   C374 7680   3.027   6.049   7.795 -0.1122  0.8306 -0.3925
   14MOL   C375 7681   2.927   6.058   7.682 -0.5186  0.9266  0.4473
   14MOL   O376 7682   2.933   5.947   7.601  0.1709 -0.1920 -0.0883
   14MOL   C377 7683   2.826   5.918   7.511  0.0870  0.1915  0.2583
   14MOL   C378 7684   2.848   5.780   7.457  0.5421 -0.5658  0.1745
   14MOL   O379 7685   2.844   6.146   7.675  0.3124  0.5640  0.6375
   14MOL   C380 7686   3.121   5.948   7.802  0.0777 -0.0245 -0.6629
   14MOL   C381 7687   3.205   5.930   7.913  0.2700  0.3840  0.3915
   14MOL   C382 7688   3.301   5.833   7.916  0.7376  0.2742  0.3084
   14MOL   C383 7689   3.376   5.808   8.028  0.4151 -0.3966  0.3662
   14MOL   H384 7690   3.257   6.068   8.222  2.1688  1.6174 -0.4823
   14MOL   H385 7691   3.111   6.188   8.098  0.9282 -1.9165  0.9828
   14MOL   H386 7692   2.945   6.218   7.889 -1.1472 -0.8502 -1.3369
   14MOL   H387 7693   2.800   5.995   7.438  0.5318  1.2459  1.2081
   14MOL   H388 7694   2.733   5.901   7.566 -1.9716  1.1835 -2.7584
   14MOL   H389 7695   2.885   5.710   7.532 -2.2936 -2.2306  0.0970
   14MOL   H390 7696   2.757   5.744   7.409  1.0443 -1.4445 -0.1438
   14MOL   H391 7697   3.138   5.872   7.727 -0.8846 -0.5109 -0.4023
   14MOL   H392 7698   3.312   5.766   7.832 -1.3435  1.1683 -0.7201
   14MOL   H393 7699   3.433   5.717   8.031 -0.8491 -1.2708 -1.1571
   14MOL   O394 7700   2.793   5.876   7.206 -0.2755  0.1467  0.5185
   14MOL   C395 7701   2.913   5.841   7.230  0.2283 -0.5940  0.2164
   14MOL   O396 7702   2.946   5.792   7.348  0.0116  0.4487  0.0469
   14MOL   C397 7703   3.026   5.827   7.138 -0.3587 -0.2537  0.1903
   14MOL   C398 7704   3.138   5.750   7.171  0.7443 -0.4760 -0.5989
   14MOL   C399 7705   3.242   5.732   7.078 -0.2835  0.7396 -0.1326
   14MOL   C400 7706   3.359   5.657   7.114 -0.1706  0.6875  0.6872
   14MOL   C401 7707   3.464   5.628   7.017 -0.3764 -0.9268  0.5320
   14MOL   C402 7708   3.440   5.669   6.886  0.0721 -0.7319  1.1121
   14MOL   C403 7709   3.527   5.613   6.778 -0.3805  0.5030 -0.2343
   14MOL   O404 7710   3.530   5.678   6.657 -0.4232  0.6671  0.1203
   14MOL   C405 7711   3.615   5.630   6.551 -0.3666  0.3715  0.7399
   14MOL   C406 7712   3.511   5.601   6.447  0.7253 -0.4023 -0.0788
   14MOL   O407 7713   3.596   5.508   6.795  0.4282 -0.2659  0.7627
   14MOL   C408 7714   3.329   5.748   6.849  0.3473 -0.3956  0.1459
   14MOL   C409 7715   3.235   5.785   6.945 -0.4852 -1.0490 -0.9390
   14MOL   C410 7716   3.120   5.854   6.909  0.5417 -0.2906 -0.2643
   14MOL   C411 7717   3.021   5.880   7.004  0.8229 -0.0894 -0.1222
   14MOL   H412 7718   3.136   5.702   7.267 -1.3780  1.8469  0.5550
   14MOL   H413 7719   3.367   5.613   7.212 -2.5507 -0.5411  0.3717
   14MOL   H414 7720   3.552   5.570   7.039  0.0878  0.7901  3.4567
   14MOL   H415 7721   3.676   5.540   6.561 -0.3602  0.2781 -0.0584
   14MOL   H416 7722   3.683   5.709   6.517 -0.0902  0.8539  2.3553
   14MOL   H417 7723   3.455   5.510   6.467 -1.2958  0.4615 -1.6166
   14MOL   H418 7724   3.439   5.683   6.443  2.2224  0.9587  0.4500
   14MOL   H419 7725   3.312   5.766   6.744 -0.8281 -1.1510  0.2039
   14MOL   H420 7726   3.100   5.891   6.809 -0.7782 -0.4955 -0.0772
   14MOL   H421 7727   2.932   5.938   6.980  1.2879  1.0576  0.9227
   14MOL   O422 7728   3.569   5.826   6.317  0.0513 -0.2428 -0.3470
   14MOL   C423 7729   3.601   5.720   6.264 -0.6049  0.4791 -0.6355
   14MOL   O424 7730   3.570   5.600   6.317  0.0560  0.0708  0.6159
   14MOL   C425 7731   3.663   5.713   6.130  0.6482 -0.5020 -0.1822
   14MOL   C426 7732   3.713   5.589   6.080  0.2958 -0.2692 -0.1922
   14MOL   C427 7733   3.759   5.573   5.949  0.4095 -0.6321  0.8359
   14MOL   C428 7734   3.809   5.448   5.900  0.2269 -0.8141 -0.0396
   14MOL   C429 7735   3.852   5.440   5.769  0.2031  0.5913  0.8796
   14MOL   C430 7736   3.852   5.554   5.686 -1.3048  0.3011 -0.1910
   14MOL   C431 7737   3.891   5.538   5.544  0.1490 -0.1501 -0.3206
   14MOL   O432 7738   3.929   5.416   5.515 -0.1452 -0.1561 -0.4058
   14MOL   C433 7739   3.951   5.385   5.382  0.3995 -0.4056  0.1149
   14MOL   C434 7740   3.835   5.393   5.283 -0.1643  0.0811  0.0133
   14MOL   O435 7741   3.890   5.627   5.460  0.2799 -0.0283  0.3611
   14MOL   C436 7742   3.814   5.685   5.731 -0.2665  0.8246  0.0174
   14MOL   C437 7743   3.769   5.692   5.865  0.1074 -0.2506  0.0789
   14MOL   C438 7744   3.730   5.816   5.918 -0.5674 -0.2065  0.6437
   14MOL   C439 7745   3.666   5.826   6.042  0.4410 -0.4628 -0.4713
   14MOL   H440 7746   3.717   5.504   6.147 -0.4661  0.9409  1.4394
   14MOL   H441 7747   3.824   5.360   5.962 -1.3039 -0.8194  0.3447
   14MOL   H442 7748   3.879   5.343   5.731 -0.4859  0.6676  0.1832
   14MOL   H443 7749   4.002   5.290   5.371  2.8214  0.7023  1.3126
   14MOL   H444 7750   4.020   5.458   5.338 -0.0039 -0.5304 -0.7304
   14MOL   H445 7751   3.808   5.498   5.270  1.0693  0.5350  1.0017
   14MOL   H446 7752   3.869   5.363   5.184 -0.3750 -2.4651  0.6647
   14MOL   H447 7753   3.823   5.774   5.671  0.0054  0.8235  0.0543
   14MOL   H448 7754   3.726   5.898   5.847  0.9845  0.5728  1.4128
   14MOL   H449 7755   3.618   5.920   6.065 -0.8205 -1.5050  1.3679
   14MOL   O450 7756   3.851   5.121   5.284 -0.7407 -0.2504 -0.2340
   14MOL   C451 7757   3.744   5.177   5.309 -0.3192  0.8454 -0.6273
   14MOL   O452 7758   3.730   5.309   5.312  0.2776 -0.9131 -0.5902
   14MOL   C453 7759   3.607   5.111   5.349 -0.0321 -0.0427  0.6189
   14MOL   C454 7760   3.613   4.968   5.361 -0.2725 -0.2194  0.2675
   14MOL   C455 7761   3.494   4.895   5.378  0.5421  0.3278  0.0666
   14MOL   C456 7762   3.500   4.757   5.377  0.1146  0.3123  0.4883
   14MOL   C457 7763   3.384   4.688   5.421 -0.8634 -0.6923 -0.2427
   14MOL   C458 7764   3.260   4.749   5.444  0.5238 -0.4089  0.5783
   14MOL   C459 7765   3.147   4.665   5.499 -0.2476  0.3683  0.4501
   14MOL   O460 7766   3.170   4.536   5.475  0.0604 -0.5521  0.2823
   14MOL   C461 7767   3.100   4.430   5.543 -0.4716 -0.5058 -0.1319
   14MOL   C462 7768   3.169   4.388   5.680 -0.4048 -0.1167 -0.4983
   14MOL   O463 7769   3.041   4.705   5.547  0.4832  0.4797  0.0003
   14MOL   C464 7770   3.249   4.888   5.433  0.3435 -0.4549 -0.3014
   14MOL   C465 7771   3.366   4.958   5.395  0.0211 -0.4888 -0.1619
   14MOL   C466 7772   3.365   5.101   5.373 -0.3297 -0.2115  0.4744
   14MOL   C467 7773   3.481   5.175   5.354  0.2700 -0.5228  0.3273
   14MOL   H468 7774   3.708   4.919   5.369 -0.8490 -1.2237  1.1062
   14MOL   H469 7775   3.596   4.710   5.364  0.5165  1.3784 -0.4905
   14MOL   H470 7776   3.406   4.583   5.428 -1.7328 -0.7182  3.1793
   14MOL   H471 7777   3.122   4.343   5.482  0.3071 -0.0415 -0.5126
   14MOL   H472 7778   2.992   4.444   5.550 -0.5660  1.0048 -3.5298
   14MOL   H473 7779   3.128   4.296   5.722 -0.0308  0.2599  0.7235
   14MOL   H474 7780   3.276   4.372   5.668  0.1881  2.3562  1.1824
   14MOL   H475 7781   3.148   4.929   5.435 -0.7794 -3.1633 -0.2076
   14MOL   H476 7782   3.271   5.149   5.396 -1.4131 -1.7188 -0.8004
   14MOL   H477 7783   3.478   5.282   5.345 -0.7245 -0.5896 -0.1623
   14MOL   O478 7784   2.969   4.409   5.857 -0.0657 -0.5814 -0.2607
   14MOL   C479 7785   3.052   4.499   5.860 -0.0644  0.5991  0.1646
   14MOL   O480 7786   3.157   4.496   5.777 -0.3121  0.6210  0.9776
   14MOL   C481 7787   3.049   4.608   5.952  0.0977 -0.1147  0.9972
   14MOL   C482 7788   3.125   4.722   5.929 -0.5953 -0.8570 -0.2349
   14MOL   C483 7789   3.120   4.832   6.010  0.3888 -0.1026  0.7272
   14MOL   C484 7790   3.193   4.947   5.981  0.6696  0.3597  0.1153
   14MOL   C485 7791   3.185   5.068   6.061  0.4986 -0.2720  0.2096
   14MOL   C486 7792   3.113   5.050   6.185 -0.5308 -0.5366 -0.2231
   14MOL   C487 7793   3.094   5.174   6.268 -0.7647 -0.0785  0.0907
   14MOL   O488 7794   3.204   5.252   6.256  0.0945 -0.2460 -0.9636
   14MOL   C489 7795   3.207   5.379   6.315  1.1217  0.5682 -0.3062
   14MOL   C490 7796   3.228   5.491   6.207 -0.4195  0.3229  0.1195
   14MOL   O491 7797   2.993   5.196   6.327  0.1570 -0.4978 -0.0316
   14MOL   C492 7798   3.036   4.937   6.210 -0.1638 -0.0590 -0.2263
   14MOL   C493 7799   3.043   4.827   6.120  0.7929  0.0984 -0.4573
   14MOL   C494 7800   2.968   4.714   6.154  0.7651  0.2041  0.1463
   14MOL   C495 7801   2.964   4.606   6.064  0.2105  0.2554 -0.3330
   14MOL   H496 7802   3.186   4.718   5.839  0.5936  0.4311  0.4968
   14MOL   H497 7803   3.241   4.952   5.885  0.9169 -0.2463  0.2037
   14MOL   H498 7804   3.234   5.158   6.030 -2.4624  0.5725 -2.2685
   14MOL   H499 7805   3.300   5.377   6.372  1.3957  0.9129 -0.7368
   14MOL   H500 7806   3.123   5.395   6.382  2.3324 -1.0979  1.6711
   14MOL   H501 7807   3.277   5.577   6.253 -0.5024  1.0706 -1.1586
   14MOL   H502 7808   3.298   5.459   6.130  1.9738 -0.0529  2.3747
   14MOL   H503 7809   2.968   4.928   6.294 -0.7877  0.1703 -0.7006
   14MOL   H504 7810   2.908   4.707   6.243  2.7685  1.7588  1.6626
   14MOL   H505 7811   2.911   4.516   6.093  1.2749 -0.4536 -0.5773
   14MOL   O506 7812   3.176   5.595   5.944 -0.6709 -0.6762  0.8170
   14MOL   C507 7813   3.088   5.569   6.023 -0.1636  0.0259  0.2080
   14MOL   O508 7814   3.104   5.524   6.150  0.2878  0.4741 -0.3796
   14MOL   C509 7815   2.942   5.582   6.004 -0.0914  0.5525 -0.8915
   14MOL   C510 7816   2.844   5.505   6.063  0.1495 -0.8226  0.2480
   14MOL   C511 7817   2.707   5.513   6.028  0.2929 -0.1250  0.1930
   14MOL   C512 7818   2.615   5.415   6.066  0.2181  0.0262 -0.0385
   14MOL   C513 7819   2.477   5.427   6.030 -0.5253 -0.4039  0.0777
   14MOL   C514 7820   2.440   5.532   5.933 -0.1486 -0.1281 -0.0919
   14MOL   C515 7821   2.304   5.550   5.870 -0.2318 -0.3989 -0.8516
   14MOL   O516 7822   2.219   5.437   5.880 -0.3911 -0.1454 -0.8709
   14MOL   C517 7823   2.087   5.451   5.828  0.1071  0.7500  0.2456
   14MOL   C518 7824   1.980   5.491   5.930  0.7169 -0.1278  0.2306
   14MOL   O519 7825   2.272   5.659   5.816 -0.8907  0.4242 -0.5339
   14MOL   C520 7826   2.535   5.628   5.898  0.5291  0.0478  0.0186
   14MOL   C521 7827   2.670   5.615   5.940  1.1185 -0.1456  0.7128
   14MOL   C522 7828   2.771   5.707   5.892 -0.0071  0.1864 -0.0264
   14MOL   C523 7829   2.904   5.686   5.918 -0.2176  0.1929  0.9677
   14MOL   H524 7830   2.873   5.422   6.124 -0.1493 -1.1647 -0.0702
   14MOL   H525 7831   2.640   5.334   6.133  0.1316 -0.7432 -0.9210
   14MOL   H526 7832   2.408   5.346   6.045  1.1913 -2.1097 -0.9137
   14MOL   H527 7833   2.061   5.351   5.792  2.8287  0.5476 -1.2782
   14MOL   H528 7834   2.085   5.515   5.740  0.1098 -0.1031 -0.3869
   14MOL   H529 7835   1.944   5.400   5.978  1.8886 -0.6496  0.1506
   14MOL   H530 7836   2.014   5.557   6.010  1.6259  0.0641 -0.3043
   14MOL   H531 7837   2.521   5.716   5.837 -1.2366 -0.5750 -0.5166
   14MOL   H532 7838   2.738   5.795   5.839 -2.4947  0.1962  1.4799
   14MOL   H533 7839   2.976   5.750   5.870 -1.6085 -0.7918 -2.5962
   14MOL   O534 7840   1.775   5.573   6.078  0.7280  0.2323  0.1325
   14MOL   C535 7841   1.772   5.603   5.958  0.5844  0.5744  0.3455
   14MOL   O536 7842   1.869   5.556   5.870  1.0382  0.1406  0.6206
   14MOL   C537 7843   1.661   5.681   5.892 -0.0989  0.3636  0.2325
   14MOL   C538 7844   1.660   5.726   5.759  0.7378  0.7054 -0.5312
   14MOL   C539 7845   1.555   5.805   5.701 -0.2578 -0.4367 -0.1244
   14MOL   C540 7846   1.545   5.839   5.567  0.1735 -0.4400 -0.3400
   14MOL   C541 7847   1.435   5.913   5.519 -1.0938 -0.9600  0.1629
   14MOL   C542 7848   1.328   5.949   5.604 -0.5591  0.0768  0.2615
   14MOL   C543 7849   1.204   6.005   5.547  0.6106 -0.2808  0.9349
   14MOL   O544 7850   1.105   6.009   5.635 -0.3869  0.2076 -0.4383
   14MOL   C545 7851   0.987   6.069   5.588  0.0183  0.9529 -1.0422
   14MOL   C546 7852   0.895   6.126   5.702  0.3033  0.2364  0.1510
   14MOL   O547 7853   1.194   6.039   5.427 -0.6335 -0.3766  0.2374
   14MOL   C548 7854   1.338   5.911   5.739  0.2624 -0.8376 -0.8338
   14MOL   C549 7855   1.450   5.844   5.786  0.4333 -0.2062  0.3376
   14MOL   C550 7856   1.459   5.812   5.922  0.2616  0.0763 -0.1085
   14MOL   C551 7857   1.560   5.727   5.975  0.4065 -0.3044 -0.0709
   14MOL   H552 7858   1.737   5.680   5.698  0.8234  1.1019 -0.7212
   14MOL   H553 7859   1.628   5.806   5.505  0.3017 -0.5378 -0.1174
   14MOL   H554 7860   1.429   5.955   5.419  1.8565  0.4938  0.5553
   14MOL   H555 7861   0.930   5.991   5.538  0.6493 -0.0969 -0.1344
   14MOL   H556 7862   1.011   6.152   5.521  2.3928  2.4575  1.5511
   14MOL   H557 7863   0.919   6.229   5.728 -1.6431  0.5471  0.8054
   14MOL   H558 7864   0.898   6.061   5.789 -2.3048 -0.0901  0.0427
   14MOL   H559 7865   1.260   5.938   5.809 -1.0487 -2.0237 -1.8027
   14MOL   H560 7866   1.383   5.848   5.991  0.8342  0.8907  0.1033
   14MOL   H561 7867   1.563   5.708   6.081 -0.6088 -1.3170 -0.2178
   14MOL   H562 7868   0.789   6.126   5.676  0.8658 -0.3284 -2.3556
   15MOL     O1 7869   4.267   6.500   2.507  0.3539  0.3248 -0.3061
   15MOL     C2 7870   4.155   6.449   2.508  0.3267  0.2261  0.3913
   15MOL     O3 7871   4.092   6.413   2.397 -0.0526 -0.4366 -0.3118
   15MOL     C4 7872   4.079   6.403   2.632  0.2632  0.2279  0.0095
   15MOL     C5 7873   4.056   6.496   2.735 -0.2515 -0.0227  0.0190
   15MOL     C6 7874   3.981   6.459   2.851 -1.1046 -0.0688  0.7142
   15MOL     C7 7875   3.957   6.548   2.959  0.2260  0.1825 -0.4447
   15MOL     C8 7876   3.887   6.508   3.075  0.2566  0.6208 -0.1048
   15MOL     C9 7877   3.815   6.381   3.073 -1.0019  0.6151 -0.0769
   15MOL    C10 7878   3.733   6.360   3.195 -0.5106 -0.5854 -1.0801
   15MOL    O11 7879   3.655   6.245   3.196 -0.2688  0.0102  0.1644
   15MOL    C12 7880   3.595   6.192   3.318  0.2414 -0.3640 -0.1999
   15MOL    C13 7881   3.515   6.062   3.284  1.2124 -1.0936  0.3056
   15MOL    O14 7882   3.748   6.423   3.300  0.0570 -0.6284 -0.0963
   15MOL    C15 7883   3.844   6.295   2.971  0.1312  0.0628 -0.2359
   15MOL    C16 7884   3.926   6.333   2.859  0.3639  0.5041  0.3930
   15MOL    C17 7885   3.951   6.239   2.760  0.1020 -0.2837  0.1886
   15MOL    C18 7886   4.026   6.268   2.644  0.0328  0.0253 -0.0096
   15MOL    H19 7887   4.096   6.596   2.731  0.2537 -0.2516 -0.7642
   15MOL    H20 7888   4.018   6.637   2.959  0.9625 -0.3082 -0.6786
   15MOL    H21 7889   3.887   6.576   3.159  0.4620  3.2177 -2.1760
   15MOL    H22 7890   3.667   6.175   3.398  0.0824 -1.6917 -0.3245
   15MOL    H23 7891   3.530   6.263   3.368 -2.1252 -0.4089 -3.1083
   15MOL    H24 7892   3.464   6.020   3.371  2.8167  0.3602  1.9801
   15MOL    H25 7893   3.434   6.100   3.221  1.9427 -1.6243 -0.9720
   15MOL    H26 7894   3.800   6.197   2.981  1.7794 -0.7854 -0.9934
   15MOL    H27 7895   3.919   6.137   2.768 -0.7905 -0.0207 -0.0211
   15MOL    H28 7896   4.044   6.197   2.565  0.3765  0.9554 -0.7791
   15MOL    H29 7897   4.146   6.387   2.324  0.1375 -1.8209  0.2999
   15MOL    O30 7898   3.460   5.787   3.242 -0.5906  0.0233  0.4201
   15MOL    C31 7899   3.557   5.847   3.195 -0.2665 -0.1858 -0.7250
   15MOL    O32 7900   3.596   5.972   3.216  0.1544 -0.7871 -0.5041
   15MOL    C33 7901   3.671   5.769   3.118 -0.1512  0.7902 -0.9029
   15MOL    C34 7902   3.756   5.836   3.027 -0.4252 -0.3432  1.0130
   15MOL    C35 7903   3.851   5.762   2.954  0.6220 -0.0834  0.1449
   15MOL    C36 7904   3.934   5.831   2.862 -0.2133  0.8003 -0.2431
   15MOL    C37 7905   4.026   5.756   2.790  0.6041  0.9457 -0.4159
   15MOL    C38 7906   4.052   5.622   2.824 -0.3753  0.6340 -0.0663
   15MOL    C39 7907   4.167   5.549   2.755 -0.1932 -0.0274 -0.0654
   15MOL    O40 7908   4.242   5.643   2.682 -0.4858  0.1885  0.6809
   15MOL    C41 7909   4.372   5.612   2.644  0.7256 -0.0205  0.1493
   15MOL    C42 7910   4.459   5.731   2.664 -0.2441 -0.4389  0.2811
   15MOL    O43 7911   4.195   5.427   2.762 -0.1734 -0.0616 -0.3174
   15MOL    C44 7912   3.975   5.556   2.922 -0.6396 -0.2611 -0.6575
   15MOL    C45 7913   3.877   5.627   2.985 -0.3869  0.0190  0.3432
   15MOL    C46 7914   3.792   5.559   3.073 -0.3655  0.7363 -0.9276
   15MOL    C47 7915   3.682   5.622   3.128 -0.5578  0.1073 -0.7222
   15MOL    H48 7916   3.745   5.940   3.002  1.3716 -0.4539 -0.3807
   15MOL    H49 7917   3.913   5.936   2.851 -2.3651  0.7181  2.4077
   15MOL    H50 7918   4.072   5.799   2.702 -1.3587  0.7641 -1.5837
   15MOL    H51 7919   4.371   5.569   2.544  0.6562 -0.0937  0.1809
   15MOL    H52 7920   4.408   5.528   2.705 -1.0329  0.3856  1.7939
   15MOL    H53 7921   4.445   5.796   2.577  0.2965  0.5865  0.9520
   15MOL    H54 7922   4.428   5.799   2.744  0.9396 -0.0974  0.4597
   15MOL    H55 7923   3.988   5.453   2.949 -1.0225 -0.0133  0.5014
   15MOL    H56 7924   3.813   5.455   3.092  0.9298  1.2343  0.5424
   15MOL    H57 7925   3.606   5.569   3.183 -1.2401  1.1766 -0.6115
   15MOL    O58 7926   4.673   5.723   2.485 -0.0664 -0.6598  0.0023
   15MOL    C59 7927   4.694   5.696   2.604 -0.1872 -0.3048  0.3607
   15MOL    O60 7928   4.592   5.698   2.697 -1.2863  0.4239 -0.1810
   15MOL    C61 7929   4.825   5.656   2.659  0.9698 -0.1823  0.1800
   15MOL    C62 7930   4.940   5.650   2.573  0.0971  0.1740 -0.3454
   15MOL    C63 7931   5.057   5.595   2.623 -0.0300  0.1772 -0.3919
   15MOL    C64 7932   5.170   5.599   2.545  0.2937  0.1468 -0.1834
   15MOL    C65 7933   5.297   5.560   2.593  0.4426 -0.1455 -0.8557
   15MOL    C66 7934   5.306   5.506   2.720 -0.0007 -0.4521  0.1960
   15MOL    C67 7935   5.440   5.465   2.773 -0.0430 -0.1286 -0.1899
   15MOL    O68 7936   5.427   5.419   2.897 -0.5785 -0.0488 -0.2114
   15MOL    C69 7937   5.540   5.413   2.985 -0.7429 -0.3178  0.4589
   15MOL    C70 7938   5.610   5.285   2.952  0.3813 -0.4700  0.3133
   15MOL    O71 7939   5.543   5.490   2.714 -0.3702  0.0488 -0.7914
   15MOL    C72 7940   5.192   5.504   2.800 -0.3789  0.7998 -0.5955
   15MOL    C73 7941   5.066   5.556   2.763 -1.1704 -0.0642  0.0507
   15MOL    C74 7942   4.952   5.563   2.848 -0.1284 -0.7741 -0.5085
   15MOL    C75 7943   4.838   5.626   2.795  0.7629  0.2785  0.0562
   15MOL    H76 7944   4.941   5.674   2.468 -0.4270  0.5420 -0.2671
   15MOL    H77 7945   5.162   5.640   2.445 -1.9471 -1.4596 -0.6996
   15MOL    H78 7946   5.390   5.573   2.539  0.9161 -0.4080 -0.1155
   15MOL    H79 7947   5.504   5.418   3.088 -1.3034  0.7266  0.2204
   15MOL    H80 7948   5.591   5.508   2.967  0.8515 -1.3181 -0.4709
   15MOL    H81 7949   5.601   5.261   2.846  1.5745  0.6396 -0.0501
   15MOL    H82 7950   5.718   5.295   2.961  0.2375  2.9692 -1.1456
   15MOL    H83 7951   5.197   5.462   2.899  1.7166  0.2642 -0.8985
   15MOL    H84 7952   4.957   5.544   2.954 -0.7701 -0.3618 -0.4023
   15MOL    H85 7953   4.754   5.647   2.860 -0.1342 -2.4334 -0.1801
   15MOL    O86 7954   5.462   5.072   2.882 -0.2124 -0.0423  0.3260
   15MOL    C87 7955   5.489   5.086   3.002  0.0474 -1.2207 -0.3377
   15MOL    O88 7956   5.573   5.180   3.041 -0.3987  1.0996  0.2215
   15MOL    C89 7957   5.432   5.003   3.112 -0.4204 -0.0170  0.0377
   15MOL    C90 7958   5.442   5.051   3.243  0.3682 -0.0511  0.8304
   15MOL    C91 7959   5.416   4.957   3.352 -0.4322  0.5763 -0.1155
   15MOL    C92 7960   5.423   4.997   3.486 -0.5981 -0.3608 -1.0017
   15MOL    C93 7961   5.405   4.903   3.583  0.0457  0.0281  0.5233
   15MOL    C94 7962   5.395   4.764   3.557  0.4574  0.3121  0.3093
   15MOL    C95 7963   5.405   4.668   3.663 -0.8572  0.1129 -0.5428
   15MOL    O96 7964   5.456   4.720   3.780  0.0553  0.0119  0.0794
   15MOL    C97 7965   5.481   4.633   3.896  0.3409  0.1431  0.6353
   15MOL    C98 7966   5.575   4.514   3.885 -0.0913 -0.7939  0.3190
   15MOL    O99 7967   5.377   4.549   3.643 -0.3093  0.3724 -0.1515
   15MOL   C100 7968   5.385   4.722   3.422  0.8384 -0.3173 -0.3844
   15MOL   C101 7969   5.390   4.822   3.319 -0.4980 -0.6919 -0.6177
   15MOL   C102 7970   5.378   4.778   3.186 -1.1246  0.3047  0.2559
   15MOL   C103 7971   5.401   4.868   3.079 -0.1684 -0.3812 -0.0323
   15MOL   H104 7972   5.469   5.154   3.257 -0.3025  0.1823  0.3987
   15MOL   H105 7973   5.437   5.103   3.504 -0.7329 -0.2947 -1.2902
   15MOL   H106 7974   5.409   4.933   3.687  0.2231 -1.3672  0.9293
   15MOL   H107 7975   5.382   4.592   3.918  0.9865 -1.7967  0.0427
   15MOL   H108 7976   5.517   4.705   3.969 -0.1120 -1.3945  2.4262
   15MOL   H109 7977   5.565   4.449   3.973  2.3457 -1.4023  0.1756
   15MOL   H110 7978   5.544   4.449   3.804 -3.4420  0.7481  0.2797
   15MOL   H111 7979   5.363   4.620   3.392 -1.0013  0.5653 -2.1540
   15MOL   H112 7980   5.358   4.677   3.156  0.8816  0.2528 -0.9140
   15MOL   H113 7981   5.405   4.843   2.974 -1.1615  3.7991 -1.1460
   15MOL   O114 7982   5.775   4.578   4.076 -0.0006 -0.7947 -0.5977
   15MOL   C115 7983   5.787   4.604   3.956 -0.0190 -0.1947 -0.2759
   15MOL   O116 7984   5.700   4.580   3.859 -0.3103 -0.0425 -0.0489
   15MOL   C117 7985   5.908   4.669   3.899 -0.2436 -0.6633 -0.4881
   15MOL   C118 7986   6.014   4.694   3.983 -0.2677  0.6055 -0.1907
   15MOL   C119 7987   6.131   4.762   3.939 -0.1843 -0.5638 -0.0637
   15MOL   C120 7988   6.233   4.795   4.034  0.1787 -0.6260 -0.3478
   15MOL   C121 7989   6.358   4.856   3.986  0.4031 -0.4214  0.7406
   15MOL   C122 7990   6.375   4.887   3.845  0.1664  0.3571  0.4554
   15MOL   C123 7991   6.498   4.958   3.806  0.4616  0.2967 -1.0360
   15MOL   O124 7992   6.497   4.996   3.678 -0.0977  0.1412 -0.1128
   15MOL   C125 7993   6.598   5.079   3.619 -0.1011 -0.1768  0.3218
   15MOL   C126 7994   6.638   5.019   3.488 -0.0481  0.1111  0.3859
   15MOL   O127 7995   6.589   4.982   3.884 -0.3400 -0.0780 -0.0207
   15MOL   C128 7996   6.269   4.847   3.757 -0.4571  0.1267  0.0344
   15MOL   C129 7997   6.154   4.785   3.799  0.4097  0.4600 -0.7480
   15MOL   C130 7998   6.049   4.753   3.711  0.7069  0.0886 -0.2588
   15MOL   C131 7999   5.928   4.693   3.757  0.6996  0.1649  0.0162
   15MOL   H132 8000   5.999   4.681   4.090 -0.6093  2.4034 -0.0146
   15MOL   H133 8001   6.228   4.776   4.140 -1.6462 -0.3209 -0.3715
   15MOL   H134 8002   6.441   4.882   4.050  0.6051  0.4408  0.1260
   15MOL   H135 8003   6.689   5.090   3.679 -0.4270 -0.1499  0.8101
   15MOL   H136 8004   6.558   5.176   3.590 -0.2900  0.0100  1.1833
   15MOL   H137 8005   6.712   5.077   3.432  0.1122  0.8251  1.3286
   15MOL   H138 8006   6.689   4.925   3.508  0.4815  0.5734  1.2438
   15MOL   H139 8007   6.291   4.851   3.651  0.0200  0.6908  0.1552
   15MOL   H140 8008   6.064   4.792   3.611 -0.4909 -3.1976 -1.8082
   15MOL   H141 8009   5.851   4.653   3.692 -0.3903 -0.3882  1.6048
   15MOL   O142 8010   6.542   4.765   3.427 -0.2566 -0.0612 -0.0359
   15MOL   C143 8011   6.483   4.868   3.389  0.0121  0.0706  0.3934
   15MOL   O144 8012   6.520   4.997   3.407  0.1201  0.1024 -0.6222
   15MOL   C145 8013   6.366   4.851   3.296  0.2133  0.4750 -0.8760
   15MOL   C146 8014   6.306   4.963   3.226 -0.8694  0.8208 -0.1856
   15MOL   C147 8015   6.196   4.939   3.142 -0.1550 -0.2132  0.2094
   15MOL   C148 8016   6.151   5.045   3.061 -0.7209 -0.1667  0.1006
   15MOL   C149 8017   6.060   5.022   2.955  0.2213 -0.1510  0.2198
   15MOL   C150 8018   6.015   4.888   2.930  0.0651 -0.4648  0.1257
   15MOL   C151 8019   5.922   4.862   2.813 -0.4464  0.0786 -0.6591
   15MOL   O152 8020   5.931   4.959   2.720 -0.6648  0.0377  0.2864
   15MOL   C153 8021   5.872   4.925   2.597 -0.3221 -0.1440 -0.0142
   15MOL   C154 8022   5.899   5.042   2.507  0.0753 -0.0584 -0.1922
   15MOL   O155 8023   5.856   4.755   2.803 -0.3920 -0.4708 -0.2060
   15MOL   C156 8024   6.055   4.783   3.018  0.0905  0.7381 -0.6954
   15MOL   C157 8025   6.145   4.810   3.119 -0.8480  0.1433  0.9908
   15MOL   C158 8026   6.206   4.701   3.185  0.3208 -0.0875 -0.1836
   15MOL   C159 8027   6.316   4.724   3.268  0.3291  0.3750  0.1383
   15MOL   H160 8028   6.344   5.063   3.237 -0.2632  0.4495  1.2632
   15MOL   H161 8029   6.207   5.137   3.070  1.4798 -1.2155 -2.4104
   15MOL   H162 8030   6.041   5.103   2.887  0.9042 -0.2327 -0.0720
   15MOL   H163 8031   5.764   4.911   2.593 -0.4675  0.1831  1.9500
   15MOL   H164 8032   5.919   4.834   2.560 -0.6400 -0.6778  0.8662
   15MOL   H165 8033   5.946   5.121   2.566  0.3884 -0.8003  0.5652
   15MOL   H166 8034   5.970   5.016   2.428  0.7229 -0.0110  0.3652
   15MOL   H167 8035   6.008   4.687   3.002  0.8392  0.1650  0.4918
   15MOL   H168 8036   6.173   4.602   3.160  0.0503  0.2351 -1.1090
   15MOL   H169 8037   6.364   4.637   3.311  1.7364 -0.1104 -2.3210
   15MOL   O170 8038   5.727   5.207   2.630 -0.4342  0.1259  0.2892
   15MOL   C171 8039   5.689   5.154   2.526 -0.2565 -0.1315 -0.2521
   15MOL   O172 8040   5.774   5.087   2.454  0.0354  0.0643  0.5124
   15MOL   C173 8041   5.555   5.158   2.461 -0.6382 -0.2171 -0.0314
   15MOL   C174 8042   5.533   5.127   2.323 -0.3436  0.3277  0.7725
   15MOL   C175 8043   5.406   5.102   2.273 -0.2877  0.4742  0.1130
   15MOL   C176 8044   5.384   5.064   2.140 -0.0277 -0.0376 -0.2714
   15MOL   C177 8045   5.253   5.029   2.092 -0.5549  0.1170  0.7927
   15MOL   C178 8046   5.148   5.033   2.179 -0.7081  0.3470  0.0392
   15MOL   C179 8047   5.015   4.973   2.144 -0.0773 -0.4186  0.0774
   15MOL   O180 8048   4.948   4.927   2.244 -0.0236 -0.2711 -0.0818
   15MOL   C181 8049   4.842   4.842   2.226  0.1927  0.0259 -0.5309
   15MOL   C182 8050   4.797   4.794   2.365  1.1562 -0.5335 -0.0433
   15MOL   O183 8051   4.979   4.965   2.029  0.1524 -0.1298  0.2126
   15MOL   C184 8052   5.167   5.080   2.307  0.2882  0.2554 -0.5700
   15MOL   C185 8053   5.296   5.114   2.363  0.0671  0.2134 -0.0322
   15MOL   C186 8054   5.309   5.157   2.494  0.2153 -0.7539 -0.1120
   15MOL   C187 8055   5.444   5.183   2.541  0.5717  0.9865 -0.4541
   15MOL   H188 8056   5.616   5.114   2.256 -0.4983 -0.7426  0.7723
   15MOL   H189 8057   5.469   5.053   2.074  0.3728 -0.5920  0.3323
   15MOL   H190 8058   5.244   4.987   1.993  3.1672  0.0777  0.4293
   15MOL   H191 8059   4.866   4.762   2.155  1.0083  0.4413 -0.7322
   15MOL   H192 8060   4.755   4.888   2.180 -1.0483 -1.7923 -0.0315
   15MOL   H193 8061   4.846   4.711   2.416 -1.3231 -0.4525  2.5860
   15MOL   H194 8062   4.813   4.885   2.424 -0.3557  0.7418 -1.5276
   15MOL   H195 8063   5.082   5.089   2.372  0.5227  2.6958 -0.5502
   15MOL   H196 8064   5.228   5.156   2.566  1.3289  0.0765  1.1911
   15MOL   H197 8065   5.458   5.207   2.645 -0.1017 -2.1358  0.4181
   15MOL   O198 8066   4.660   4.582   2.272 -0.4789 -0.2000 -0.4358
   15MOL   C199 8067   4.598   4.681   2.317  0.4840 -0.8996  1.2301
   15MOL   O200 8068   4.657   4.788   2.379 -0.0237 -0.5664 -0.6045
   15MOL   C201 8069   4.452   4.682   2.317  0.0210 -0.4743  0.8266
   15MOL   C202 8070   4.379   4.599   2.234  0.3123  0.0720  0.3039
   15MOL   C203 8071   4.244   4.583   2.240 -0.1283 -0.0602 -0.0356
   15MOL   C204 8072   4.181   4.490   2.156  0.0176 -0.7273 -0.6260
   15MOL   C205 8073   4.040   4.488   2.156 -0.3121 -0.1993 -0.1234
   15MOL   C206 8074   3.962   4.590   2.225 -0.0049 -0.3330  0.1013
   15MOL   C207 8075   3.816   4.604   2.195 -0.3102  0.3142  0.1218
   15MOL   O208 8076   3.783   4.724   2.219  0.3671  0.0304  0.1738
   15MOL   C209 8077   3.656   4.775   2.189  0.0070  0.0289 -0.8436
   15MOL   C210 8078   3.670   4.885   2.082  0.0517 -0.2913 -0.1871
   15MOL   O211 8079   3.739   4.522   2.151 -0.3213  0.2590 -0.1758
   15MOL   C212 8080   4.028   4.669   2.317 -0.0663  0.5278 -0.2976
   15MOL   C213 8081   4.168   4.667   2.325 -0.5372 -0.4106 -0.4519
   15MOL   C214 8082   4.240   4.768   2.395  0.4440  0.3365  0.0892
   15MOL   C215 8083   4.378   4.770   2.399  0.1158 -0.1634  0.2688
   15MOL   H216 8084   4.436   4.533   2.169  0.5332 -0.4794  1.0506
   15MOL   H217 8085   4.236   4.427   2.087  0.9690 -2.2131  1.4341
   15MOL   H218 8086   3.981   4.421   2.096 -0.9976  0.6047 -0.3539
   15MOL   H219 8087   3.603   4.810   2.278  0.6285 -0.5471 -0.2417
   15MOL   H220 8088   3.583   4.704   2.149 -1.1486  1.6115 -1.6014
   15MOL   H221 8089   3.705   4.824   1.999 -0.9345 -1.7579  0.4420
   15MOL   H222 8090   3.577   4.935   2.055 -0.0482 -0.9072 -1.0018
   15MOL   H223 8091   3.976   4.742   2.378  0.8235  1.2328 -0.3739
   15MOL   H224 8092   4.186   4.852   2.437  3.0076  1.5638  1.0899
   15MOL   H225 8093   4.430   4.848   2.454  1.7701  1.6241 -3.6667
   15MOL   O226 8094   3.914   4.926   1.976 -0.1180 -0.1608  0.0505
   15MOL   C227 8095   3.885   4.980   2.083  0.3490  0.5966  0.1942
   15MOL   O228 8096   3.761   4.986   2.125  0.4802 -0.2683  0.5058
   15MOL   C229 8097   3.987   5.044   2.173 -0.4410  0.4950  0.2001
   15MOL   C230 8098   4.126   5.025   2.146 -0.4438 -0.4650  0.3291
   15MOL   C231 8099   4.220   5.080   2.233  0.4457 -0.2953  0.3440
   15MOL   C232 8100   4.353   5.077   2.192 -0.4466  0.1731 -0.0058
   15MOL   C233 8101   4.451   5.125   2.279 -0.9397 -0.3550 -0.2342
   15MOL   C234 8102   4.413   5.182   2.405  0.0294 -0.1911 -0.3731
   15MOL   C235 8103   4.512   5.226   2.497  0.4322 -0.5966  0.1680
   15MOL   O236 8104   4.635   5.164   2.476 -0.0672  0.0396  0.0102
   15MOL   C237 8105   4.730   5.176   2.576 -0.2502 -0.3626 -0.7621
   15MOL   C238 8106   4.792   5.316   2.575  0.1204 -0.2960  0.0343
   15MOL   O239 8107   4.480   5.307   2.589  0.3704 -0.3035 -1.5168
   15MOL   C240 8108   4.275   5.203   2.431  0.4909  0.0742  0.5192
   15MOL   C241 8109   4.173   5.153   2.346 -0.1708  0.3428  0.1909
   15MOL   C242 8110   4.033   5.173   2.375 -0.3462 -0.4231 -0.7144
   15MOL   C243 8111   3.944   5.113   2.286  0.0223  0.4667 -0.0117
   15MOL   H244 8112   4.162   4.966   2.062 -0.0758 -1.7230  1.3614
   15MOL   H245 8113   4.383   5.032   2.099 -2.8844 -0.4056 -0.5491
   15MOL   H246 8114   4.557   5.109   2.267 -0.1446  3.0982  1.5935
   15MOL   H247 8115   4.812   5.105   2.564  0.2206 -0.3915  2.4220
   15MOL   H248 8116   4.684   5.164   2.674  0.2102  1.7348 -0.2739
   15MOL   H249 8117   4.720   5.398   2.573 -0.2862 -0.6732 -0.8198
   15MOL   H250 8118   4.853   5.329   2.665 -1.5568 -1.0617  1.3191
   15MOL   H251 8119   4.237   5.247   2.522  1.3777  0.1691  0.8481
   15MOL   H252 8120   4.000   5.240   2.453  1.0003  1.2239 -1.5096
   15MOL   H253 8121   3.839   5.135   2.299  0.1656 -0.2942  2.5268
   15MOL   O254 8122   4.722   5.415   2.329  0.6370  0.7866  0.0622
   15MOL   C255 8123   4.838   5.383   2.352  0.3883 -0.3317  0.6362
   15MOL   O256 8124   4.884   5.333   2.472  0.4615 -0.1852 -0.2924
   15MOL   C257 8125   4.941   5.371   2.245 -0.0185  0.2976 -0.4865
   15MOL   C258 8126   5.074   5.413   2.276  0.2777  0.4874  0.3115
   15MOL   C259 8127   5.175   5.403   2.180  0.1291  0.1591 -0.1780
   15MOL   C260 8128   5.307   5.422   2.218  0.1827 -0.8720  0.5261
   15MOL   C261 8129   5.417   5.408   2.123 -0.1454 -0.1029  0.1990
   15MOL   C262 8130   5.378   5.350   1.996 -0.6461 -0.6088 -0.2443
   15MOL   C263 8131   5.490   5.315   1.904  0.1073  0.0369 -0.2329
   15MOL   O264 8132   5.460   5.199   1.843  0.3456  0.5347 -0.0723
   15MOL   C265 8133   5.558   5.133   1.762 -0.3393 -0.0704 -0.0443
   15MOL   C266 8134   5.664   5.062   1.851 -0.5285  0.1308  0.4080
   15MOL   O267 8135   5.593   5.383   1.889 -0.2258  0.5899 -0.1742
   15MOL   C268 8136   5.241   5.327   1.955  0.4010 -0.2342 -0.0124
   15MOL   C269 8137   5.138   5.360   2.052 -0.0521 -0.2845  0.7531
   15MOL   C270 8138   5.001   5.345   2.013  0.1431  0.0228  0.1185
   15MOL   C271 8139   4.908   5.334   2.111  0.0657 -0.0100 -0.1917
   15MOL   H272 8140   5.098   5.439   2.378  0.7447 -1.0721  0.6064
   15MOL   H273 8141   5.331   5.450   2.319  1.3577 -0.7841  0.2359
   15MOL   H274 8142   5.518   5.432   2.150 -0.2180 -1.1706  1.4555
   15MOL   H275 8143   5.591   5.204   1.686  1.2321 -0.1801  0.5118
   15MOL   H276 8144   5.511   5.049   1.711  2.2190 -1.1825 -0.6474
   15MOL   H277 8145   5.645   5.083   1.956  1.9323  1.3869  0.6332
   15MOL   H278 8146   5.664   4.955   1.833 -1.6940  0.2019 -0.0815
   15MOL   H279 8147   5.209   5.290   1.859  0.0605  0.2174 -0.0735
   15MOL   H280 8148   4.972   5.317   1.913  1.7551  2.8136 -1.1946
   15MOL   H281 8149   4.804   5.315   2.087 -0.6259  2.3123  0.7539
   15MOL   O282 8150   5.807   5.021   1.617 -0.3385  0.0350 -0.1497
   15MOL   C283 8151   5.846   5.100   1.696 -0.5189 -0.2217 -0.3897
   15MOL   O284 8152   5.790   5.121   1.815 -0.2770  0.3464 -0.4778
   15MOL   C285 8153   5.977   5.175   1.680 -0.0028  0.5202  0.0443
   15MOL   C286 8154   6.080   5.118   1.592 -0.3903  0.9722  0.2183
   15MOL   C287 8155   6.198   5.187   1.584  0.8153 -0.0692 -0.5022
   15MOL   C288 8156   6.305   5.139   1.512 -0.8713 -0.8122 -0.3118
   15MOL   C289 8157   6.430   5.204   1.507 -0.3250  0.1720  0.0184
   15MOL   C290 8158   6.445   5.328   1.569 -0.3910 -0.3909 -0.5991
   15MOL   C291 8159   6.575   5.403   1.560 -0.3562  0.8708  0.2613
   15MOL   O292 8160   6.591   5.495   1.644  0.1777 -0.0309 -0.0701
   15MOL   C293 8161   6.715   5.568   1.647  0.2416 -0.3710 -0.2930
   15MOL   C294 8162   6.711   5.663   1.771 -0.1554  0.4743 -0.9809
   15MOL   O295 8163   6.663   5.376   1.474 -0.1877 -0.1089  0.7321
   15MOL   C296 8164   6.337   5.373   1.646  0.0067 -0.3074  0.0031
   15MOL   C297 8165   6.215   5.306   1.654  0.5755 -0.4795 -0.8114
   15MOL   C298 8166   6.111   5.365   1.734  0.1224 -0.6708 -0.4053
   15MOL   C299 8167   5.991   5.297   1.744  0.4856  0.1698  0.0853
   15MOL   H300 8168   6.069   5.021   1.547  0.3514  0.5042  1.0102
   15MOL   H301 8169   6.290   5.052   1.450  0.1080  0.1437 -1.9070
   15MOL   H302 8170   6.508   5.160   1.447 -0.2016  1.1652 -0.5634
   15MOL   H303 8171   6.718   5.638   1.563  0.9810  1.0554  0.9092
   15MOL   H304 8172   6.809   5.512   1.647  1.5281  1.7500  1.2106
   15MOL   H305 8173   6.643   5.747   1.764 -0.1012  0.4762 -1.4789
   15MOL   H306 8174   6.701   5.609   1.865 -0.7630  1.3871 -0.5149
   15MOL   H307 8175   6.340   5.470   1.693  0.8469  1.2657 -3.1684
   15MOL   H308 8176   6.128   5.465   1.773  0.9352 -0.3783 -1.4968
   15MOL   H309 8177   5.914   5.336   1.809 -0.3197 -0.1541 -0.6701
   15MOL   O310 8178   6.943   5.553   1.882 -0.6205  0.3513 -0.3172
   15MOL   C311 8179   6.947   5.667   1.836  0.0931  0.9137 -0.3969
   15MOL   O312 8180   6.837   5.729   1.779 -0.5478 -0.3934 -0.5625
   15MOL   C313 8181   7.073   5.751   1.838  0.0587  0.2117 -0.3440
   15MOL   C314 8182   7.064   5.893   1.845  0.0942  0.3952  0.1635
   15MOL   C315 8183   7.174   5.966   1.887  0.5198 -0.6078 -0.1256
   15MOL   C316 8184   7.166   6.108   1.894  0.0877  1.1277  0.2284
   15MOL   C317 8185   7.279   6.183   1.938  1.1508  0.1344 -0.0098
   15MOL   C318 8186   7.403   6.124   1.971 -0.5535 -0.4808 -0.5358
   15MOL   C319 8187   7.520   6.202   2.015 -0.4566 -0.2048  0.3881
   15MOL   O320 8188   7.510   6.338   2.002  0.0198  0.2460  0.1197
   15MOL   C321 8189   7.620   6.423   2.015  0.1755  0.5456  0.9668
   15MOL   C322 8190   7.588   6.568   2.059  0.4702 -0.5479  0.1682
   15MOL   O323 8191   7.625   6.142   2.039  0.3515 -0.5728  0.7344
   15MOL   C324 8192   7.406   5.985   1.958  0.4212  0.0853 -0.0254
   15MOL   C325 8193   7.295   5.900   1.920 -0.1399 -0.1131  0.2507
   15MOL   C326 8194   7.303   5.765   1.912 -0.2141 -0.2304 -0.4090
   15MOL   C327 8195   7.196   5.685   1.876  0.3461 -0.8906 -0.3612
   15MOL   H328 8196   6.971   5.943   1.825 -0.7504 -0.1410  2.5573
   15MOL   H329 8197   7.070   6.156   1.887  0.2714  1.8314  2.0546
   15MOL   H330 8198   7.259   6.288   1.951 -0.5765 -0.0571 -0.9880
   15MOL   H331 8199   7.686   6.425   1.929  0.0393 -1.6328  0.8053
   15MOL   H332 8200   7.684   6.391   2.097  0.3572  3.0357  1.8348
   15MOL   H333 8201   7.505   6.585   2.128 -1.1503 -0.9216 -1.6689
   15MOL   H334 8202   7.676   6.606   2.111  0.0574  1.1353 -0.3248
   15MOL   H335 8203   7.500   5.934   1.970  0.7608  1.0145  1.4079
   15MOL   H336 8204   7.395   5.712   1.934 -1.3510 -2.6824 -1.3786
   15MOL   H337 8205   7.202   5.577   1.877 -1.4002 -1.0017  1.6266
   15MOL   O338 8206   7.333   6.640   1.977 -0.3737 -0.1279 -0.3860
   15MOL   C339 8207   7.432   6.684   1.915  0.2370  0.5835  0.6179
   15MOL   O340 8208   7.560   6.657   1.946 -0.3503  0.6222  0.3128
   15MOL   C341 8209   7.420   6.791   1.822  0.4587  1.0106  0.7736
   15MOL   C342 8210   7.296   6.858   1.788 -0.7926  0.0513 -0.4264
   15MOL   C343 8211   7.296   6.969   1.699 -0.7084 -0.0790  0.1337
   15MOL   C344 8212   7.180   7.038   1.667 -0.4437  0.1884 -0.4837
   15MOL   C345 8213   7.178   7.131   1.567 -0.5462  0.2215  0.1632
   15MOL   C346 8214   7.297   7.175   1.506 -1.0608  0.4964 -0.6253
   15MOL   C347 8215   7.306   7.269   1.395 -0.9233  0.5017 -0.0050
   15MOL   O348 8216   7.423   7.327   1.376 -0.0228  1.0047 -0.3024
   15MOL   C349 8217   7.454   7.388   1.251  1.3130 -0.2579  0.7872
   15MOL   C350 8218   7.566   7.483   1.292 -0.2243 -0.2889  0.3086
   15MOL   O351 8219   7.204   7.302   1.334  0.6160 -0.4822 -0.5013
   15MOL   C352 8220   7.417   7.116   1.547 -0.7184 -0.5218 -0.1354
   15MOL   C353 8221   7.418   7.010   1.640 -0.0375 -0.6151 -0.0230
   15MOL   C354 8222   7.534   6.942   1.675 -0.1368 -0.6198  0.4331
   15MOL   C355 8223   7.538   6.829   1.759 -0.0133 -0.3805  0.5418
   15MOL   H356 8224   7.200   6.817   1.816 -1.3690 -0.0621 -2.4651
   15MOL   H357 8225   7.085   7.018   1.713  0.5934 -0.0955  1.5966
   15MOL   H358 8226   7.084   7.182   1.551 -0.1438  0.6035 -1.0288
   15MOL   H359 8227   7.366   7.445   1.219  2.2094  0.5767 -0.2278
   15MOL   H360 8228   7.473   7.311   1.177  0.5321  0.1858  0.1076
   15MOL   H361 8229   7.579   7.570   1.227  0.4633 -2.1406 -2.0894
   15MOL   H362 8230   7.534   7.518   1.390 -0.2944  1.3951 -0.2933
   15MOL   H363 8231   7.514   7.153   1.516 -0.7950 -1.6696 -1.7664
   15MOL   H364 8232   7.626   6.977   1.632 -0.1470 -0.3319  0.6467
   15MOL   H365 8233   7.635   6.782   1.768 -1.0449 -2.6123  0.4253
   15MOL   O366 8234   7.700   7.373   1.087 -0.0019  0.3360  0.0777
   15MOL   C367 8235   7.743   7.352   1.203 -0.0196 -0.4519 -1.0582
   15MOL   O368 8236   7.687   7.411   1.312  0.2053  0.0988 -0.6432
   15MOL   C369 8237   7.853   7.253   1.234  0.1073  0.0740 -0.6977
   15MOL   C370 8238   7.868   7.147   1.146 -0.1914  0.1854  0.4693
   15MOL   C371 8239   7.967   7.045   1.158  0.6956 -0.3241 -0.6741
   15MOL   C372 8240   8.003   6.962   1.059  0.5257 -0.3723 -0.1141
   15MOL   C373 8241   8.109   6.867   1.082  0.1331  0.1082 -0.4305
   15MOL   C374 8242   8.188   6.871   1.200 -0.7942 -0.7325 -1.0324
   15MOL   C375 8243   0.047   6.770   1.222 -0.9191 -0.2743  0.1072
   15MOL   O376 8244   0.073   6.681   1.118 -0.2752  0.4048  0.0129
   15MOL   C377 8245   0.144   6.561   1.146 -0.1618 -0.6665  0.1625
   15MOL   C378 8246   0.055   6.459   1.196  0.5458 -0.2291  0.2800
   15MOL   O379 8247   0.108   6.758   1.329 -0.0310  0.3037 -0.1587
   15MOL   C380 8248   8.155   6.961   1.300  0.2730  0.0160  0.2714
   15MOL   C381 8249   8.045   7.052   1.276 -0.5444 -0.4200 -0.2008
   15MOL   C382 8250   8.026   7.151   1.373  0.6248  0.2572  0.0106
   15MOL   C383 8251   7.941   7.257   1.343 -0.0992 -0.3496 -0.5330
   15MOL   H384 8252   7.805   7.147   1.058 -0.8428  2.3029  0.9237
   15MOL   H385 8253   7.954   6.963   0.963  1.1935 -2.2222 -0.5032
   15MOL   H386 8254   8.143   6.796   1.008 -0.0477 -0.4813  0.0440
   15MOL   H387 8255   0.217   6.589   1.222 -1.2198 -1.4182  1.4662
   15MOL   H388 8256   0.199   6.536   1.055  1.5277 -1.1857  1.2924
   15MOL   H389 8257   8.224   6.434   1.127 -0.1342  3.2564 -0.2751
   15MOL   H390 8258   0.123   6.374   1.204  0.6254 -0.0123  2.2947
   15MOL   H391 8259   8.210   6.967   1.393  0.6348  3.3883 -0.0961
   15MOL   H392 8260   8.072   7.141   1.471 -0.7518  0.8564  0.7373
   15MOL   H393 8261   7.929   7.318   1.432 -2.3145  0.3004 -1.2508
   15MOL   O394 8262   0.151   6.390   1.451 -0.8639 -0.6781 -0.1187
   15MOL   C395 8263   0.050   6.457   1.437  0.1478 -0.2291 -0.0295
   15MOL   O396 8264   8.237   6.487   1.322  0.4940 -0.8472  0.4892
   15MOL   C397 8265   8.238   6.528   1.553  0.4776 -0.1997  0.8803
   15MOL   C398 8266   8.155   6.637   1.538 -0.2431  0.0416 -0.1592
   15MOL   C399 8267   8.105   6.713   1.647 -0.4120 -0.6435  0.1975
   15MOL   C400 8268   8.010   6.816   1.618  0.5812  0.3780 -0.6411
   15MOL   C401 8269   7.953   6.887   1.721  0.7463  0.3087  0.2209
   15MOL   C402 8270   7.990   6.862   1.851  0.0592  0.0715 -0.5474
   15MOL   C403 8271   7.925   6.947   1.953 -1.3964  0.2632 -0.0607
   15MOL   O404 8272   7.997   6.954   2.070 -0.4590  0.0701 -0.0588
   15MOL   C405 8273   7.956   7.030   2.185  0.2656 -0.0947  0.3629
   15MOL   C406 8274   7.841   6.968   2.264 -0.3921 -0.5695 -0.0718
   15MOL   O407 8275   7.811   6.996   1.939 -0.2440 -0.1473 -0.2670
   15MOL   C408 8276   8.089   6.759   1.880  0.3481  0.1581  0.0741
   15MOL   C409 8277   8.138   6.679   1.777 -1.3697  0.1086  0.2818
   15MOL   C410 8278   8.217   6.561   1.794 -0.1971 -0.4319  0.1454
   15MOL   C411 8279   0.021   6.490   1.685 -0.1309  0.1008  0.4961
   15MOL   H412 8280   8.118   6.673   1.442  1.5467 -0.8533 -1.1975
   15MOL   H413 8281   7.980   6.842   1.518  0.4341 -1.6320 -1.1441
   15MOL   H414 8282   7.872   6.954   1.697 -0.8117 -1.2055  1.1372
   15MOL   H415 8283   7.924   7.127   2.148  0.4047  0.1754  0.9596
   15MOL   H416 8284   8.043   7.042   2.250 -0.5562 -1.5677  1.7760
   15MOL   H417 8285   7.807   7.050   2.326 -2.3023 -0.1279 -1.6258
   15MOL   H418 8286   7.761   6.933   2.198 -0.0814  2.7364 -2.3292
   15MOL   H419 8287   8.121   6.744   1.982  0.9170 -0.3233 -0.1741
   15MOL   H420 8288   8.247   6.530   1.893  1.5809  1.0569  0.0959
   15MOL   H421 8289   0.097   6.416   1.705  1.2125  1.2151 -0.3617
   15MOL   O422 8290   7.889   6.699   2.198 -0.0411 -0.6065 -0.7644
   15MOL   C423 8291   7.915   6.745   2.315 -0.0348  0.2113 -0.4922
   15MOL   O424 8292   7.896   6.870   2.356 -0.5185 -0.4668  0.3354
   15MOL   C425 8293   7.971   6.663   2.419 -0.3251  0.0641  0.1285
   15MOL   C426 8294   7.978   6.523   2.395  0.4898  0.4590 -0.0420
   15MOL   C427 8295   8.019   6.437   2.495  0.8321 -0.3578 -0.0078
   15MOL   C428 8296   8.022   6.305   2.460 -0.0397 -0.5126 -0.1629
   15MOL   C429 8297   8.077   6.212   2.555  0.2780  0.1224  0.1384
   15MOL   C430 8298   8.127   6.251   2.677  0.1227  0.3580 -1.0155
   15MOL   C431 8299   8.189   6.148   2.767 -0.1304 -0.1759  0.2104
   15MOL   O432 8300   0.004   6.206   2.875 -0.1538 -0.6976  0.1409
   15MOL   C433 8301   0.019   6.133   2.997 -0.3548  0.4026  0.1594
   15MOL   C434 8302   8.140   6.142   3.074  0.4044 -0.0564 -0.8164
   15MOL   O435 8303   8.175   6.028   2.757  0.5653  0.2878 -0.4441
   15MOL   C436 8304   8.115   6.389   2.714  0.3429 -0.4525  0.0062
   15MOL   C437 8305   8.058   6.483   2.620 -0.1467 -0.3075 -0.5560
   15MOL   C438 8306   8.056   6.623   2.649 -0.2623 -0.2439  0.2958
   15MOL   C439 8307   8.005   6.711   2.547  0.0557  0.3822  0.2892
   15MOL   H440 8308   7.931   6.483   2.307 -0.8246  1.9879 -0.0803
   15MOL   H441 8309   7.987   6.274   2.363 -1.4390  2.5269 -0.6685
   15MOL   H442 8310   8.073   6.110   2.519 -1.0690  0.7350 -1.5225
   15MOL   H443 8311   0.093   6.179   3.062  2.1020 -1.5878 -1.1606
   15MOL   H444 8312   0.053   6.032   2.975 -1.5799  0.9425 -4.8291
   15MOL   H445 8313   8.056   6.087   3.031 -0.8557  0.6539  0.6924
   15MOL   H446 8314   8.141   6.097   3.173  1.7655  0.2102 -0.7070
   15MOL   H447 8315   8.159   6.413   2.810  0.9294 -2.9601  0.4081
   15MOL   H448 8316   8.083   6.659   2.747  0.4028  0.9690 -0.3265
   15MOL   H449 8317   8.001   6.816   2.573  2.1807  0.5666  0.0064
   15MOL   O450 8318   8.233   6.328   3.247 -0.1063  0.3683 -0.0536
   15MOL   C451 8319   8.146   6.365   3.167  0.2491 -0.6467  0.3518
   15MOL   O452 8320   8.103   6.280   3.072  0.3885 -0.0486  0.2148
   15MOL   C453 8321   8.093   6.503   3.168 -0.2186  0.3742  1.6439
   15MOL   C454 8322   8.013   6.553   3.060 -0.6077  0.4262  0.5374
   15MOL   C455 8323   7.969   6.687   3.058  0.2430 -0.3237  0.4057
   15MOL   C456 8324   7.904   6.750   2.951  0.6896 -0.2701 -0.3439
   15MOL   C457 8325   7.878   6.886   2.952 -0.2300  0.0340  0.7423
   15MOL   C458 8326   7.901   6.962   3.071  0.0835 -0.4839  0.5585
   15MOL   C459 8327   7.850   7.101   3.087  0.6966  0.8458  0.1045
   15MOL   O460 8328   7.793   7.156   2.975 -0.1949  0.0901 -0.7797
   15MOL   C461 8329   7.750   7.291   2.974 -0.4272  0.9036  0.1084
   15MOL   C462 8330   7.866   7.383   2.973 -0.3086  0.7110 -0.1777
   15MOL   O463 8331   7.858   7.169   3.192 -0.9906  0.4309 -0.1118
   15MOL   C464 8332   7.961   6.906   3.179 -0.7024 -0.3679 -0.1789
   15MOL   C465 8333   7.998   6.769   3.166  0.0567  0.3005 -0.9992
   15MOL   C466 8334   8.070   6.727   3.272 -0.4129  0.7476  0.0761
   15MOL   C467 8335   8.130   6.597   3.269 -0.1545  0.3692  0.7990
   15MOL   H468 8336   8.005   6.485   2.977  2.5670  1.2861 -0.5651
   15MOL   H469 8337   7.879   6.686   2.867 -1.0061 -2.0041  1.4257
   15MOL   H470 8338   7.820   6.928   2.871 -2.3797  1.6381  2.9896
   15MOL   H471 8339   7.673   7.308   3.050 -0.5111 -2.5001  0.8507
   15MOL   H472 8340   7.685   7.299   2.887  0.9457 -1.0151 -1.1167
   15MOL   H473 8341   7.920   7.371   3.067 -1.3351 -0.7133  0.2427
   15MOL   H474 8342   7.912   7.351   2.881 -0.7393  0.1654 -0.2044
   15MOL   H475 8343   7.985   6.970   3.263 -0.8837 -0.1315 -0.3067
   15MOL   H476 8344   8.101   6.793   3.351 -2.1976  1.6544  0.0350
   15MOL   H477 8345   8.210   6.566   3.335 -0.6908 -0.4307  1.0773
   15MOL   O478 8346   7.707   7.559   3.135 -0.4767  0.1420 -0.6785
   15MOL   C479 8347   7.756   7.600   3.033  0.5360  0.1842 -0.5121
   15MOL   O480 8348   7.827   7.521   2.949 -0.5299 -0.0166 -0.8261
   15MOL   C481 8349   7.763   7.737   2.990  0.5408 -0.7496  0.9392
   15MOL   C482 8350   7.675   7.833   3.045 -0.2216 -0.3817 -0.1707
   15MOL   C483 8351   7.676   7.966   3.005  0.4143 -0.7307 -0.4621
   15MOL   C484 8352   7.591   8.056   3.077  0.7203 -0.1897  0.0690
   15MOL   C485 8353   7.601   8.193   3.049 -0.0941  0.6703  0.1122
   15MOL   C486 8354   7.684   8.237   2.949  0.0249 -0.3781 -0.1765
   15MOL   C487 8355   7.696   0.130   2.908 -0.1616  0.5612 -0.0678
   15MOL   O488 8356   7.570   0.189   2.924  0.1900  0.1208 -0.3587
   15MOL   C489 8357   7.553   0.331   2.892 -0.4039 -0.5843 -0.5514
   15MOL   C490 8358   7.401   0.379   2.914  0.3468  0.3537 -0.0140
   15MOL   O491 8359   7.796   0.184   2.858  0.2371  0.6567  0.2785
   15MOL   C492 8360   7.763   8.144   2.872  0.4418  0.3519  0.4619
   15MOL   C493 8361   7.764   8.007   2.903 -0.3449  0.1700  0.1232
   15MOL   C494 8362   7.855   7.917   2.848 -0.1797  0.1781 -0.1347
   15MOL   C495 8363   7.851   7.783   2.887  0.7117 -0.7510 -0.7822
   15MOL   H496 8364   7.603   7.799   3.118 -1.2471 -0.7167 -1.3000
   15MOL   H497 8365   7.537   8.026   3.166  0.4182  0.3460  0.0691
   15MOL   H498 8366   7.536   0.013   3.101 -2.2729 -0.7052 -0.7440
   15MOL   H499 8367   7.583   0.329   2.787 -0.3387  1.3811 -0.5851
   15MOL   H500 8368   7.619   0.394   2.952 -1.6517 -1.6726  2.0046
   15MOL   H501 8369   7.386   0.486   2.919 -1.3011  0.0873  1.2799
   15MOL   H502 8370   7.337   0.349   2.831  0.4125  1.7123 -0.5623
   15MOL   H503 8371   7.829   8.174   2.793 -0.8679  0.7297 -0.5085
   15MOL   H504 8372   7.921   7.953   2.770 -0.7577  1.0166 -0.2522
   15MOL   H505 8373   7.916   7.713   2.837  1.2003 -0.4920 -0.5105
   15MOL   O506 8374   7.481   0.479   3.154 -0.1453 -0.4294 -0.6031
   15MOL   C507 8375   7.400   0.388   3.150  0.0005  0.3410 -0.3914
   15MOL   O508 8376   7.349   0.334   3.042 -0.6226  0.3880  0.2363
   15MOL   C509 8377   7.360   0.319   3.273  0.2322  0.2392 -0.2477
   15MOL   C510 8378   7.429   0.346   3.396  0.1273 -0.2620  0.5265
   15MOL   C511 8379   7.396   0.294   3.516  0.0788 -0.2773 -0.0922
   15MOL   C512 8380   7.458   0.342   3.630 -0.7564  0.1276 -0.2483
   15MOL   C513 8381   7.422   0.291   3.754  0.2759  0.1894 -0.1213
   15MOL   C514 8382   7.315   0.202   3.767 -0.1892 -0.2867  0.7362
   15MOL   C515 8383   7.295   0.139   3.900  0.8197 -0.1388 -0.3414
   15MOL   O516 8384   7.402   0.155   3.982 -0.5553  0.4983 -0.4364
   15MOL   C517 8385   7.417   0.080   4.107  0.2315  0.4034  0.3715
   15MOL   C518 8386   7.461   0.180   4.221  0.7888  0.5826  0.3140
   15MOL   O519 8387   7.191   0.069   3.923  0.1653 -0.3981 -0.4449
   15MOL   C520 8388   7.250   0.146   3.649 -0.3949 -0.3681  0.2551
   15MOL   C521 8389   7.286   0.207   3.526 -0.0573  0.4679 -0.0324
   15MOL   C522 8390   7.223   0.168   3.406 -0.1869  0.6139 -0.4947
   15MOL   C523 8391   7.260   0.222   3.281 -0.1182  0.5299  0.1913
   15MOL   H524 8392   7.516   0.410   3.393 -0.5443  0.7153  1.3937
   15MOL   H525 8393   7.532   0.420   3.634 -1.9329  1.1791  2.4127
   15MOL   H526 8394   7.466   0.327   3.846  0.5875 -1.7119  0.4962
   15MOL   H527 8395   7.488   8.248   4.093 -1.7488 -1.5524  1.3797
   15MOL   H528 8396   7.325   0.027   4.133 -0.3713  1.0613 -0.3780
   15MOL   H529 8397   7.505   0.123   4.303 -1.9186 -0.7875  0.8928
   15MOL   H530 8398   7.526   0.259   4.183  3.1954 -0.9287  1.2349
   15MOL   H531 8399   7.179   0.066   3.654 -0.6409 -0.1029  1.0361
   15MOL   H532 8400   7.151   0.088   3.414  0.3775  0.1031 -0.5219
   15MOL   H533 8401   7.217   0.185   3.189 -1.3822 -0.1491  1.0451
   15MOL   O534 8402   7.510   0.363   4.406  0.1320  0.1439 -0.0053
   15MOL   C535 8403   7.393   0.329   4.387 -0.1722  0.4592 -0.4873
   15MOL   O536 8404   7.357   0.246   4.291  0.4250  0.2960  0.5674
   15MOL   C537 8405   7.293   0.370   4.486 -0.2847 -0.0715  0.0677
   15MOL   C538 8406   7.336   0.440   4.604 -0.2796  0.0626 -0.3235
   15MOL   C539 8407   7.236   0.480   4.701  0.0596  0.2912 -0.1983
   15MOL   C540 8408   7.279   0.545   4.817 -0.4457 -0.5099  0.1242
   15MOL   C541 8409   7.182   0.588   4.913 -0.1222 -0.4109 -0.3310
   15MOL   C542 8410   7.046   0.562   4.888  0.3730  0.2262 -0.0512
   15MOL   C543 8411   6.940   0.614   4.978 -0.0255 -0.0116  0.0865
   15MOL   O544 8412   6.993   0.654   5.092  0.2489 -0.4968  0.0637
   15MOL   C545 8413   6.915   0.674   5.213 -0.3590  0.0782  0.0715
   15MOL   C546 8414   6.963   0.567   5.311  0.2143 -0.0453 -0.1350
   15MOL   O547 8415   6.817   0.621   4.956 -0.0605 -0.1302 -0.8028
   15MOL   C548 8416   7.003   0.491   4.774  0.6998 -0.1124  0.4748
   15MOL   C549 8417   7.100   0.454   4.675  0.4258  0.1622  0.0414
   15MOL   C550 8418   7.056   0.387   4.559  0.0178  0.1643 -0.1012
   15MOL   C551 8419   7.155   0.344   4.463 -0.1157 -0.6355  0.6796
   15MOL   H552 8420   7.438   0.473   4.617  0.2912 -1.9422  0.5337
   15MOL   H553 8421   7.385   0.559   4.835 -0.7523  0.1833  1.4767
   15MOL   H554 8422   7.213   0.648   4.997 -2.9377  2.0844 -0.9815
   15MOL   H555 8423   6.808   0.662   5.197 -0.0314 -1.3643 -1.0716
   15MOL   H556 8424   6.944   0.769   5.257  1.1510 -1.1423  1.7912
   15MOL   H557 8425   6.927   0.566   5.414 -2.3927 -0.1435 -1.0224
   15MOL   H558 8426   7.072   0.562   5.308  0.2116 -0.3622  0.2344
   15MOL   H559 8427   6.898   0.468   4.758  0.5418  0.9756 -0.1552
   15MOL   H560 8428   6.953   0.378   4.530 -0.3975  1.3188  0.9970
   15MOL   H561 8429   7.123   0.295   4.372 -2.8603 -1.8959  2.2680
   15MOL   H562 8430   6.939   0.469   5.269  0.0956 -0.4550  0.8862
   16MOL     O1 8431   6.558   4.755   3.009  0.2730 -0.1475 -0.1728
   16MOL     C2 8432   6.602   4.818   2.910 -0.0654  0.4713  0.0417
   16MOL     O3 8433   6.570   4.791   2.780 -0.6977 -0.4580 -0.3206
   16MOL     C4 8434   6.667   4.953   2.929 -0.0848  0.6483  0.3677
   16MOL     C5 8435   6.698   5.040   2.822 -0.4370 -0.2705 -0.2297
   16MOL     C6 8436   6.757   5.159   2.847  0.1606  0.6733 -0.1946
   16MOL     C7 8437   6.782   5.245   2.741 -0.2776 -0.3163 -0.3906
   16MOL     C8 8438   6.841   5.369   2.759 -0.7546 -0.9202 -0.0500
   16MOL     C9 8439   6.891   5.400   2.885 -0.4011 -0.4027 -0.8947
   16MOL    C10 8440   6.959   5.529   2.919 -0.5035 -0.3730  0.5046
   16MOL    O11 8441   6.953   5.621   2.824 -0.4890 -0.8203 -0.8163
   16MOL    C12 8442   6.997   5.757   2.844 -0.1722  0.8645 -0.7113
   16MOL    C13 8443   7.016   5.821   2.705  0.7709 -0.5208 -0.0587
   16MOL    O14 8444   7.013   5.551   3.026 -0.2321 -0.0627  0.0900
   16MOL    C15 8445   6.867   5.313   2.992 -0.0489 -0.4620  0.1566
   16MOL    C16 8446   6.797   5.194   2.980 -1.5104  0.2482  0.4224
   16MOL    C17 8447   6.763   5.110   3.091  0.2497 -0.5031  0.3095
   16MOL    C18 8448   6.696   4.985   3.062 -0.0910  0.6971  0.0803
   16MOL    H19 8449   6.678   5.010   2.720  0.1745 -0.1299 -0.3955
   16MOL    H20 8450   6.756   5.220   2.639 -0.0674 -1.9929 -0.0531
   16MOL    H21 8451   6.859   5.437   2.677  0.6304 -0.9483  0.2181
   16MOL    H22 8452   6.925   5.809   2.907 -0.4965 -1.0653  0.5509
   16MOL    H23 8453   7.091   5.757   2.899 -0.9466  1.0508  0.6309
   16MOL    H24 8454   6.954   5.767   2.634 -0.0598  1.0709 -0.5632
   16MOL    H25 8455   6.974   5.921   2.711 -1.1904 -1.2478 -1.0312
   16MOL    H26 8456   6.888   5.341   3.094 -0.2611 -0.0561  0.0897
   16MOL    H27 8457   6.804   5.136   3.188 -0.6306  0.0669  0.5330
   16MOL    H28 8458   6.677   4.921   3.147 -0.7319 -0.8049 -1.1932
   16MOL    H29 8459   6.501   4.727   2.784 -1.3248  0.1658 -0.9588
   16MOL    O30 8460   7.151   5.642   2.546  0.0841 -0.1266 -0.2035
   16MOL    C31 8461   7.203   5.743   2.589  0.2912  0.2054  0.1144
   16MOL    O32 8462   7.150   5.831   2.666  0.2475  0.3716  0.2257
   16MOL    C33 8463   7.335   5.797   2.544 -0.5146  0.1505  0.4535
   16MOL    C34 8464   7.378   5.781   2.414 -0.8723  0.0354  0.0398
   16MOL    C35 8465   7.506   5.823   2.368 -0.4975  0.6588  0.3063
   16MOL    C36 8466   7.538   5.822   2.234  1.0526 -0.3134  0.5163
   16MOL    C37 8467   7.669   5.847   2.193  0.1412  0.5400 -0.4108
   16MOL    C38 8468   7.762   5.893   2.288 -0.1269 -0.6771  0.0493
   16MOL    C39 8469   7.898   5.936   2.245 -0.2004 -0.6100  0.2658
   16MOL    O40 8470   7.894   5.962   2.115 -0.2639  0.4907 -0.0216
   16MOL    C41 8471   8.016   5.994   2.051 -0.2247  0.2178 -1.0508
   16MOL    C42 8472   7.997   5.967   1.905  0.1500  0.0706 -0.2336
   16MOL    O43 8473   7.990   5.949   2.327 -0.1199  0.3455  0.0123
   16MOL    C44 8474   7.729   5.901   2.424  0.4551 -0.0308  0.5774
   16MOL    C45 8475   7.597   5.867   2.460 -0.1430 -0.1500 -0.1035
   16MOL    C46 8476   7.567   5.870   2.601 -0.3145 -0.3427 -0.3158
   16MOL    C47 8477   7.437   5.839   2.641  0.1188  0.5715  0.4977
   16MOL    H48 8478   7.312   5.741   2.338  2.7297 -0.8642 -2.7556
   16MOL    H49 8479   7.464   5.784   2.165  0.7934  0.4375  0.3827
   16MOL    H50 8480   7.704   5.831   2.092 -0.6806 -0.5836 -0.5280
   16MOL    H51 8481   8.101   5.945   2.097  0.4012  1.5259 -0.7787
   16MOL    H52 8482   8.045   6.095   2.083 -0.4899 -0.0240 -0.0520
   16MOL    H53 8483   8.094   5.954   1.857 -0.6029  0.4451 -1.8919
   16MOL    H54 8484   7.949   5.870   1.896 -1.0704  0.7165 -0.8057
   16MOL    H55 8485   7.801   5.937   2.495 -1.0627  1.9410  1.1900
   16MOL    H56 8486   7.642   5.892   2.675 -0.3263  1.9974 -0.9582
   16MOL    H57 8487   7.414   5.827   2.746 -0.8068 -1.3907  0.1009
   16MOL    O58 8488   8.082   6.189   1.790 -0.2406 -0.1724 -1.0802
   16MOL    C59 8489   7.962   6.172   1.798  0.5275  0.4401  0.0543
   16MOL    O60 8490   7.906   6.061   1.842 -0.0799  0.5273 -0.3029
   16MOL    C61 8491   7.856   6.265   1.748  0.4465 -0.2324 -0.9863
   16MOL    C62 8492   7.718   6.226   1.738 -0.8331  0.3574 -0.6570
   16MOL    C63 8493   7.627   6.317   1.678  0.1875 -0.7896 -0.0329
   16MOL    C64 8494   7.498   6.275   1.650 -0.0970  0.4246 -0.3347
   16MOL    C65 8495   7.396   6.367   1.613 -0.0730  0.1760  0.7593
   16MOL    C66 8496   7.431   6.501   1.581 -0.3283  0.5412 -0.3190
   16MOL    C67 8497   7.323   6.594   1.525 -0.0939  0.2264  0.1649
   16MOL    O68 8498   7.196   6.539   1.540  0.5500  0.8166 -0.7053
   16MOL    C69 8499   7.091   6.583   1.456  0.1137  0.5997  0.1779
   16MOL    C70 8500   7.105   6.551   1.310 -0.4244  0.0916  0.3417
   16MOL    O71 8501   7.344   6.698   1.470 -0.2594 -0.0199  0.6122
   16MOL    C72 8502   7.565   6.538   1.594 -0.0745 -0.1100 -0.2980
   16MOL    C73 8503   7.666   6.451   1.643  0.1001  0.5363 -0.0753
   16MOL    C74 8504   7.795   6.490   1.660 -0.5836  0.3167  0.7338
   16MOL    C75 8505   7.892   6.395   1.704  0.1373  0.2361  0.2056
   16MOL    H76 8506   7.692   6.123   1.757  0.7585  0.1627  0.6025
   16MOL    H77 8507   7.466   6.177   1.681  0.4036  0.4791  0.3684
   16MOL    H78 8508   7.292   6.340   1.621 -0.1270  0.4383  0.9684
   16MOL    H79 8509   7.078   6.691   1.461  3.6489  1.0532  0.9879
   16MOL    H80 8510   6.999   6.530   1.481  2.1382 -2.7018  0.8057
   16MOL    H81 8511   7.021   6.596   1.256  0.2119  1.4110  0.4466
   16MOL    H82 8512   7.192   6.608   1.278  0.7551 -0.4483  2.5247
   16MOL    H83 8513   7.590   6.641   1.572  1.4642 -0.2707  0.6235
   16MOL    H84 8514   7.830   6.588   1.632 -0.5357 -0.1853 -1.0388
   16MOL    H85 8515   7.996   6.417   1.723  0.6389 -1.8616 -0.0360
   16MOL    O86 8516   6.904   6.393   1.300  0.5045 -0.3370  0.0196
   16MOL    C87 8517   7.017   6.336   1.290 -0.0646  0.4911  0.1098
   16MOL    O88 8518   7.128   6.411   1.296  0.4414 -0.1117 -0.2163
   16MOL    C89 8519   7.033   6.192   1.328 -0.2340 -0.1821  0.7833
   16MOL    C90 8520   7.157   6.143   1.375  0.3954  0.7563 -0.7357
   16MOL    C91 8521   7.160   6.008   1.423  0.6415  0.0420  0.6056
   16MOL    C92 8522   7.281   5.951   1.481  0.7407  0.1950  0.0318
   16MOL    C93 8523   7.276   5.815   1.521  0.7395  0.8616  0.1059
   16MOL    C94 8524   7.160   5.736   1.499  0.7404 -0.6424  0.1806
   16MOL    C95 8525   7.149   5.586   1.518 -0.1768  0.3639  0.1866
   16MOL    O96 8526   7.267   5.528   1.552  0.2401  0.4291  0.3602
   16MOL    C97 8527   7.283   5.388   1.523  0.1085  0.2004  0.2951
   16MOL    C98 8528   7.213   5.299   1.620  0.0693 -0.2994  0.3133
   16MOL    O99 8529   7.046   5.525   1.492  0.1881  0.5887 -0.0113
   16MOL   C100 8530   7.040   5.798   1.457 -0.3392 -0.1747  0.4357
   16MOL   C101 8531   7.039   5.935   1.415  0.2700  0.2833  0.9344
   16MOL   C102 8532   6.916   5.988   1.371  0.4445  0.1500  0.1419
   16MOL   C103 8533   6.925   6.113   1.319  0.9231 -0.2442  0.0935
   16MOL   H104 8534   7.242   6.209   1.386  0.6171  0.5859 -1.4641
   16MOL   H105 8535   7.368   6.014   1.495 -0.3856  1.2331  2.5418
   16MOL   H106 8536   7.362   5.759   1.555 -0.0861 -0.1508  0.5991
   16MOL   H107 8537   7.391   5.378   1.539  0.4215  2.7030 -0.1072
   16MOL   H108 8538   7.273   5.345   1.423  1.5262 -0.7331  0.5386
   16MOL   H109 8539   7.140   5.361   1.672 -1.0626 -3.6781  3.0014
   16MOL   H110 8540   7.150   5.232   1.562  1.4680 -0.6387 -0.8347
   16MOL   H111 8541   6.951   5.738   1.443  0.0483 -0.7007  0.2256
   16MOL   H112 8542   6.823   5.934   1.380 -1.3182  2.9171 -1.0768
   16MOL   H113 8543   6.833   6.149   1.276  0.9096  1.9981  1.9046
   16MOL   O114 8544   7.377   5.404   1.817 -0.1127  0.0844 -0.2231
   16MOL   C115 8545   7.370   5.283   1.804  0.2758  0.3363 -0.2011
   16MOL   O116 8546   7.293   5.224   1.705 -0.1541  0.1231 -0.2019
   16MOL   C117 8547   7.448   5.189   1.885  0.2143 -0.0347 -0.3555
   16MOL   C118 8548   7.418   5.048   1.903  0.1267 -1.3380 -1.0665
   16MOL   C119 8549   7.509   4.970   1.976 -0.2573  0.7208  0.4459
   16MOL   C120 8550   7.485   4.831   1.997  0.0213  1.1646  0.1588
   16MOL   C121 8551   7.575   4.752   2.072  0.3325 -0.3523 -0.1006
   16MOL   C122 8552   7.692   4.804   2.120  0.2063  0.4828 -0.0513
   16MOL   C123 8553   7.798   4.721   2.187  0.4552 -0.3417  0.0129
   16MOL   O124 8554   7.782   4.589   2.179  0.4160 -0.1650 -0.4981
   16MOL   C125 8555   7.867   4.499   2.255  0.1685 -0.3427 -0.2486
   16MOL   C126 8556   8.011   4.478   2.199 -1.0664  0.6328 -0.2122
   16MOL   O127 8557   7.898   4.773   2.235 -0.2167 -0.1606  0.0553
   16MOL   C128 8558   7.716   4.942   2.098  0.2741  0.6678 -0.2991
   16MOL   C129 8559   7.630   5.022   2.025 -0.1737 -0.4422 -0.4836
   16MOL   C130 8560   7.655   5.159   1.998  0.0592 -0.2607  0.0693
   16MOL   C131 8561   7.564   5.246   1.936 -0.6585 -0.1497 -0.5725
   16MOL   H132 8562   7.345   4.989   1.850  0.0444 -0.8488 -1.4923
   16MOL   H133 8563   7.404   4.774   1.955  1.2132 -1.6411  1.5900
   16MOL   H134 8564   7.563   4.646   2.058  1.7264 -0.4727 -0.4573
   16MOL   H135 8565   7.821   4.401   2.245 -0.1795 -0.5771  2.9814
   16MOL   H136 8566   7.857   4.530   2.359 -1.3216  1.0845 -0.7914
   16MOL   H137 8567   8.058   4.393   2.248  0.7831  1.9020  0.2559
   16MOL   H138 8568   7.999   4.456   2.093  2.3724  4.2554 -1.4642
   16MOL   H139 8569   7.815   4.971   2.129 -0.1930  1.3539  0.5732
   16MOL   H140 8570   7.739   5.207   2.047  2.3317 -2.1226 -1.8557
   16MOL   H141 8571   7.587   5.350   1.920 -0.3743 -0.2441 -0.7882
   16MOL   O142 8572   0.025   4.469   2.169  0.6590 -0.4932 -0.1917
   16MOL   C143 8573   8.231   4.577   2.208 -0.1618  0.2200 -0.7967
   16MOL   O144 8574   8.097   4.592   2.217  0.1048  0.0889  0.6051
   16MOL   C145 8575   0.056   4.697   2.256 -0.0800  0.0096 -0.1208
   16MOL   C146 8576   0.198   4.689   2.240 -0.3405  0.2139  0.6017
   16MOL   C147 8577   0.279   4.792   2.286  0.5583 -0.9499 -0.0466
   16MOL   C148 8578   0.420   4.789   2.261  0.4931  0.5501  0.0923
   16MOL   C149 8579   0.504   4.894   2.312 -0.2356  0.1322 -0.3106
   16MOL   C150 8580   0.440   4.998   2.386  0.6614 -0.1096  0.4971
   16MOL   C151 8581   0.530   5.110   2.436  0.5519 -0.2216  0.0843
   16MOL   O152 8582   0.465   5.205   2.521 -0.2998  0.1073  0.5778
   16MOL   C153 8583   0.537   5.311   2.575 -0.0652 -0.1018  0.1406
   16MOL   C154 8584   0.607   5.400   2.475 -0.1157 -0.0184 -0.4060
   16MOL   O155 8585   0.651   5.119   2.420 -0.1195  0.8768  0.1331
   16MOL   C156 8586   0.301   5.003   2.393  0.3458 -0.2021  0.0396
   16MOL   C157 8587   0.213   4.903   2.354 -0.3594  0.3976 -0.1453
   16MOL   C158 8588   0.073   4.911   2.366  0.0199  0.5245  0.0500
   16MOL   C159 8589   8.241   4.811   2.308 -0.1580 -0.7005  0.7588
   16MOL   H160 8590   0.241   4.598   2.199 -0.4824  0.9437 -1.2177
   16MOL   H161 8591   0.464   4.704   2.211  1.6083  0.8940  0.4772
   16MOL   H162 8592   0.608   4.890   2.283 -0.1514  1.1543 -0.1592
   16MOL   H163 8593   0.610   5.273   2.647 -0.9548 -2.0117  0.0449
   16MOL   H164 8594   0.459   5.367   2.627  1.6730  1.1771  1.4341
   16MOL   H165 8595   0.716   5.390   2.478 -0.1366 -0.5766 -1.3594
   16MOL   H166 8596   0.573   5.380   2.374  1.0491 -0.1066 -0.7834
   16MOL   H167 8597   0.243   5.083   2.436 -1.0674  0.1053 -2.3503
   16MOL   H168 8598   0.020   4.999   2.400 -0.0969  0.5381 -0.1659
   16MOL   H169 8599   8.134   4.821   2.298 -0.0340  1.1889  1.1359
   16MOL   O170 8600   0.358   5.533   2.395 -0.6013  0.4976 -0.0374
   16MOL   C171 8601   0.443   5.588   2.470  0.1483  0.1854 -0.0423
   16MOL   O172 8602   0.566   5.532   2.510  0.1117  0.5547  0.3656
   16MOL   C173 8603   0.417   5.721   2.538  0.0749  0.6998 -0.2138
   16MOL   C174 8604   0.520   5.786   2.612 -0.4302 -0.1766  0.0925
   16MOL   C175 8605   0.494   5.911   2.676 -0.4358 -1.0058  0.0434
   16MOL   C176 8606   0.591   5.979   2.749 -0.1852  0.2564  0.0561
   16MOL   C177 8607   0.566   6.104   2.802 -0.3362 -0.3530 -0.8136
   16MOL   C178 8608   0.435   6.156   2.802 -0.6029 -0.3205 -0.1310
   16MOL   C179 8609   0.413   6.295   2.867 -0.0179  0.2455 -0.3194
   16MOL   O180 8610   0.288   6.340   2.861  0.1685  0.1538  0.3895
   16MOL   C181 8611   0.256   6.473   2.888 -0.1135 -0.4643  0.4521
   16MOL   C182 8612   0.335   6.578   2.795  0.0984  0.2971 -0.3955
   16MOL   O183 8613   0.503   6.355   2.933  0.3825 -0.1252  0.3024
   16MOL   C184 8614   0.341   6.082   2.737  0.4099 -0.7995  0.6171
   16MOL   C185 8615   0.369   5.971   2.667  0.2164 -0.4158 -0.6438
   16MOL   C186 8616   0.270   5.905   2.586  0.1434  0.6518  0.0306
   16MOL   C187 8617   0.290   5.779   2.525  0.3337 -0.3523  0.3727
   16MOL   H188 8618   0.619   5.744   2.624  0.5150  2.1251  0.6891
   16MOL   H189 8619   0.690   5.938   2.761 -1.0635 -1.5463  1.4462
   16MOL   H190 8620   0.641   6.166   2.849 -0.7653  0.0241 -0.6257
   16MOL   H191 8621   0.277   6.498   2.992 -0.8935  0.6684  0.3410
   16MOL   H192 8622   0.149   6.486   2.874  0.3064  1.1179 -1.5340
   16MOL   H193 8623   0.273   6.666   2.810  1.4077  1.2071 -0.2195
   16MOL   H194 8624   0.430   6.610   2.838 -0.0821 -1.3326  1.2677
   16MOL   H195 8625   0.239   6.118   2.734  0.1808 -1.5136 -0.1240
   16MOL   H196 8626   0.172   5.950   2.578 -1.0314 -1.8068  0.1539
   16MOL   H197 8627   0.217   5.725   2.466 -0.5501  0.3087  0.8490
   16MOL   O198 8628   0.123   6.590   2.622 -0.1565 -0.0800  0.0175
   16MOL   C199 8629   0.226   6.533   2.586 -0.3130 -0.0775  0.1244
   16MOL   O200 8630   0.342   6.533   2.657  0.6062 -0.4227  0.1901
   16MOL   C201 8631   0.234   6.454   2.465 -0.0402  0.4695 -0.2923
   16MOL   C202 8632   0.123   6.438   2.374 -0.1249 -0.0139  1.0748
   16MOL   C203 8633   0.143   6.355   2.263 -0.0479  0.1070 -0.3576
   16MOL   C204 8634   0.034   6.337   2.174 -0.3198  0.3190 -0.2771
   16MOL   C205 8635   0.051   6.258   2.062  0.3384 -0.4158 -0.3375
   16MOL   C206 8636   0.179   6.208   2.024 -0.5292  0.0691  0.0965
   16MOL   C207 8637   0.187   6.139   1.896  0.1661  0.0886 -0.0998
   16MOL   O208 8638   0.298   6.187   1.829  0.2535 -0.2577 -0.6712
   16MOL   C209 8639   0.332   6.135   1.697 -0.7326  0.6730  0.7085
   16MOL   C210 8640   0.474   6.073   1.696  0.3447 -0.1640 -1.0388
   16MOL   O211 8641   0.103   6.053   1.864 -0.1910  0.0194  0.3434
   16MOL   C212 8642   0.290   6.237   2.109 -0.3749  0.0328  0.0065
   16MOL   C213 8643   0.270   6.306   2.228 -0.4710  0.0458  0.1683
   16MOL   C214 8644   0.375   6.313   2.321 -0.3825 -0.5880  0.8231
   16MOL   C215 8645   0.359   6.394   2.433  0.4977 -0.2586 -0.0453
   16MOL   H216 8646   0.034   6.497   2.391  0.7241  0.2093  5.2228
   16MOL   H217 8647   8.185   6.375   2.197  0.0433  1.3539 -0.4012
   16MOL   H218 8648   8.217   6.241   1.995 -0.8371  3.0161  0.1766
   16MOL   H219 8649   0.329   6.209   1.617  0.4523 -0.7724 -0.7178
   16MOL   H220 8650   0.257   6.061   1.667 -0.4298  0.1042  1.3442
   16MOL   H221 8651   0.481   6.012   1.786  0.6807  0.7572 -0.4338
   16MOL   H222 8652   0.498   6.015   1.607  0.5035 -3.6077  1.1543
   16MOL   H223 8653   0.392   6.206   2.094  0.1909  0.8394  2.0639
   16MOL   H224 8654   0.468   6.264   2.296 -1.0792 -0.9754 -1.1253
   16MOL   H225 8655   0.447   6.394   2.496  1.9414 -1.1971 -2.0243
   16MOL   O226 8656   0.653   6.237   1.517  0.1475 -0.1132 -0.3163
   16MOL   C227 8657   0.643   6.256   1.639 -0.5271  0.5151 -0.5896
   16MOL   O228 8658   0.568   6.179   1.732  0.7103 -0.0604  0.2851
   16MOL   C229 8659   0.722   6.360   1.708  0.6537  0.1415  0.2403
   16MOL   C230 8660   0.700   6.391   1.846  0.0996  0.1552  0.5922
   16MOL   C231 8661   0.790   6.476   1.911 -0.4171  0.3847 -0.6427
   16MOL   C232 8662   0.767   6.513   2.047 -0.3579  0.2049  0.1396
   16MOL   C233 8663   0.843   6.609   2.116 -0.2281 -0.5168 -0.7683
   16MOL   C234 8664   0.962   6.661   2.055  0.0648  0.0959 -0.1319
   16MOL   C235 8665   1.067   6.736   2.126  0.1892  0.1191  0.0331
   16MOL   O236 8666   1.176   6.757   2.050 -0.1755  0.2201  0.0948
   16MOL   C237 8667   1.294   6.809   2.117  0.0416 -0.3106 -0.1293
   16MOL   C238 8668   1.353   6.920   2.034  0.6121 -0.6889  0.4270
   16MOL   O239 8669   1.057   6.753   2.247 -0.2227  0.0557  0.2555
   16MOL   C240 8670   0.985   6.628   1.915  0.0400  0.2458  0.2281
   16MOL   C241 8671   0.896   6.541   1.845 -0.0932 -0.8919  0.0434
   16MOL   C242 8672   0.916   6.507   1.709  0.3349 -0.5412  0.1727
   16MOL   C243 8673   0.830   6.422   1.641  0.4070  0.9593 -0.4104
   16MOL   H244 8674   0.631   6.336   1.908 -1.0085  0.2142 -0.5696
   16MOL   H245 8675   0.692   6.474   2.114 -0.5856  1.1876  0.4592
   16MOL   H246 8676   0.818   6.637   2.217  0.7132  1.7616 -1.1267
   16MOL   H247 8677   1.372   6.734   2.103 -0.8971 -1.1646 -0.8559
   16MOL   H248 8678   1.297   6.816   2.226  2.8436  0.4128 -0.2115
   16MOL   H249 8679   1.457   6.938   2.061  0.2580  0.9457  0.7846
   16MOL   H250 8680   1.344   6.897   1.928  0.7776  1.6747 -0.1368
   16MOL   H251 8681   1.072   6.656   1.858  1.7824 -1.7324  1.8715
   16MOL   H252 8682   1.007   6.530   1.656 -0.4721 -0.0416 -1.0268
   16MOL   H253 8683   0.856   6.390   1.541  2.2512  2.4059 -0.4338
   16MOL   O254 8684   1.445   7.176   2.075 -0.3424 -0.6871 -0.7385
   16MOL   C255 8685   1.325   7.158   2.096 -0.0409  0.3328  0.2668
   16MOL   O256 8686   1.272   7.039   2.070  0.2057  0.0428 -0.5768
   16MOL   C257 8687   1.233   7.258   2.158 -0.7492  0.2815 -0.5016
   16MOL   C258 8688   1.092   7.245   2.151 -0.2202 -0.4017 -0.2395
   16MOL   C259 8689   1.009   7.327   2.225 -0.1446 -0.6770 -0.3697
   16MOL   C260 8690   0.868   7.311   2.223 -0.7046  0.1251 -0.4762
   16MOL   C261 8691   0.780   7.399   2.293 -0.1413 -0.4511  0.8827
   16MOL   C262 8692   0.835   7.509   2.364 -1.3756 -0.1424 -0.4129
   16MOL   C263 8693   0.743   7.607   2.425  0.7058  0.9532 -0.4051
   16MOL   O264 8694   0.799   7.729   2.444 -0.0578 -0.3985  0.3170
   16MOL   C265 8695   0.742   7.827   2.519  0.5504  0.3786  0.4975
   16MOL   C266 8696   0.805   7.827   2.661 -0.6296  0.0767 -0.2283
   16MOL   O267 8697   0.625   7.573   2.452  0.1963  0.0983 -0.0079
   16MOL   C268 8698   0.973   7.533   2.354 -0.5731  0.7779 -0.5359
   16MOL   C269 8699   1.062   7.439   2.292 -0.2245 -0.7842  0.2022
   16MOL   C270 8700   1.200   7.461   2.291 -0.5541  0.1649 -0.3009
   16MOL   C271 8701   1.291   7.373   2.223  0.5257  0.3930 -0.2905
   16MOL   H272 8702   1.066   7.154   2.099  0.9071 -0.9476  0.1378
   16MOL   H273 8703   0.825   7.227   2.171  1.3603 -0.3158 -1.4796
   16MOL   H274 8704   0.675   7.375   2.297  0.0864 -2.0774 -1.7508
   16MOL   H275 8705   0.633   7.817   2.529  0.7159 -0.1536  1.8941
   16MOL   H276 8706   0.784   7.918   2.475  1.0011 -0.3810 -0.6656
   16MOL   H277 8707   0.913   7.827   2.666 -0.6168  1.2383 -0.4342
   16MOL   H278 8708   0.770   7.919   2.707  3.7340  0.4624  2.5178
   16MOL   H279 8709   1.018   7.624   2.391  0.5546  0.0167  0.0074
   16MOL   H280 8710   1.244   7.542   2.346 -0.7761  0.4471 -0.5389
   16MOL   H281 8711   1.398   7.384   2.235  0.4266 -1.4701  2.7005
   16MOL   O282 8712   0.805   7.826   2.929  0.1464 -0.2161  0.0270
   16MOL   C283 8713   0.750   7.729   2.876 -0.7001 -0.1724  0.2924
   16MOL   O284 8714   0.757   7.715   2.739  0.9203 -0.2900  0.7078
   16MOL   C285 8715   0.706   7.600   2.955 -0.4235  0.4342  0.1861
   16MOL   C286 8716   0.734   7.591   3.091 -0.9737 -0.1090 -0.0453
   16MOL   C287 8717   0.688   7.484   3.175 -0.2418 -1.1819 -0.0993
   16MOL   C288 8718   0.719   7.475   3.313 -0.2103 -1.2366  0.4923
   16MOL   C289 8719   0.682   7.363   3.390 -0.0301 -0.1047  0.2144
   16MOL   C290 8720   0.618   7.255   3.327  0.3576 -0.1280 -0.1687
   16MOL   C291 8721   0.602   7.126   3.399  0.0349  0.2438 -0.2748
   16MOL   O292 8722   0.595   7.027   3.312 -0.1159  0.0939  0.1913
   16MOL   C293 8723   0.571   6.895   3.362  0.0851  0.0110 -0.0124
   16MOL   C294 8724   0.420   6.867   3.366  0.6819  0.9672  0.1950
   16MOL   O295 8725   0.589   7.114   3.523  0.0634 -0.0000 -0.0961
   16MOL   C296 8726   0.584   7.268   3.191 -0.8911 -0.3975 -0.6084
   16MOL   C297 8727   0.608   7.386   3.116  0.4187 -0.3714  0.9756
   16MOL   C298 8728   0.574   7.406   2.975  0.0206  0.1182  0.2513
   16MOL   C299 8729   0.623   7.507   2.897  0.3707 -0.5825 -0.1951
   16MOL   H300 8730   0.798   7.665   3.137 -0.8059 -0.0723 -0.3373
   16MOL   H301 8731   0.770   7.554   3.366  0.0084 -0.3044 -1.0792
   16MOL   H302 8732   0.704   7.359   3.496  0.5728 -0.9340  0.0613
   16MOL   H303 8733   0.631   6.885   3.452 -0.5525  0.3197  0.4441
   16MOL   H304 8734   0.612   6.818   3.296  2.1045  0.9027  0.1619
   16MOL   H305 8735   0.394   6.766   3.399 -0.0182  1.1692  0.2583
   16MOL   H306 8736   0.377   6.935   3.440 -0.1128  0.9641 -0.2560
   16MOL   H307 8737   0.528   7.189   3.143 -0.2579 -2.1772  1.5199
   16MOL   H308 8738   0.503   7.337   2.932 -1.3429  2.2445 -0.9747
   16MOL   H309 8739   0.600   7.507   2.792  0.6011  0.6552 -0.2552
   16MOL   O310 8740   0.162   6.901   3.320 -0.2745  0.0966 -0.3037
   16MOL   C311 8741   0.236   6.914   3.222  0.0610  0.4028  0.7635
   16MOL   O312 8742   0.368   6.896   3.241 -0.2948 -0.4110  0.1273
   16MOL   C313 8743   0.201   6.921   3.081  0.0954 -0.8373 -0.5754
   16MOL   C314 8744   0.293   6.919   2.981 -0.5229  0.0281 -0.0594
   16MOL   C315 8745   0.248   6.916   2.846  0.1691 -0.3886 -0.1498
   16MOL   C316 8746   0.338   6.899   2.740  0.2386 -0.3854 -0.0906
   16MOL   C317 8747   0.293   6.896   2.604 -0.2303  0.2323 -1.2774
   16MOL   C318 8748   0.159   6.914   2.574 -0.5547 -0.5404  0.0014
   16MOL   C319 8749   0.120   6.929   2.428  0.1364  0.3457  0.0408
   16MOL   O320 8750   0.225   6.916   2.344  0.0868  0.6391 -0.1847
   16MOL   C321 8751   0.211   6.961   2.215 -0.4421 -0.5704 -0.1193
   16MOL   C322 8752   0.161   6.842   2.119 -0.1942  1.0189 -0.1852
   16MOL   O323 8753   0.006   6.964   2.399  0.4403 -0.4289 -0.2787
   16MOL   C324 8754   0.065   6.932   2.681 -0.6201 -0.8185 -0.4051
   16MOL   C325 8755   0.112   6.935   2.817  0.9712 -0.2261 -0.3075
   16MOL   C326 8756   0.020   6.949   2.922 -0.1600 -0.2549 -0.0487
   16MOL   C327 8757   0.058   6.941   3.057 -0.6453  0.3919 -0.0713
   16MOL   H328 8758   0.397   6.906   3.008 -0.6965  0.3898  0.8107
   16MOL   H329 8759   0.443   6.881   2.762 -0.2166 -3.1321 -0.0722
   16MOL   H330 8760   0.361   6.871   2.524  1.2330  2.2305 -0.7047
   16MOL   H331 8761   0.311   6.973   2.175 -1.0529 -2.4617 -2.3082
   16MOL   H332 8762   0.157   7.055   2.205  0.7606  0.1159 -0.1670
   16MOL   H333 8763   0.222   6.752   2.130  1.0354  1.9429  0.8338
   16MOL   H334 8764   0.057   6.821   2.142 -0.3189 -1.2224 -2.5318
   16MOL   H335 8765   8.208   6.939   2.664 -0.5545  0.6193 -0.2715
   16MOL   H336 8766   8.164   6.952   2.898 -0.1722 -1.8107 -0.1980
   16MOL   H337 8767   8.236   6.946   3.138  1.6932 -0.0549  2.0815
   16MOL   O338 8768   0.030   7.049   1.986  0.0384 -0.1041  0.3463
   16MOL   C339 8769   0.113   6.979   1.929 -0.5931  0.5829 -0.0175
   16MOL   O340 8770   0.184   6.879   1.979  0.1900  0.4941  0.3381
   16MOL   C341 8771   0.138   7.006   1.787 -0.5612 -0.5889  0.1561
   16MOL   C342 8772   0.083   7.114   1.719 -0.5205 -0.9243 -0.1209
   16MOL   C343 8773   0.113   7.146   1.587 -0.0618  0.5020 -0.2196
   16MOL   C344 8774   0.049   7.256   1.520 -0.2308  0.0836 -0.2111
   16MOL   C345 8775   0.073   7.286   1.385  1.0104 -0.4856  0.1146
   16MOL   C346 8776   0.155   7.200   1.313 -0.3941 -0.2083 -0.0092
   16MOL   C347 8777   0.182   7.223   1.166 -0.6356 -0.0433 -0.1596
   16MOL   O348 8778   0.116   7.332   1.114  0.5856  0.5162 -1.0425
   16MOL   C349 8779   0.124   7.372   0.981 -0.7248 -0.6244 -0.8051
   16MOL   C350 8780   8.238   7.425   0.933 -0.2320  0.3064 -0.0644
   16MOL   O351 8781   0.252   7.143   1.099 -0.0077 -0.3204  0.7809
   16MOL   C352 8782   0.214   7.089   1.377 -0.1290 -0.6497 -0.4771
   16MOL   C353 8783   0.199   7.063   1.515 -0.7033  0.3650  0.8607
   16MOL   C354 8784   0.253   6.945   1.576  0.3653  0.8059 -0.8195
   16MOL   C355 8785   0.227   6.924   1.717  0.2440  0.3407  0.3410
   16MOL   H356 8786   0.017   7.190   1.760 -0.0619 -0.3847 -0.3808
   16MOL   H357 8787   8.244   7.332   1.575 -0.1792 -0.7952  1.0612
   16MOL   H358 8788   0.014   7.366   1.343  1.5475 -0.8830 -1.4321
   16MOL   H359 8789   0.154   7.285   0.923 -0.8189 -1.3157  0.1570
   16MOL   H360 8790   0.210   7.437   0.967 -0.6960 -0.3511  0.5678
   16MOL   H361 8791   0.002   7.422   0.825  1.3700 -3.8524  0.1550
   16MOL   H362 8792   8.153   7.365   0.965  1.3904 -0.8585  2.2643
   16MOL   H363 8793   0.260   7.009   1.321  0.2068 -0.7722 -0.0299
   16MOL   H364 8794   0.314   6.874   1.521 -0.7431 -0.3884 -0.5437
   16MOL   H365 8795   0.253   6.825   1.751 -1.0136  0.5544  1.9335
   16MOL   O366 8796   8.141   7.500   1.178  0.0900  0.2954  0.1233
   16MOL   C367 8797   8.173   7.587   1.097 -0.0066  0.0419 -1.6666
   16MOL   O368 8798   8.204   7.556   0.970 -0.0317 -0.4597  0.3568
   16MOL   C369 8799   8.197   7.732   1.129  0.2544 -0.4368  0.5059
   16MOL   C370 8800   8.142   7.783   1.246  0.4083 -0.2179 -0.1267
   16MOL   C371 8801   8.150   7.920   1.279  0.3052 -0.5698  0.5254
   16MOL   C372 8802   8.099   7.970   1.402 -0.7170 -0.1420 -0.6505
   16MOL   C373 8803   8.113   8.108   1.430 -0.1961  0.0219  0.2167
   16MOL   C374 8804   8.164   8.196   1.332 -0.5968  0.3437 -0.8485
   16MOL   C375 8805   8.178   0.098   1.358 -0.6184  0.2897  0.4564
   16MOL   O376 8806   8.144   0.133   1.481  0.5869  0.1369 -0.7156
   16MOL   C377 8807   8.175   0.259   1.540  0.0929  0.2486  0.3369
   16MOL   C378 8808   8.093   0.384   1.485  0.0937 -0.5951  0.2133
   16MOL   O379 8809   8.229   0.178   1.274  0.7944 -0.0271 -0.3096
   16MOL   C380 8810   8.217   8.143   1.215 -0.0030 -0.3162  0.2597
   16MOL   C381 8811   8.207   8.007   1.184  0.1182 -0.0027  0.0778
   16MOL   C382 8812   0.019   7.956   1.066  0.9721 -0.3623 -0.1376
   16MOL   C383 8813   0.011   7.821   1.038 -0.6165 -0.3359  0.0958
   16MOL   H384 8814   8.091   7.722   1.319 -0.0691 -1.2728 -1.3340
   16MOL   H385 8815   8.049   7.903   1.471  2.1579 -3.2886 -1.5143
   16MOL   H386 8816   8.078   8.152   1.523 -3.4819 -1.1868 -0.3943
   16MOL   H387 8817   0.029   0.284   1.515  0.3248  0.2930  1.3311
   16MOL   H388 8818   8.186   0.248   1.648  0.1716  0.6867  0.3779
   16MOL   H389 8819   8.130   0.480   1.522 -0.9004 -0.3784  0.6708
   16MOL   H390 8820   8.109   0.372   1.378 -3.0629 -2.9361 -0.0572
   16MOL   H391 8821   0.013   8.200   1.135 -1.6142  0.7107  0.0616
   16MOL   H392 8822   0.069   8.021   0.996 -0.2459 -0.5125 -1.1705
   16MOL   H393 8823   0.070   7.779   0.957 -0.1288  1.7054 -0.6474
   16MOL   O394 8824   7.965   0.368   1.730 -0.3664  0.2113 -0.0672
   16MOL   C395 8825   7.905   0.404   1.626 -0.5200  0.3153  0.2108
   16MOL   O396 8826   7.956   0.389   1.505  0.1431  0.4840  0.5096
   16MOL   C397 8827   7.768   0.462   1.624  0.2911  0.1658  0.4096
   16MOL   C398 8828   7.689   0.492   1.513 -0.0790 -0.0631  0.1658
   16MOL   C399 8829   7.568   0.561   1.531  0.0513 -0.3142 -0.0281
   16MOL   C400 8830   7.481   0.586   1.419 -0.3097 -0.0338 -0.0909
   16MOL   C401 8831   7.357   0.642   1.443  0.0638  0.2259 -1.0236
   16MOL   C402 8832   7.316   0.681   1.569 -0.8516 -0.3144 -0.0150
   16MOL   C403 8833   7.188   0.759   1.592  0.7855  0.2764 -0.0184
   16MOL   O404 8834   7.114   0.791   1.475 -0.0962 -0.3601 -0.8085
   16MOL   C405 8835   7.003   0.871   1.503  0.3534 -0.2798 -0.2745
   16MOL   C406 8836   6.901   0.861   1.377  1.1096  0.0543 -0.5854
   16MOL   O407 8837   7.154   0.795   1.705 -0.2021 -0.0672  0.2978
   16MOL   C408 8838   7.399   0.647   1.682  0.7067 -0.2087 -0.0503
   16MOL   C409 8839   7.527   0.593   1.663  0.3320 -0.4904 -0.1838
   16MOL   C410 8840   7.602   0.559   1.779  0.4183 -0.2518  0.1620
   16MOL   C411 8841   7.723   0.501   1.753 -0.9363  0.0484  0.0273
   16MOL   H412 8842   7.729   0.476   1.415  0.7673  0.1358  0.4759
   16MOL   H413 8843   7.512   0.556   1.319 -1.8630 -0.9534 -0.3072
   16MOL   H414 8844   7.303   0.685   1.360  1.1606  3.4250 -0.1469
   16MOL   H415 8845   7.042   0.971   1.519  0.1110 -0.3412  0.7630
   16MOL   H416 8846   6.951   0.847   1.596 -0.2670 -0.1500 -0.5867
   16MOL   H417 8847   6.893   0.759   1.341  0.7134 -0.2331  0.3091
   16MOL   H418 8848   6.798   0.889   1.401  0.4706 -1.3818 -1.5912
   16MOL   H419 8849   7.366   0.678   1.780 -1.8244 -3.0615  0.0637
   16MOL   H420 8850   7.566   0.595   1.874 -2.2436 -0.5379 -0.6857
   16MOL   H421 8851   7.789   0.485   1.837 -0.4044 -4.1141 -1.0590
   16MOL   O422 8852   7.068   0.773   1.178  0.0535  0.4603  0.6165
   16MOL   C423 8853   7.034   0.890   1.186 -0.6071 -0.2830 -0.0015
   16MOL   O424 8854   6.951   0.942   1.272 -0.2369 -0.0770  0.3489
   16MOL   C425 8855   7.076   0.991   1.083  0.4479 -0.0493  0.1794
   16MOL   C426 8856   7.098   0.948   0.951  0.7208 -0.2418  0.0445
   16MOL   C427 8857   7.119   1.038   0.846  0.1474  0.4964  0.7099
   16MOL   C428 8858   7.135   0.992   0.713 -0.3893 -0.3393 -0.2472
   16MOL   C429 8859   7.170   1.087   0.612  0.8859  0.0769  0.2155
   16MOL   C430 8860   7.194   1.223   0.653 -0.3262  0.1759  0.0493
   16MOL   C431 8861   7.242   1.323   0.555  0.1084  0.0739 -0.0140
   16MOL   O432 8862   7.215   1.453   0.589  0.2765  0.3967 -0.4198
   16MOL   C433 8863   7.236   1.563   0.498 -0.7248 -0.3668  0.0193
   16MOL   C434 8864   7.246   1.705   0.558 -0.3815  0.3545 -0.6785
   16MOL   O435 8865   7.296   1.292   0.448 -0.8596 -0.1248 -0.3467
   16MOL   C436 8866   7.175   1.266   0.780  0.9805  0.4601  0.0536
   16MOL   C437 8867   7.135   1.175   0.877 -0.3983  0.1129 -0.0897
   16MOL   C438 8868   7.115   1.220   1.005 -1.0421 -0.4286 -0.1490
   16MOL   C439 8869   7.075   1.130   1.110 -0.7911  0.5497  0.5064
   16MOL   H440 8870   7.089   0.842   0.930  1.1562  0.3032 -3.1834
   16MOL   H441 8871   7.125   0.887   0.689 -0.4237  0.1104 -2.2757
   16MOL   H442 8872   7.186   1.044   0.515  1.5103 -1.1832  0.8587
   16MOL   H443 8873   7.150   1.543   0.434 -0.2599 -1.3982 -0.3058
   16MOL   H444 8874   7.314   1.548   0.424 -2.0952 -2.2938 -1.0858
   16MOL   H445 8875   7.194   1.702   0.654  1.6277  2.0187  0.5153
   16MOL   H446 8876   7.343   1.745   0.587 -0.9420  0.9741  0.3894
   16MOL   H447 8877   7.201   1.363   0.820 -1.9083  1.2877  0.0552
   16MOL   H448 8878   7.145   1.320   1.033 -2.3037 -0.0760 -0.0271
   16MOL   H449 8879   7.057   1.178   1.205  2.0807  4.2737 -0.7006
   16MOL   O450 8880   7.323   1.800   0.306  0.4089 -0.0864 -0.0448
   16MOL   C451 8881   7.213   1.838   0.362 -0.1969  0.0514 -0.2751
   16MOL   O452 8882   7.173   1.793   0.481  0.1613 -0.1963  0.1337
   16MOL   C453 8883   7.126   1.942   0.314 -0.9146 -0.3411  0.4863
   16MOL   C454 8884   6.991   1.967   0.364 -0.5966  0.1333 -0.4010
   16MOL   C455 8885   6.917   2.076   0.317  0.2762 -0.2346  1.1121
   16MOL   C456 8886   6.788   2.102   0.364 -0.0547 -0.6656  0.2336
   16MOL   C457 8887   6.712   2.208   0.310 -0.2401  0.0165 -0.6798
   16MOL   C458 8888   6.760   2.293   0.205  0.2337  0.7017  0.0525
   16MOL   C459 8889   6.685   2.407   0.149 -0.4002 -0.3941 -0.3209
   16MOL   O460 8890   6.736   2.441   0.026 -0.1695  0.4032  0.3034
   16MOL   C461 8891   6.679   2.541   8.191  0.6912 -0.0412  0.3570
   16MOL   C462 8892   6.574   2.492   8.101  0.0879 -0.2048 -0.2922
   16MOL   O463 8893   6.585   2.454   0.200  0.0281 -0.1531 -0.3580
   16MOL   C464 8894   6.889   2.262   0.157  0.1495 -0.3860 -0.1357
   16MOL   C465 8895   6.963   2.154   0.208 -0.3329  0.8415  0.4659
   16MOL   C466 8896   7.089   2.119   0.146  0.4181 -0.0485 -0.5136
   16MOL   C467 8897   7.169   2.017   0.203  0.3536  0.3162 -0.0597
   16MOL   H468 8898   6.941   1.909   0.440 -2.2910  0.9323 -0.8912
   16MOL   H469 8899   6.744   2.045   0.445 -0.5355 -0.4211  0.1442
   16MOL   H470 8900   6.609   2.222   0.339  0.1551  0.9233  0.3034
   16MOL   H471 8901   6.756   2.589   8.131 -0.0237  1.5644  0.6865
   16MOL   H472 8902   6.629   2.612   0.008 -2.6023 -2.1023  0.1798
   16MOL   H473 8903   6.616   2.414   8.037  1.1853 -1.2724  1.6631
   16MOL   H474 8904   6.479   2.463   8.147  0.4153  1.4117  1.4560
   16MOL   H475 8905   6.935   2.331   0.088  1.6040  1.8770  2.9370
   16MOL   H476 8906   7.115   2.170   0.054  0.3716  1.6259  0.3884
   16MOL   H477 8907   7.255   1.980   0.150 -0.2392 -0.2408 -0.6502
   16MOL   O478 8908   6.425   2.720   8.170  0.4804  0.1648 -0.4593
   16MOL   C479 8909   6.481   2.711   8.061 -0.5461  0.4456 -0.3140
   16MOL   O480 8910   6.554   2.608   8.018  0.2052  0.5309  0.4905
   16MOL   C481 8911   6.481   2.824   7.958  0.7734 -0.1970 -0.3197
   16MOL   C482 8912   6.553   2.824   7.840  0.1659  0.3536  0.1354
   16MOL   C483 8913   6.553   2.937   7.749  0.1964 -0.1831 -0.7445
   16MOL   C484 8914   6.635   2.943   7.637 -0.3662 -0.2368 -0.5251
   16MOL   C485 8915   6.635   3.057   7.558  0.1049  0.0698  0.2690
   16MOL   C486 8916   6.544   3.156   7.573 -0.0920 -0.3241  0.1679
   16MOL   C487 8917   6.539   3.279   7.490  0.3300 -0.1945 -0.7869
   16MOL   O488 8918   6.629   3.271   7.392 -0.4524 -0.1590 -0.1128
   16MOL   C489 8919   6.650   3.390   7.317 -0.2095  0.3585 -0.5806
   16MOL   C490 8920   6.751   3.490   7.389  0.0881 -0.5165  0.2239
   16MOL   O491 8921   6.470   3.380   7.511  0.4265  0.1578 -0.0271
   16MOL   C492 8922   6.451   3.146   7.674  0.3512 -0.6238  0.1638
   16MOL   C493 8923   6.461   3.043   7.774 -0.2237 -0.5154 -0.9719
   16MOL   C494 8924   6.382   3.041   7.893 -0.5223 -0.3762  0.1797
   16MOL   C495 8925   6.388   2.930   7.977 -0.7279 -0.3534  0.3689
   16MOL   H496 8926   6.623   2.743   7.827  0.8978  0.9567  0.2752
   16MOL   H497 8927   6.705   2.864   7.615  2.6471  1.9793  0.7941
   16MOL   H498 8928   6.709   3.055   7.480 -0.0831 -0.7112  0.0990
   16MOL   H499 8929   6.555   3.435   7.287 -1.5050 -2.1753 -0.4514
   16MOL   H500 8930   6.696   3.347   7.228  0.7525  1.1062 -0.4594
   16MOL   H501 8931   6.754   3.590   7.347 -1.4176 -0.7410 -0.4557
   16MOL   H502 8932   6.722   3.514   7.491 -5.1143  0.9509 -1.4464
   16MOL   H503 8933   6.377   3.223   7.689  3.7467  2.4301  1.9526
   16MOL   H504 8934   6.314   3.120   7.921 -0.5912 -0.6452  0.7729
   16MOL   H505 8935   6.317   2.920   8.058 -0.0421 -1.3679  0.8461
   16MOL   O506 8936   6.891   3.344   7.589  0.1767 -0.4607 -0.4715
   16MOL   C507 8937   6.938   3.363   7.476 -0.3557  0.3343  0.8207
   16MOL   O508 8938   6.888   3.444   7.376  0.3173  0.0363  0.4296
   16MOL   C509 8939   7.075   3.314   7.436 -0.5888  0.1669 -0.1638
   16MOL   C510 8940   7.131   3.199   7.494 -0.7066  0.4383 -0.3868
   16MOL   C511 8941   7.270   3.164   7.461 -0.6001  0.4437 -0.4938
   16MOL   C512 8942   7.338   3.063   7.533  0.4798 -0.1401  0.0424
   16MOL   C513 8943   7.468   3.031   7.517 -0.1867  0.2260  0.5899
   16MOL   C514 8944   7.540   3.103   7.418  0.1903 -0.6946  0.6933
   16MOL   C515 8945   7.688   3.078   7.400 -0.3042  0.0208 -0.1698
   16MOL   O516 8946   7.730   3.107   7.277 -0.1811 -0.1877  0.3205
   16MOL   C517 8947   7.871   3.084   7.239 -0.0729 -0.2668  0.6060
   16MOL   C518 8948   7.968   3.192   7.287  0.1204 -0.5050 -0.3158
   16MOL   O519 8949   7.757   3.023   7.482 -0.0195 -0.5927 -0.3587
   16MOL   C520 8950   7.475   3.200   7.338 -0.6222  1.1572  0.6020
   16MOL   C521 8951   7.340   3.237   7.364  0.3609  0.3545  0.1273
   16MOL   C522 8952   7.283   3.354   7.308 -0.7152 -0.7367  0.8612
   16MOL   C523 8953   7.152   3.392   7.343  0.2981  0.2977  1.1109
   16MOL   H524 8954   7.085   3.137   7.570  0.3201 -2.3443 -1.9674
   16MOL   H525 8955   7.276   3.012   7.605  1.5189 -2.6147 -0.7696
   16MOL   H526 8956   7.528   2.966   7.579  0.8118 -0.8336 -1.4435
   16MOL   H527 8957   7.877   3.075   7.130  1.0288  2.0749  0.4521
   16MOL   H528 8958   7.917   2.988   7.265  2.4854  0.6720 -0.3300
   16MOL   H529 8959   7.949   3.295   7.257  0.5441  0.3306  2.1727
   16MOL   H530 8960   7.976   3.182   7.395  1.7734 -2.6206 -0.5965
   16MOL   H531 8961   7.529   3.254   7.261  0.6714  0.3364  0.9242
   16MOL   H532 8962   7.335   3.421   7.242  0.9231 -1.3837  1.4805
   16MOL   H533 8963   7.110   3.483   7.304 -0.4913  0.1421  1.5884
   16MOL   O534 8964   8.164   3.023   7.399  0.8264 -0.2099 -0.5826
   16MOL   C535 8965   8.186   3.084   7.296 -0.5536 -0.1988 -0.0507
   16MOL   O536 8966   8.093   3.170   7.230 -0.4097  0.2943  0.3578
   16MOL   C537 8967   0.061   3.071   7.221  0.0607 -0.0286 -0.3573
   16MOL   C538 8968   0.155   2.974   7.264 -0.5803 -0.3978  0.1160
   16MOL   C539 8969   0.285   2.962   7.208 -0.3237 -0.1878  0.2507
   16MOL   C540 8970   0.385   2.875   7.261  0.2424  0.0500  0.2959
   16MOL   C541 8971   0.508   2.865   7.190 -0.4256  0.5375  0.0806
   16MOL   C542 8972   0.539   2.933   7.070 -0.3066 -0.3592 -0.0773
   16MOL   C543 8973   0.675   2.911   7.013 -0.2998 -0.7512  0.8663
   16MOL   O544 8974   0.672   2.952   6.891 -0.6337  0.2568 -0.4811
   16MOL   C545 8975   0.794   2.943   6.816  0.5372 -0.4518  0.1921
   16MOL   C546 8976   0.752   2.973   6.666  0.6358  0.0097 -0.0958
   16MOL   O547 8977   0.769   2.854   7.063 -0.5434 -0.8049  0.5359
   16MOL   C548 8978   0.439   3.022   7.020 -0.3082 -0.1227  0.4570
   16MOL   C549 8979   0.317   3.037   7.091  0.6433 -0.5263 -0.4948
   16MOL   C550 8980   0.222   3.127   7.043  0.0647  0.5779  0.0858
   16MOL   C551 8981   0.099   3.146   7.105  0.3543 -0.0096  0.2952
   16MOL   H552 8982   0.131   2.918   7.353 -2.0958  0.4815  0.2665
   16MOL   H553 8983   0.374   2.817   7.351  0.4684 -1.1156 -0.4213
   16MOL   H554 8984   0.584   2.804   7.238  0.8262  0.3615 -2.0634
   16MOL   H555 8985   0.845   2.847   6.810  2.0709  0.1753  2.3894
   16MOL   H556 8986   0.855   3.020   6.863  0.1567  0.2580 -0.4661
   16MOL   H557 8987   0.704   3.070   6.658 -2.1015 -1.3231 -0.5792
   16MOL   H558 8988   0.686   2.897   6.624  0.8772 -0.5656  0.5355
   16MOL   H559 8989   0.452   3.075   6.927  3.1178 -0.1258  0.8554
   16MOL   H560 8990   0.248   3.190   6.959  1.4664 -0.3898 -0.2271
   16MOL   H561 8991   0.039   3.227   7.066  1.2206 -0.9271 -3.1236
   16MOL   H562 8992   0.840   2.976   6.602 -0.8848  2.1935 -2.1351
   17MOL     O1 8993   1.728   6.343   3.075 -0.3103  0.8932  0.0811
   17MOL     C2 8994   1.635   6.267   3.075 -0.5490  0.1402 -0.1003
   17MOL     O3 8995   1.626   6.159   2.992  0.2643 -0.5006 -0.6186
   17MOL     C4 8996   1.523   6.287   3.172 -0.3566  0.2659 -0.0181
   17MOL     C5 8997   1.429   6.188   3.208 -0.6455 -0.0010  1.6960
   17MOL     C6 8998   1.319   6.215   3.289  0.3614 -0.2589  0.0093
   17MOL     C7 8999   1.224   6.113   3.306 -0.5113  0.1027 -0.0729
   17MOL     C8 9000   1.106   6.143   3.380  0.6071 -1.1151  0.6440
   17MOL     C9 9001   1.084   6.275   3.425  0.2802  0.1805  0.3140
   17MOL    C10 9002   0.962   6.310   3.502 -0.1027  0.5258  0.5459
   17MOL    O11 9003   0.951   6.441   3.536  0.1208  0.8471  0.3528
   17MOL    C12 9004   0.846   6.497   3.612 -0.8777  0.8063 -0.0905
   17MOL    C13 9005   0.901   6.634   3.669 -0.5356 -0.4693 -0.3051
   17MOL    O14 9006   0.874   6.231   3.528  0.1628 -0.0590 -0.3308
   17MOL    C15 9007   1.179   6.372   3.408  0.1110  0.2405  0.4923
   17MOL    C16 9008   1.297   6.345   3.339 -0.3303 -0.1435  0.4881
   17MOL    C17 9009   1.391   6.445   3.306 -0.1741 -0.1761 -0.1657
   17MOL    C18 9010   1.504   6.420   3.223 -0.5735 -0.2399 -0.2407
   17MOL    H19 9011   1.450   6.094   3.159  0.4381  0.8066  0.5444
   17MOL    H20 9012   1.236   6.014   3.265 -3.4233  0.3314 -1.5985
   17MOL    H21 9013   1.034   6.066   3.403  0.6068 -0.3781  3.3103
   17MOL    H22 9014   0.762   6.517   3.546  0.4041  0.8527 -1.7216
   17MOL    H23 9015   0.805   6.431   3.689 -0.3704  1.6882  0.9619
   17MOL    H24 9016   0.832   6.677   3.742  1.1304 -0.4488  1.2811
   17MOL    H25 9017   0.993   6.634   3.727  0.4345  0.7311 -1.7756
   17MOL    H26 9018   1.159   6.471   3.446 -0.3806 -0.3305  1.7604
   17MOL    H27 9019   1.372   6.543   3.348 -0.2583 -0.2195 -0.1002
   17MOL    H28 9020   1.581   6.495   3.212 -0.3231 -0.3180  0.9127
   17MOL    H29 9021   1.708   6.135   2.952  0.2184 -0.0750 -0.9637
   17MOL    O30 9022   1.110   6.803   3.606 -0.0793 -0.5367  0.2361
   17MOL    C31 9023   1.006   6.810   3.542 -0.3128 -0.0761 -0.0606
   17MOL    O32 9024   0.903   6.731   3.563  0.1399  0.4062  0.1435
   17MOL    C33 9025   0.984   6.908   3.431 -0.1608  0.2196 -0.2486
   17MOL    C34 9026   0.897   6.885   3.324  0.3127 -0.4751  0.8575
   17MOL    C35 9027   0.890   6.971   3.212  0.1122  0.0973 -0.0631
   17MOL    C36 9028   0.809   6.943   3.099  0.3856 -0.2759  0.1629
   17MOL    C37 9029   0.802   7.037   2.992 -0.0124  0.1690  0.3428
   17MOL    C38 9030   0.882   7.155   2.995  0.2471  0.4371 -0.0184
   17MOL    C39 9031   0.877   7.254   2.882  0.0633 -0.5689  0.5275
   17MOL    O40 9032   0.958   7.361   2.905  0.6858 -0.2830  0.6490
   17MOL    C41 9033   0.961   7.466   2.813 -0.4223 -0.3456 -0.1400
   17MOL    C42 9034   1.069   7.444   2.711  0.6762  0.2581  0.6430
   17MOL    O43 9035   0.811   7.237   2.777 -0.6318  0.2216 -0.1225
   17MOL    C44 9036   0.974   7.175   3.097 -0.3644  0.2291 -0.1568
   17MOL    C45 9037   0.979   7.080   3.204  0.1802 -0.6059  0.2141
   17MOL    C46 9038   1.060   7.110   3.313 -0.4870  0.7884  0.2835
   17MOL    C47 9039   1.060   7.025   3.427 -0.3560 -0.7035 -0.4002
   17MOL    H48 9040   0.832   6.799   3.331 -0.5953  0.4217  4.4447
   17MOL    H49 9041   0.746   6.857   3.112  3.2061 -2.3161  0.8705
   17MOL    H50 9042   0.731   7.013   2.913  2.7242 -0.6611 -1.9349
   17MOL    H51 9043   0.975   7.559   2.868 -2.1371  0.8060 -1.5953
   17MOL    H52 9044   0.865   7.471   2.761 -0.3831 -0.9476 -0.2718
   17MOL    H53 9045   1.081   7.342   2.673  0.8829  0.1328  1.0412
   17MOL    H54 9046   1.047   7.496   2.618 -4.3414  0.0952  1.5885
   17MOL    H55 9047   1.033   7.264   3.089  1.4258 -0.8917  0.3361
   17MOL    H56 9048   1.124   7.196   3.314  0.4556  0.1098 -0.5667
   17MOL    H57 9049   1.132   7.051   3.502 -0.7666  1.1152 -0.6267
   17MOL    O58 9050   1.161   7.694   2.678  0.1059 -0.5375 -0.5573
   17MOL    C59 9051   1.230   7.621   2.754  0.3365 -0.3283  0.4061
   17MOL    O60 9052   1.196   7.496   2.768  0.1957 -0.8509 -0.0381
   17MOL    C61 9053   1.337   7.673   2.843 -0.4209 -0.3871  0.4516
   17MOL    C62 9054   1.428   7.575   2.900 -0.3268  0.2780 -0.2568
   17MOL    C63 9055   1.544   7.629   2.964  0.5666  0.5188 -0.1693
   17MOL    C64 9056   1.632   7.540   3.024  0.7935  0.7277  0.0599
   17MOL    C65 9057   1.743   7.587   3.094  0.0657  0.6232 -0.0619
   17MOL    C66 9058   1.765   7.727   3.111  0.5150  0.2498 -0.1724
   17MOL    C67 9059   1.870   7.786   3.190 -0.1698  0.3547  0.3733
   17MOL    O68 9060   1.966   7.690   3.219  0.3993  0.2135 -0.0457
   17MOL    C69 9061   2.084   7.717   3.296  0.2094 -0.1083  0.4258
   17MOL    C70 9062   2.077   7.628   3.419 -0.2757 -0.1244  0.5911
   17MOL    O71 9063   1.878   7.910   3.219 -0.0106 -0.1981 -0.0812
   17MOL    C72 9064   1.675   7.818   3.048 -0.7906 -0.3010  0.0732
   17MOL    C73 9065   1.565   7.770   2.975  0.3899  0.2355  0.1991
   17MOL    C74 9066   1.479   7.864   2.909  0.6323  0.6790 -1.3426
   17MOL    C75 9067   1.365   7.811   2.849  0.0404 -0.5930 -0.1423
   17MOL    H76 9068   1.408   7.470   2.891  1.0519 -0.1067  0.9033
   17MOL    H77 9069   1.616   7.436   3.001  0.7499  0.7620 -0.0638
   17MOL    H78 9070   1.809   7.514   3.137  0.3626  1.7255  1.3977
   17MOL    H79 9071   2.105   7.821   3.321 -2.9206  0.4079  1.1544
   17MOL    H80 9072   2.165   7.692   3.228 -1.2304  0.0319 -1.3570
   17MOL    H81 9073   2.018   7.541   3.392 -1.9535  0.0900  3.3132
   17MOL    H82 9074   2.175   7.597   3.453  0.7108  1.2303 -0.9750
   17MOL    H83 9075   1.684   7.925   3.057 -1.1847 -0.1303 -1.4710
   17MOL    H84 9076   1.497   7.971   2.904 -0.6058  0.9233 -0.8015
   17MOL    H85 9077   1.297   7.882   2.804  0.6077  2.4010  3.5625
   17MOL    O86 9078   1.814   7.601   3.460 -0.2078  0.4414 -0.5898
   17MOL    C87 9079   1.878   7.688   3.525  0.0670 -0.2479  0.4316
   17MOL    O88 9080   2.010   7.703   3.513  0.6601  0.4689 -0.4988
   17MOL    C89 9081   1.816   7.805   3.607 -0.4590  0.4861  0.1074
   17MOL    C90 9082   1.893   7.916   3.631 -0.0932 -0.7902 -0.9532
   17MOL    C91 9083   1.843   8.030   3.705 -0.0658  0.5058 -1.1381
   17MOL    C92 9084   1.927   8.139   3.727  0.1800  0.8979 -0.3561
   17MOL    C93 9085   1.874   0.005   3.791  0.1907  0.3983  0.0110
   17MOL    C94 9086   1.735   0.018   3.823  0.1852  0.1408  0.4708
   17MOL    C95 9087   1.687   0.139   3.892 -0.0393 -0.2274  0.1629
   17MOL    O96 9088   1.785   0.231   3.922 -0.2021  0.6819 -0.5548
   17MOL    C97 9089   1.754   0.359   3.978  0.3161  0.1136  0.4771
   17MOL    C98 9090   1.790   0.368   4.129 -0.3096  0.1750  0.2571
   17MOL    O99 9091   1.569   0.167   3.911 -0.6877  0.3480 -0.8288
   17MOL   C100 9092   1.651   8.159   3.789  0.1369 -0.4363 -0.0436
   17MOL   C101 9093   1.705   8.034   3.745 -0.3102 -0.3051 -0.5271
   17MOL   C102 9094   1.629   7.919   3.717  0.6098  0.2041 -0.4769
   17MOL   C103 9095   1.682   7.802   3.651 -1.2077 -0.6205  0.0301
   17MOL   H104 9096   1.998   7.927   3.605 -0.8251  1.3162 -3.0957
   17MOL   H105 9097   2.031   8.135   3.697 -0.2403 -2.3019 -1.5979
   17MOL   H106 9098   1.939   0.083   3.827 -0.2209 -0.1693  2.0358
   17MOL   H107 9099   1.652   0.394   3.962  0.9199  2.7033  1.9339
   17MOL   H108 9100   1.805   0.439   3.924  0.0155  0.3032  0.4705
   17MOL   H109 9101   1.892   0.333   4.143 -0.4645  0.1814  1.4403
   17MOL   H110 9102   1.777   0.474   4.150 -2.4326  0.1604 -0.8230
   17MOL   H111 9103   1.546   8.156   3.817  0.5469  0.8950  1.7378
   17MOL   H112 9104   1.524   7.911   3.742  0.7891  0.8654  0.5123
   17MOL   H113 9105   1.617   7.720   3.627  0.8986 -2.2036 -0.4077
   17MOL   O114 9106   1.772   0.387   4.400  0.1079 -0.8040 -0.7076
   17MOL   C115 9107   1.695   0.315   4.344  0.4169 -0.0979 -0.2915
   17MOL   O116 9108   1.694   0.297   4.209  0.5512 -0.2924  0.0075
   17MOL   C117 9109   1.624   0.209   4.416 -0.1655  0.7140  0.0210
   17MOL   C118 9110   1.623   0.210   4.556  0.5490  0.2289 -0.4811
   17MOL   C119 9111   1.553   0.113   4.634  0.4824  0.5394  0.0725
   17MOL   C120 9112   1.560   0.116   4.773  0.0468 -0.5117 -0.1845
   17MOL   C121 9113   1.481   0.025   4.848  0.2216 -0.0825  0.1165
   17MOL   C122 9114   1.411   8.163   4.780  0.0231 -0.2719  0.2547
   17MOL   C123 9115   1.346   8.053   4.858  0.3603  0.2070  0.3005
   17MOL   O124 9116   1.263   7.977   4.774 -0.4190 -0.0579 -0.1634
   17MOL   C125 9117   1.223   7.855   4.818  0.1240  0.7152  0.2958
   17MOL   C126 9118   1.102   7.873   4.915 -0.1738  0.1817  0.4357
   17MOL   O127 9119   1.365   8.024   4.973 -0.1464  0.1224 -0.0784
   17MOL   C128 9120   1.417   8.161   4.636  0.3625 -0.0219  0.0778
   17MOL   C129 9121   1.490   0.007   4.570  0.1321  0.1528  0.0422
   17MOL   C130 9122   1.492   0.000   4.426  0.3306  0.0829  0.1931
   17MOL   C131 9123   1.559   0.098   4.352  0.6587 -0.9667 -0.6703
   17MOL   H132 9124   1.674   0.293   4.603 -1.3452  0.6603  0.8895
   17MOL   H133 9125   1.610   0.203   4.813 -3.6919  1.3387  0.6996
   17MOL   H134 9126   1.475   0.022   4.956 -2.3374  1.0874  0.0500
   17MOL   H135 9127   1.295   7.805   4.882  1.4119  0.4782 -1.2898
   17MOL   H136 9128   1.196   7.800   4.727  0.1642  0.6332  0.3334
   17MOL   H137 9129   1.132   7.947   4.989 -3.5899  0.3999  1.6992
   17MOL   H138 9130   1.018   7.921   4.866 -0.1497 -0.7643 -0.5376
   17MOL   H139 9131   1.380   8.076   4.580  0.3177  0.8462 -1.2256
   17MOL   H140 9132   1.442   8.166   4.379 -1.9110 -0.5551  3.5009
   17MOL   H141 9133   1.562   0.072   4.247 -0.6501 -0.8935 -0.7380
   17MOL   O142 9134   1.025   7.646   4.785 -0.1581 -0.2891  0.0220
   17MOL   C143 9135   1.009   7.652   4.911  0.1123 -0.2490  0.2694
   17MOL   O144 9136   1.052   7.759   4.985 -0.0771  0.0769  0.0487
   17MOL   C145 9137   0.926   7.558   4.987  0.4788  0.5829  0.0352
   17MOL   C146 9138   0.938   7.550   5.131  0.0569 -0.9703  0.1538
   17MOL   C147 9139   0.872   7.459   5.211 -0.4459  0.0219 -0.5654
   17MOL   C148 9140   0.886   7.454   5.352 -0.5272  0.3391  0.1239
   17MOL   C149 9141   0.813   7.360   5.421  0.6047 -0.1317 -0.1178
   17MOL   C150 9142   0.729   7.265   5.357 -0.2637  0.3163 -0.0005
   17MOL   C151 9143   0.656   7.167   5.436  0.6826 -0.2007  1.0731
   17MOL   O152 9144   0.646   7.054   5.376  0.1616  0.0303 -0.0038
   17MOL   C153 9145   0.584   6.942   5.437 -0.5445  0.4236 -0.8948
   17MOL   C154 9146   0.434   6.957   5.435 -0.3187  0.6135 -0.6738
   17MOL   O155 9147   0.605   7.201   5.539  0.4062  0.1656  0.1507
   17MOL   C156 9148   0.713   7.270   5.217  0.4893  0.2616 -0.2479
   17MOL   C157 9149   0.783   7.365   5.144 -0.5734  0.1134  0.3297
   17MOL   C158 9150   0.753   7.383   5.008 -0.2143 -0.4345 -0.3042
   17MOL   C159 9151   0.827   7.473   4.923  0.1927  0.4904 -0.1602
   17MOL   H160 9152   1.003   7.622   5.176 -0.4183 -0.3691 -0.1207
   17MOL   H161 9153   0.946   7.527   5.405  1.0467  0.4371 -1.7411
   17MOL   H162 9154   0.819   7.362   5.529 -1.8343 -1.3185  0.0810
   17MOL   H163 9155   0.619   6.939   5.541 -0.6395 -1.5499 -0.9072
   17MOL   H164 9156   0.604   6.840   5.403 -0.6609 -0.6562  2.1239
   17MOL   H165 9157   0.393   6.863   5.472  1.6538  0.7662  2.0969
   17MOL   H166 9158   0.394   7.039   5.495  2.0955  0.5280  1.1663
   17MOL   H167 9159   0.639   7.208   5.169  1.1645 -0.7593  0.0209
   17MOL   H168 9160   0.693   7.305   4.963 -2.1812 -0.0324  1.5666
   17MOL   H169 9161   0.806   7.462   4.818  1.2656 -0.5218 -0.2931
   17MOL   O170 9162   0.189   6.935   5.342 -0.4805  0.5354  0.1970
   17MOL   C171 9163   0.276   6.975   5.269 -0.2972 -0.3423 -0.1937
   17MOL   O172 9164   0.404   6.982   5.304  0.3388 -0.2929  0.2237
   17MOL   C173 9165   0.236   7.031   5.139  0.6753 -0.4634 -0.8915
   17MOL   C174 9166   0.327   7.108   5.063  0.1545 -0.0356  0.0296
   17MOL   C175 9167   0.288   7.144   4.930 -0.0277  0.1314  0.3050
   17MOL   C176 9168   0.382   7.205   4.847  0.0881  0.1269  0.5569
   17MOL   C177 9169   0.352   7.245   4.717  0.0736 -0.2496 -0.4477
   17MOL   C178 9170   0.218   7.231   4.677 -0.2881  0.4728  0.3752
   17MOL   C179 9171   0.165   7.315   4.564 -0.1304 -0.1411  0.3836
   17MOL   O180 9172   0.045   7.278   4.519 -0.3117  0.3310  0.7697
   17MOL   C181 9173   8.241   7.353   4.410 -0.2255 -0.8448  0.1320
   17MOL   C182 9174   8.110   7.284   4.366  0.1180 -0.0646  0.2141
   17MOL   O183 9175   0.233   7.413   4.513  0.7602 -0.7170 -0.1159
   17MOL   C184 9176   0.126   7.160   4.753  0.9380  0.2738 -0.6761
   17MOL   C185 9177   0.160   7.110   4.878 -0.0891  0.0126 -0.0049
   17MOL   C186 9178   0.065   7.040   4.958 -0.7202  0.8451 -1.2482
   17MOL   C187 9179   0.101   7.009   5.091  0.4779 -0.1582 -0.7762
   17MOL   H188 9180   0.430   7.121   5.093  0.0307 -1.2868  1.0532
   17MOL   H189 9181   0.484   7.196   4.882 -0.2119 -0.9873  1.1872
   17MOL   H190 9182   0.432   7.303   4.674 -1.7025  2.2505 -0.4939
   17MOL   H191 9183   0.061   7.361   4.327  0.6252 -0.3053  0.8909
   17MOL   H192 9184   8.226   7.456   4.442  0.3522 -0.8148  0.3058
   17MOL   H193 9185   8.096   7.303   4.260  0.4680 -1.0795 -0.0186
   17MOL   H194 9186   8.111   7.175   4.379 -1.0243 -0.2517 -1.1457
   17MOL   H195 9187   0.022   7.152   4.726  0.7406 -0.4758  0.2790
   17MOL   H196 9188   8.210   7.033   4.930 -1.7370  2.3887  1.8651
   17MOL   H197 9189   0.028   6.967   5.159  0.4943 -1.5330 -1.5910
   17MOL   O198 9190   7.872   7.149   4.342 -0.0124 -0.6901  0.2664
   17MOL   C199 9191   7.881   7.262   4.401 -0.1064  0.4645  0.6090
   17MOL   O200 9192   7.994   7.324   4.437 -0.1220  0.2568 -0.4146
   17MOL   C201 9193   7.755   7.342   4.439 -0.1363 -0.0069 -0.1387
   17MOL   C202 9194   7.630   7.306   4.388 -0.0510 -0.0142  0.5759
   17MOL   C203 9195   7.510   7.361   4.438 -0.2532 -0.0218 -0.6670
   17MOL   C204 9196   7.384   7.312   4.401 -0.3426 -0.4029  0.2480
   17MOL   C205 9197   7.273   7.367   4.462  0.4835  0.1333 -0.1466
   17MOL   C206 9198   7.286   7.480   4.544 -0.2962 -0.8555 -0.0024
   17MOL   C207 9199   7.164   7.555   4.591 -0.5398  0.3129 -0.4658
   17MOL   O208 9200   7.186   7.649   4.682 -0.2338 -0.2198 -0.5948
   17MOL   C209 9201   7.079   7.732   4.727 -0.0596  0.8694 -0.2203
   17MOL   C210 9202   7.127   7.875   4.730 -0.2830 -0.7877 -0.4326
   17MOL   O211 9203   7.049   7.536   4.556  0.7530 -0.0037  0.0635
   17MOL   C212 9204   7.408   7.532   4.572 -0.5697  0.4713  0.3114
   17MOL   C213 9205   7.523   7.470   4.522  0.1649  0.3834 -0.9612
   17MOL   C214 9206   7.647   7.515   4.566 -0.4559 -0.1881 -0.0445
   17MOL   C215 9207   7.763   7.438   4.537 -0.3537  0.0133 -0.2295
   17MOL   H216 9208   7.624   7.221   4.322 -0.5579  0.5729 -0.1406
   17MOL   H217 9209   7.377   7.224   4.339  0.8455 -1.3217  1.3874
   17MOL   H218 9210   7.177   7.319   4.446 -0.7179  1.4449  2.6504
   17MOL   H219 9211   7.063   7.702   4.831  0.6961 -1.1924 -0.6752
   17MOL   H220 9212   6.986   7.732   4.670 -0.2521  0.2681  0.0861
   17MOL   H221 9213   7.234   7.877   4.710  0.0593  3.6977  1.1676
   17MOL   H222 9214   7.076   7.930   4.650  2.0528 -0.8065 -1.9723
   17MOL   H223 9215   7.411   7.625   4.626 -2.2153  1.1286 -0.6926
   17MOL   H224 9216   7.659   7.591   4.642 -1.6402  0.3831 -0.4252
   17MOL   H225 9217   7.857   7.468   4.583  0.1974  0.7896 -1.8336
   17MOL   O226 9218   6.914   8.017   4.812 -0.1743  0.0240  0.8781
   17MOL   C227 9219   7.000   7.987   4.897 -0.1013 -0.0962  0.7896
   17MOL   O228 9220   7.114   7.924   4.864  0.6227  0.0064 -0.3442
   17MOL   C229 9221   6.986   8.025   5.039  0.4567 -0.1883  0.2362
   17MOL   C230 9222   7.086   8.001   5.133  0.4664  0.9133 -0.2376
   17MOL   C231 9223   7.063   8.046   5.264 -0.4144 -0.3041  1.0780
   17MOL   C232 9224   7.157   8.022   5.365 -0.1087 -0.2373  0.5285
   17MOL   C233 9225   7.139   8.072   5.497 -0.2057  0.0663 -0.1155
   17MOL   C234 9226   7.023   8.138   5.530  0.8858  0.3993 -0.0220
   17MOL   C235 9227   7.009   8.196   5.669  0.2708 -0.1248 -0.1278
   17MOL   O236 9228   6.882   0.006   5.687 -0.3131 -0.3657 -0.1994
   17MOL   C237 9229   6.850   0.093   5.795  0.2186 -0.5229 -0.2755
   17MOL   C238 9230   6.873   0.235   5.749 -0.0010  0.5097  1.1425
   17MOL   O239 9231   7.100   8.188   5.755 -0.0220 -0.2116 -0.2885
   17MOL   C240 9232   6.923   8.149   5.435  0.9074 -0.4818 -0.0957
   17MOL   C241 9233   6.952   8.120   5.299 -0.1257  0.0602 -0.0207
   17MOL   C242 9234   6.857   8.151   5.201  0.0856  0.3234 -0.1102
   17MOL   C243 9235   6.879   8.108   5.070  0.5215 -0.3522 -1.1589
   17MOL   H244 9236   7.177   7.945   5.115 -0.5619 -0.7867 -0.2276
   17MOL   H245 9237   7.243   7.960   5.342 -0.3905  0.0563 -1.4107
   17MOL   H246 9238   7.204   8.040   5.578  0.8075 -0.1759 -1.0094
   17MOL   H247 9239   6.911   0.064   5.880 -1.0096  1.7647  1.4401
   17MOL   H248 9240   6.747   0.075   5.825  1.0613 -0.1686  2.9926
   17MOL   H249 9241   6.977   0.244   5.715 -0.1632  0.9631  0.7518
   17MOL   H250 9242   6.812   0.255   5.661 -0.9496  0.6598  1.8329
   17MOL   H251 9243   6.825   8.184   5.464  1.0484  1.0132 -1.3748
   17MOL   H252 9244   6.766   8.205   5.225  0.0139 -0.7787  2.2302
   17MOL   H253 9245   6.808   8.137   4.994 -0.0999 -0.3650 -0.5905
   17MOL   O254 9246   7.057   0.358   5.924  0.3426 -0.0179 -0.3051
   17MOL   C255 9247   6.933   0.368   5.944  0.2357 -0.1918 -0.2017
   17MOL   O256 9248   6.836   0.320   5.857 -0.0485  0.7366 -0.1585
   17MOL   C257 9249   6.869   0.431   6.060 -0.5393  0.0385 -0.3081
   17MOL   C258 9250   6.922   0.435   6.193  0.0128  0.4549 -0.0623
   17MOL   C259 9251   6.857   0.498   6.297 -0.2602  1.1525  0.1493
   17MOL   C260 9252   6.910   0.503   6.425 -0.1482  0.4595  0.0695
   17MOL   C261 9253   6.840   0.564   6.531 -0.7712  0.1198 -0.2911
   17MOL   C262 9254   6.721   0.633   6.503 -0.4537 -0.0830 -0.6754
   17MOL   C263 9255   6.648   0.712   6.614  0.1593  0.0265 -0.5748
   17MOL   O264 9256   6.732   0.727   6.720  0.3459 -0.8374  0.3879
   17MOL   C265 9257   6.706   0.831   6.806 -0.6015  0.1370  0.1522
   17MOL   C266 9258   6.760   0.961   6.738 -0.5419  0.2736  0.2713
   17MOL   O267 9259   6.544   0.774   6.608 -0.2149  0.2662  0.0694
   17MOL   C268 9260   6.673   0.638   6.373 -0.8324 -0.0588 -0.7126
   17MOL   C269 9261   6.735   0.562   6.276 -0.4111  0.0563 -0.2530
   17MOL   C270 9262   6.680   0.560   6.144 -0.1306  0.7249  0.3139
   17MOL   C271 9263   6.754   0.503   6.031  0.1938  0.2968 -0.9199
   17MOL   H272 9264   7.016   0.385   6.209 -0.4490 -0.0989  0.9989
   17MOL   H273 9265   7.005   0.459   6.451  0.2322  1.5129  0.5203
   17MOL   H274 9266   6.893   0.556   6.625  0.6293 -1.6220 -1.1973
   17MOL   H275 9267   6.764   0.815   6.897 -0.8561  0.3915  0.3558
   17MOL   H276 9268   6.603   0.845   6.838  0.1748  0.2472  2.7451
   17MOL   H277 9269   6.682   0.976   6.663  0.7971 -0.1145 -1.2218
   17MOL   H278 9270   6.756   1.045   6.806  1.6267 -0.0794  0.8477
   17MOL   H279 9271   6.599   0.706   6.333 -0.0412  2.0312  1.2452
   17MOL   H280 9272   6.593   0.616   6.112 -0.0204  0.8439  0.2185
   17MOL   H281 9273   6.707   0.501   5.934  0.1740 -0.9066 -0.8862
   17MOL   O282 9274   7.021   0.989   6.854  0.5992 -0.0274 -0.1320
   17MOL   C283 9275   7.004   0.964   6.736 -0.2492  0.4328  0.2891
   17MOL   O284 9276   6.884   0.950   6.676 -0.4371  0.0655  0.3054
   17MOL   C285 9277   7.113   0.934   6.637  0.2217 -0.7128  0.0138
   17MOL   C286 9278   7.091   0.841   6.532 -0.1704  0.5359 -0.0946
   17MOL   C287 9279   7.205   0.801   6.447  1.0579  0.1742  0.3001
   17MOL   C288 9280   7.185   0.717   6.335 -0.3191  0.0643  0.1133
   17MOL   C289 9281   7.294   0.692   6.241  0.1413  0.8420  0.9322
   17MOL   C290 9282   7.418   0.756   6.264  0.1920  0.2967 -0.2847
   17MOL   C291 9283   7.528   0.738   6.163 -0.3738 -0.0956 -0.6933
   17MOL   O292 9284   7.479   0.687   6.049 -0.2850 -0.4223 -0.4525
   17MOL   C293 9285   7.565   0.665   5.931 -0.3521 -0.1231 -0.6075
   17MOL   C294 9286   7.665   0.548   5.954 -0.3410  0.3313  0.0696
   17MOL   O295 9287   7.647   0.779   6.173  0.6024 -0.6185 -0.0637
   17MOL   C296 9288   7.436   0.834   6.379 -0.2571  0.2291 -0.0774
   17MOL   C297 9289   7.329   0.859   6.472 -0.8405  0.3774  0.6785
   17MOL   C298 9290   7.352   0.943   6.582  0.2722  0.0139 -0.6755
   17MOL   C299 9291   7.247   0.983   6.663 -0.2165 -0.2277  0.1031
   17MOL   H300 9292   6.993   0.797   6.521  0.8612 -2.8328  3.0703
   17MOL   H301 9293   7.088   0.673   6.321 -0.4846  0.0203  1.3375
   17MOL   H302 9294   7.264   0.630   6.158  0.9661  0.8324  0.6353
   17MOL   H303 9295   7.619   0.753   5.897  1.9798 -0.8826  1.0437
   17MOL   H304 9296   7.500   0.646   5.846 -2.1273  0.9914  0.4594
   17MOL   H305 9297   7.637   0.503   6.049 -0.9507 -0.5016 -0.4950
   17MOL   H306 9298   7.647   0.472   5.878 -1.0225 -0.3798  0.9313
   17MOL   H307 9299   7.531   0.878   6.405 -0.0632 -0.2278 -0.0096
   17MOL   H308 9300   7.453   0.976   6.604  0.2554  0.5883 -1.4510
   17MOL   H309 9301   7.261   1.043   6.752 -0.2034  0.2054 -0.1928
   17MOL   O310 9302   7.851   0.649   5.750 -0.3676  0.5291 -0.0729
   17MOL   C311 9303   7.872   0.658   5.872 -0.5279  0.4085 -0.4505
   17MOL   O312 9304   7.800   0.588   5.965 -0.2166  0.2926  0.0029
   17MOL   C313 9305   7.986   0.734   5.930  0.5722  0.7664  0.2835
   17MOL   C314 9306   7.995   0.754   6.072  0.2211 -0.2577 -0.0231
   17MOL   C315 9307   8.096   0.843   6.119  0.6483  0.4545 -0.1563
   17MOL   C316 9308   8.106   0.874   6.258  0.0004  0.9221 -0.2653
   17MOL   C317 9309   8.215   0.946   6.313  0.1122 -0.0825  0.6098
   17MOL   C318 9310   0.070   0.987   6.223 -0.5348 -0.0357  0.5308
   17MOL   C319 9311   0.187   1.067   6.265  0.4179 -0.0350 -0.2302
   17MOL   O320 9312   0.184   1.103   6.395 -0.3348  0.2705  0.0549
   17MOL   C321 9313   0.283   1.194   6.439  0.2634  0.0300  0.0708
   17MOL   C322 9314   0.246   1.212   6.583  0.0608 -0.4737  0.2579
   17MOL   O323 9315   0.277   1.102   6.186  0.0585 -0.1524  0.1847
   17MOL   C324 9316   0.056   0.965   6.084  0.8110 -0.2161 -0.5896
   17MOL   C325 9317   8.195   0.895   6.032  0.4819 -0.2765  0.4132
   17MOL   C326 9318   8.186   0.869   5.899  0.1721  0.2564 -0.0914
   17MOL   C327 9319   8.080   0.791   5.846  0.6415 -0.3864 -0.1959
   17MOL   H328 9320   7.921   0.717   6.141 -0.7418  3.0973  0.8233
   17MOL   H329 9321   8.032   0.830   6.323 -0.3612 -1.2646 -2.0939
   17MOL   H330 9322   8.225   0.954   6.421 -1.6711 -0.8254  0.8505
   17MOL   H331 9323   0.277   1.284   6.379 -1.1237  2.4253  3.6581
   17MOL   H332 9324   0.386   1.158   6.437  1.0118  2.0882  0.5466
   17MOL   H333 9325   0.145   1.253   6.589  0.8429  1.3704  1.3393
   17MOL   H334 9326   0.234   1.113   6.627 -0.7607 -0.8277 -0.7375
   17MOL   H335 9327   0.132   1.003   6.018 -0.5164 -0.7791 -2.4896
   17MOL   H336 9328   0.018   0.903   5.837  0.5895  0.6957  0.6817
   17MOL   H337 9329   8.068   0.769   5.741 -0.1668  1.0455 -0.4153
   17MOL   O338 9330   0.218   1.269   6.854 -0.7239  0.7603 -0.4887
   17MOL   C339 9331   0.310   1.322   6.791 -0.2458 -0.2549  0.9967
   17MOL   O340 9332   0.326   1.305   6.659 -0.4137  0.3357 -0.1845
   17MOL   C341 9333   0.419   1.415   6.844  0.1881 -0.6751 -0.2652
   17MOL   C342 9334   0.527   1.454   6.765 -0.3122 -0.2092 -0.0242
   17MOL   C343 9335   0.624   1.534   6.825  0.0846 -0.5686 -0.0839
   17MOL   C344 9336   0.737   1.562   6.751 -0.8540 -0.5325 -0.1111
   17MOL   C345 9337   0.849   1.633   6.813 -0.2490  0.6985 -0.0554
   17MOL   C346 9338   0.830   1.682   6.947  0.3638  0.9333 -0.4395
   17MOL   C347 9339   0.938   1.766   7.015  0.1055 -0.0469  0.6668
   17MOL   O348 9340   1.052   1.781   6.943  0.5428 -0.3399  0.3825
   17MOL   C349 9341   1.168   1.827   7.000 -0.4302 -0.1495  0.5898
   17MOL   C350 9342   1.278   1.845   6.887  0.1800  0.6736 -0.4311
   17MOL   O351 9343   0.930   1.818   7.124 -0.5670  0.5427  0.3490
   17MOL   C352 9344   0.719   1.650   7.020 -0.2801 -0.0317 -0.4751
   17MOL   C353 9345   0.615   1.577   6.962 -0.2789  0.4234 -0.2288
   17MOL   C354 9346   0.503   1.541   7.033  0.8778 -0.1279  0.0846
   17MOL   C355 9347   0.400   1.464   6.977 -0.4265 -0.6736  0.2140
   17MOL   H356 9348   0.549   1.417   6.666  0.1959 -1.2070  0.4485
   17MOL   H357 9349   0.751   1.527   6.650 -3.6422  0.5527 -0.9256
   17MOL   H358 9350   0.943   1.638   6.760 -0.2034 -1.4381 -0.2432
   17MOL   H359 9351   1.199   1.774   7.090  1.7478 -0.4809 -0.3010
   17MOL   H360 9352   1.139   1.928   7.031 -0.2561 -0.1822  0.8581
   17MOL   H361 9353   1.239   1.906   6.806  1.0324 -0.1628 -1.4836
   17MOL   H362 9354   1.355   1.909   6.930  0.7149 -0.6051  0.5791
   17MOL   H363 9355   0.715   1.689   7.121  0.0643 -1.2162  0.0028
   17MOL   H364 9356   0.486   1.595   7.126  0.0013  0.2823 -0.3130
   17MOL   H365 9357   0.312   1.445   7.036 -1.2114  2.1935  0.0647
   17MOL   O366 9358   1.434   1.676   7.026 -0.0994 -0.3457  0.4350
   17MOL   C367 9359   1.401   1.646   6.910 -0.5848  0.2199 -0.1713
   17MOL   O368 9360   1.324   1.720   6.837  0.1479 -0.1952 -0.4407
   17MOL   C369 9361   1.448   1.517   6.845  0.7731 -0.1387  0.1723
   17MOL   C370 9362   1.483   1.414   6.933 -0.9897 -0.0120 -0.7808
   17MOL   C371 9363   1.534   1.294   6.877 -0.3462  0.2864  0.6532
   17MOL   C372 9364   1.576   1.188   6.964 -0.1448 -0.1320  0.2370
   17MOL   C373 9365   1.643   1.079   6.909 -0.0125  0.4492  0.6486
   17MOL   C374 9366   1.662   1.065   6.766  0.3889  0.1988  0.1428
   17MOL   C375 9367   1.732   0.945   6.698  0.0263  0.3908 -0.4383
   17MOL   O376 9368   1.779   0.865   6.791 -0.0602  0.1121  0.3644
   17MOL   C377 9369   1.859   0.752   6.764  0.5307  0.2705 -0.0433
   17MOL   C378 9370   2.005   0.796   6.749 -0.1779  0.0887  1.0414
   17MOL   O379 9371   1.737   0.933   6.572  0.4134  0.0008 -0.2651
   17MOL   C380 9372   1.617   1.166   6.682 -0.6624  0.2741  0.8294
   17MOL   C381 9373   1.552   1.281   6.741 -0.5130  0.4695 -0.0030
   17MOL   C382 9374   1.514   1.384   6.655  0.0532 -0.1076  0.3436
   17MOL   C383 9375   1.455   1.500   6.704 -0.1745 -0.1156  0.6608
   17MOL   H384 9376   1.467   1.433   7.038 -0.0476  1.4707 -0.8875
   17MOL   H385 9377   1.561   1.185   7.071 -0.9862 -0.5975  0.1034
   17MOL   H386 9378   1.697   1.014   6.978  1.0879  0.8822  0.2140
   17MOL   H387 9379   1.815   0.701   6.678  0.1407 -0.7752  0.7752
   17MOL   H388 9380   1.842   0.682   6.846 -1.5905 -0.4191 -1.0139
   17MOL   H389 9381   2.071   0.716   6.715 -0.6951  0.4092 -0.7729
   17MOL   H390 9382   2.019   0.857   6.660 -0.6126  0.3491  1.1524
   17MOL   H391 9383   1.614   1.159   6.575  1.8147  1.0464  0.6922
   17MOL   H392 9384   1.543   1.396   6.552 -0.2281  3.7817  0.6343
   17MOL   H393 9385   1.422   1.576   6.634  0.8712 -0.7473 -0.5526
   17MOL   O394 9386   1.971   1.048   6.816  0.0565  0.0213  0.1651
   17MOL   C395 9387   2.046   0.980   6.892  1.0852 -0.2952  0.1513
   17MOL   O396 9388   2.067   0.850   6.865  0.2806  0.0681 -0.1764
   17MOL   C397 9389   2.103   1.036   7.017  0.2004 -0.2668  0.1648
   17MOL   C398 9390   2.171   0.959   7.117 -0.8432  0.1944  0.0193
   17MOL   C399 9391   2.222   1.023   7.227  0.3546  0.4139 -0.1384
   17MOL   C400 9392   2.302   0.945   7.318 -0.1589  0.3313 -0.5885
   17MOL   C401 9393   2.362   1.010   7.429 -0.1968  0.1738  0.6892
   17MOL   C402 9394   2.348   1.148   7.447  1.0989 -0.3600 -0.5413
   17MOL   C403 9395   2.409   1.214   7.563 -0.1409  0.2615 -0.1353
   17MOL   O404 9396   2.397   1.347   7.568  0.1216 -0.6405 -0.4408
   17MOL   C405 9397   2.433   1.421   7.679  0.0825 -0.2355 -0.4646
   17MOL   C406 9398   2.310   1.427   7.765  0.0071 -0.3201 -0.2878
   17MOL   O407 9399   2.468   1.149   7.649 -0.3434 -0.6109  0.0837
   17MOL   C408 9400   2.270   1.224   7.355  0.1827  0.2137  0.4849
   17MOL   C409 9401   2.213   1.161   7.247  0.0513 -0.7633 -0.0638
   17MOL   C410 9402   2.136   1.238   7.158  0.8593 -0.0296 -1.0496
   17MOL   C411 9403   2.083   1.177   7.041 -0.1227 -0.0253 -0.0843
   17MOL   H412 9404   2.186   0.853   7.101  0.3155  0.3448  0.0890
   17MOL   H413 9405   2.316   0.839   7.309  0.8940  0.4292 -0.2072
   17MOL   H414 9406   2.422   0.954   7.499 -1.1695 -1.3178  0.3382
   17MOL   H415 9407   2.466   1.514   7.635 -2.2405 -0.0128 -1.8364
   17MOL   H416 9408   2.519   1.373   7.726  0.6634 -0.0062 -1.2825
   17MOL   H417 9409   2.309   1.529   7.804 -0.9994  0.5229 -2.4155
   17MOL   H418 9410   2.229   1.420   7.691 -0.1325 -0.7096 -0.1005
   17MOL   H419 9411   2.269   1.332   7.355  1.7449  0.2399 -0.8389
   17MOL   H420 9412   2.127   1.345   7.169 -0.5137 -0.2405 -0.0587
   17MOL   H421 9413   2.018   1.229   6.972  0.3117 -2.0480 -2.0932
   17MOL   O422 9414   2.091   1.302   7.918 -0.2758 -0.3843 -1.1801
   17MOL   C423 9415   2.209   1.272   7.937  0.0491 -0.1671 -0.1335
   17MOL   O424 9416   2.320   1.327   7.867  0.2282 -0.0408  0.3310
   17MOL   C425 9417   2.256   1.167   8.030  0.0872  0.3657  0.6235
   17MOL   C426 9418   2.364   1.084   7.990 -0.0633 -0.3089 -0.3943
   17MOL   C427 9419   2.397   0.977   8.080 -0.2828 -0.1919 -0.0287
   17MOL   C428 9420   2.493   0.886   8.033 -0.3557  0.6300 -0.2384
   17MOL   C429 9421   2.534   0.774   8.104  0.6656 -0.5397  0.6104
   17MOL   C430 9422   2.470   0.750   8.227  0.1888  0.0672 -0.0037
   17MOL   C431 9423   2.500   0.627   0.055 -0.1852  0.4826  0.4620
   17MOL   O432 9424   2.570   0.539   8.230 -0.3988  0.7104  0.6606
   17MOL   C433 9425   2.593   0.403   0.028  0.5487  0.3553 -0.1443
   17MOL   C434 9426   2.739   0.363   0.003  0.5600 -0.4915  0.0088
   17MOL   O435 9427   2.448   0.606   0.162 -0.6102 -0.2886  0.0583
   17MOL   C436 9428   2.372   0.838   0.029 -0.2579  0.0248 -0.0755
   17MOL   C437 9429   2.332   0.951   8.202  0.1650  0.1437  0.6660
   17MOL   C438 9430   2.226   1.037   8.237  0.0961 -0.4125 -0.2036
   17MOL   C439 9431   2.187   1.145   8.147  0.3745 -0.2647  0.2914
   17MOL   H440 9432   2.421   1.099   7.900  0.2622 -1.0895 -0.3247
   17MOL   H441 9433   2.544   0.908   7.940 -0.0902  0.2131 -0.1921
   17MOL   H442 9434   2.609   0.709   8.063  0.3744 -0.5007  0.0069
   17MOL   H443 9435   2.525   0.348   8.211  1.9496  1.1382 -2.2846
   17MOL   H444 9436   2.559   0.381   0.129 -2.7021 -0.9697 -1.4361
   17MOL   H445 9437   2.741   0.257   8.227 -1.0098 -0.8911  1.4962
   17MOL   H446 9438   2.775   0.413   8.162  0.1588  2.0054  1.1979
   17MOL   H447 9439   2.324   0.809   0.121 -1.9995  0.8067 -0.7199
   17MOL   H448 9440   2.170   1.018   0.079  0.3322 -1.0865 -0.1986
   17MOL   H449 9441   2.101   1.208   8.165  1.6073  1.7540 -0.6680
   17MOL   O450 9442   2.834   0.610   0.066 -0.3827  0.1325  0.3145
   17MOL   C451 9443   2.867   0.509   0.134  0.6438  0.3637  0.6390
   17MOL   O452 9444   2.824   0.385   0.109 -0.0265  0.4212 -0.1888
   17MOL   C453 9445   2.985   0.510   0.225  0.2846  0.6173  0.2227
   17MOL   C454 9446   3.037   0.635   0.267  0.0393  0.4783  0.1004
   17MOL   C455 9447   3.141   0.645   0.363 -0.0806 -0.1823 -1.1008
   17MOL   C456 9448   3.204   0.770   0.393  0.2788  0.1390  0.2904
   17MOL   C457 9449   3.322   0.772   0.473  0.7595 -0.0709 -0.2871
   17MOL   C458 9450   3.372   0.646   0.521  0.1214  0.6214 -0.0679
   17MOL   C459 9451   3.500   0.634   0.607  0.6130 -0.9336  0.6579
   17MOL   O460 9452   3.534   0.752   0.658  0.2302  0.0209  0.0081
   17MOL   C461 9453   3.659   0.775   0.724  0.2030 -0.4314 -0.1759
   17MOL   C462 9454   3.641   0.738   0.873 -0.6762  0.1911 -0.3027
   17MOL   O463 9455   3.563   0.531   0.629 -0.2542  0.2064 -0.4562
   17MOL   C464 9456   3.297   0.531   0.502 -0.6510  0.1942  0.7331
   17MOL   C465 9457   3.186   0.524   0.423 -0.1218  0.0244 -0.1440
   17MOL   C466 9458   3.126   0.401   0.390  0.3336  0.2124  0.1223
   17MOL   C467 9459   3.035   0.393   0.288 -0.1360  0.4799 -0.0244
   17MOL   H468 9460   2.994   0.722   0.219  1.2209  0.9000 -0.2173
   17MOL   H469 9461   3.170   0.858   0.340  0.2424 -0.8107 -1.2943
   17MOL   H470 9462   3.375   0.865   0.489 -0.7601  1.1927 -2.3960
   17MOL   H471 9463   3.696   0.877   0.729  1.1097 -0.7510 -0.2674
   17MOL   H472 9464   3.745   0.722   0.682  0.4444  1.8872 -2.7884
   17MOL   H473 9465   3.721   0.791   0.926 -0.8867  0.2855 -0.0811
   17MOL   H474 9466   3.541   0.764   0.906 -1.3676  0.7186 -2.7623
   17MOL   H475 9467   3.335   0.434   0.529 -0.5850 -0.0022 -0.0452
   17MOL   H476 9468   3.153   0.311   0.444 -0.2668 -0.0659 -0.0397
   17MOL   H477 9469   2.995   0.296   0.262 -0.3317  0.9528 -1.5524
   17MOL   O478 9470   3.690   0.639   1.125  0.9044 -0.3407 -0.2190
   17MOL   C479 9471   3.689   0.558   1.030 -0.0126  0.1563  0.5779
   17MOL   O480 9472   3.662   0.599   0.898 -0.1410  0.3920  0.1928
   17MOL   C481 9473   3.722   0.412   1.045  0.1663  0.4989 -0.6114
   17MOL   C482 9474   3.700   0.320   0.941  0.0217 -0.0861 -0.1653
   17MOL   C483 9475   3.729   0.178   0.961  0.1478 -0.3670 -0.2730
   17MOL   C484 9476   3.679   0.081   0.872  0.3451  0.4244  0.0629
   17MOL   C485 9477   3.710   8.194   0.889 -0.3345  0.7049  0.3225
   17MOL   C486 9478   3.777   8.149   1.003  0.3939 -0.6055  0.1450
   17MOL   C487 9479   3.780   8.004   1.045 -0.6107  0.3427 -0.2762
   17MOL   O488 9480   3.745   7.917   0.952 -0.2729 -0.1656 -0.3511
   17MOL   C489 9481   3.786   7.780   0.956  0.2881  0.1114 -0.1706
   17MOL   C490 9482   3.718   7.702   0.840  0.1903  0.4019  0.0795
   17MOL   O491 9483   3.833   7.973   1.156 -0.0543  0.6365  0.5020
   17MOL   C492 9484   3.831   8.246   1.092 -0.6512  0.1260 -0.0234
   17MOL   C493 9485   3.798   0.129   1.074 -0.0636  0.3899  0.2056
   17MOL   C494 9486   3.821   0.227   1.179  0.1573  0.3433 -0.3948
   17MOL   C495 9487   3.782   0.360   1.166 -0.1593 -0.0225 -0.0704
   17MOL   H496 9488   3.646   0.356   0.855  0.2522  2.8680  0.8804
   17MOL   H497 9489   3.625   0.118   0.786  1.1619  0.8300 -0.2731
   17MOL   H498 9490   3.671   8.123   0.818  0.4120  1.2899 -0.6792
   17MOL   H499 9491   3.756   7.739   1.052  0.5814 -0.4017 -0.2957
   17MOL   H500 9492   3.894   7.782   0.939  0.4984 -0.7703  1.0282
   17MOL   H501 9493   3.739   7.596   0.855 -0.0786  0.4638  0.9265
   17MOL   H502 9494   3.609   7.695   0.846  0.1095  1.9816  0.7011
   17MOL   H503 9495   3.875   8.210   1.184 -2.8989  0.9629  1.4387
   17MOL   H504 9496   3.866   0.190   1.269  0.3326  0.9603 -0.2238
   17MOL   H505 9497   3.801   0.424   1.251  0.4767 -1.1449  0.6604
   17MOL   O506 9498   3.937   7.662   0.690  0.0752  0.0764 -0.6531
   17MOL   C507 9499   3.858   7.750   0.663  0.2581  0.4553 -0.3310
   17MOL   O508 9500   3.742   7.761   0.720  0.1000  0.1054  0.7472
   17MOL   C509 9501   3.882   7.853   0.555  0.2087 -0.2613 -0.0175
   17MOL   C510 9502   4.014   7.884   0.516 -0.6137 -0.4330  0.1223
   17MOL   C511 9503   4.039   8.003   0.439 -0.5237  0.5185  0.4871
   17MOL   C512 9504   4.174   8.033   0.400  0.2393  0.3494 -0.6945
   17MOL   C513 9505   4.203   8.146   0.327  0.1652  0.3586  0.2463
   17MOL   C514 9506   4.100   8.229   0.289 -1.0461 -0.5405  0.4407
   17MOL   C515 9507   4.133   0.109   0.224 -0.3784 -0.1857  0.3098
   17MOL   O516 9508   4.029   0.177   0.182 -0.0879  0.2995  0.1315
   17MOL   C517 9509   4.041   0.315   0.146 -0.8070 -0.4582 -0.6680
   17MOL   C518 9510   4.043   0.345   8.246  0.2234  0.2080 -0.5411
   17MOL   O519 9511   4.248   0.152   0.210  0.0991 -0.2751 -0.1823
   17MOL   C520 9512   3.957   8.198   0.311 -0.1142  0.1875 -0.0056
   17MOL   C521 9513   3.931   8.080   0.388  0.5234  0.1456 -0.1760
   17MOL   C522 9514   3.800   8.040   0.423 -0.1726  0.3491  0.0984
   17MOL   C523 9515   3.774   7.932   0.503 -0.1800 -0.1732 -0.1793
   17MOL   H524 9516   4.093   7.822   0.555  1.0581  0.4829 -1.7089
   17MOL   H525 9517   4.252   7.963   0.425 -0.0485  0.4373  0.4994
   17MOL   H526 9518   4.307   8.173   0.314 -0.0450  1.2140  0.3666
   17MOL   H527 9519   4.134   0.357   0.185 -0.6467 -1.2002 -0.2380
   17MOL   H528 9520   3.960   0.367   0.197 -0.2582 -0.3060  0.0618
   17MOL   H529 9521   4.138   0.315   8.201 -1.6550 -2.6033 -2.8050
   17MOL   H530 9522   3.961   0.294   8.196  0.5661 -1.9636  0.9985
   17MOL   H531 9523   3.870   0.010   0.295 -0.2675  0.1575  0.6939
   17MOL   H532 9524   3.715   8.090   0.379 -1.4160 -0.4756  1.4965
   17MOL   H533 9525   3.673   7.914   0.537  0.6093 -0.2406  2.2679
   17MOL   O534 9526   4.263   0.506   0.009 -0.2178  0.0625 -0.0228
   17MOL   C535 9527   4.154   0.559   8.231 -0.0362 -0.7356 -0.3339
   17MOL   O536 9528   4.044   0.489   8.218  0.0330  0.1815  0.2911
   17MOL   C537 9529   4.136   0.707   8.206  0.0511 -0.3146  0.3490
   17MOL   C538 9530   4.049   0.754   8.101 -0.3892  0.3806  0.1335
   17MOL   C539 9531   4.033   0.890   8.082  0.2992  0.4409  0.2958
   17MOL   C540 9532   3.945   0.933   7.983 -0.2957 -0.6800  0.3747
   17MOL   C541 9533   3.913   1.068   7.980 -0.5118 -0.3422 -0.2304
   17MOL   C542 9534   3.987   1.167   8.054 -0.5989 -0.6124  0.1922
   17MOL   C543 9535   3.958   1.313   8.043  0.3581 -0.2587 -0.8849
   17MOL   O544 9536   4.016   1.391   8.134  0.3649 -0.4712  0.7962
   17MOL   C545 9537   4.006   1.528   8.131 -0.1063 -0.4179 -0.3433
   17MOL   C546 9538   4.133   1.583   8.190  0.1448 -0.2909  0.2687
   17MOL   O547 9539   3.887   1.350   7.952  0.5755 -0.2739 -0.7534
   17MOL   C548 9540   4.083   1.123   8.148  0.1587  0.1715  0.2801
   17MOL   C549 9541   4.107   0.981   8.152  0.6504 -0.4385  0.0263
   17MOL   C550 9542   4.195   0.937   0.010  0.3058 -0.5186  0.4371
   17MOL   C551 9543   4.214   0.803   0.029 -0.2529  0.2294  0.2979
   17MOL   H552 9544   4.001   0.682   8.036  0.7987  0.1194 -0.4523
   17MOL   H553 9545   3.889   0.862   7.924 -1.5382 -0.6850  1.5626
   17MOL   H554 9546   3.830   1.100   7.919 -1.9523 -2.6568  0.4710
   17MOL   H555 9547   3.917   1.569   8.179  0.4297  1.9693 -1.3464
   17MOL   H556 9548   4.013   1.563   8.028  1.4726  0.1328 -0.0688
   17MOL   H557 9549   4.132   1.692   8.186 -0.7019 -0.2507  1.3348
   17MOL   H558 9550   4.228   1.548   8.149 -0.6168 -0.6619 -1.2030
   17MOL   H559 9551   4.144   1.195   8.202 -1.7377  1.2246  1.0810
   17MOL   H560 9552   4.238   1.016   0.069 -2.0690  1.8664 -0.9077
   17MOL   H561 9553   4.293   0.776   0.097 -0.3385  0.6540  0.5651
   17MOL   H562 9554   4.143   1.551   0.045  1.6702 -1.2727 -0.1645
   18MOL     O1 9555   0.553   1.256   1.759 -0.5159  0.3494  0.1564
   18MOL     C2 9556   0.477   1.355   1.736  0.1309 -0.4079 -0.5748
   18MOL     O3 9557   0.449   1.463   1.815  0.0212 -0.4274 -0.5508
   18MOL     C4 9558   0.384   1.345   1.613 -0.1972  0.5599  0.1586
   18MOL     C5 9559   0.348   1.221   1.551  0.0837  0.0680 -0.8954
   18MOL     C6 9560   0.248   1.213   1.450  0.5670  0.3936 -0.1780
   18MOL     C7 9561   0.221   1.094   1.377  0.0507 -0.6735 -0.3317
   18MOL     C8 9562   0.133   1.089   1.268 -0.6751 -0.0584 -0.6284
   18MOL     C9 9563   0.080   1.212   1.229 -0.1340  0.3909 -0.4335
   18MOL    C10 9564   8.236   1.219   1.112 -0.1299 -0.5141 -0.4622
   18MOL    O11 9565   8.208   1.095   1.069  0.9240  0.8660 -0.3619
   18MOL    C12 9566   8.111   1.080   0.965 -0.0827 -0.0238  0.5916
   18MOL    C13 9567   8.113   0.929   0.940  0.0085  0.4801 -0.0366
   18MOL    O14 9568   8.188   1.323   1.062  0.2597 -0.4085  0.3913
   18MOL    C15 9569   0.104   1.335   1.293  0.1960 -0.1917 -0.4288
   18MOL    C16 9570   0.185   1.337   1.409  0.3854  0.2702  0.3350
   18MOL    C17 9571   0.208   1.452   1.471 -0.0465 -0.3220  0.0093
   18MOL    C18 9572   0.311   1.457   1.567  0.6845 -0.0981 -0.3773
   18MOL    H19 9573   0.380   1.130   1.600  0.5722  0.6895 -0.0458
   18MOL    H20 9574   0.272   1.002   1.403  1.3561  0.1258 -0.0384
   18MOL    H21 9575   0.128   0.998   1.210  0.1231 -0.1834 -0.5098
   18MOL    H22 9576   8.021   1.119   1.013  0.0924  1.2325 -0.0729
   18MOL    H23 9577   8.139   1.142   0.880 -0.7631 -0.6474 -0.1010
   18MOL    H24 9578   8.205   0.902   0.887 -0.3239  2.2690 -1.5725
   18MOL    H25 9579   8.140   0.886   1.037 -3.0067  0.5720  0.8808
   18MOL    H26 9580   0.060   1.428   1.261  1.6922  0.7340  0.1208
   18MOL    H27 9581   0.182   1.553   1.440 -0.6892 -0.1558  1.0757
   18MOL    H28 9582   0.327   1.552   1.616  1.2687  0.0775 -0.9020
   18MOL    H29 9583   0.506   1.480   1.889 -1.3150  0.1929  0.3573
   18MOL    O30 9584   8.055   0.960   0.688 -0.3616 -0.1098 -0.2720
   18MOL    C31 9585   7.971   0.918   0.759  0.3918 -0.4473 -0.1712
   18MOL    O32 9586   7.987   0.891   0.891  0.0972 -0.3496  0.0346
   18MOL    C33 9587   7.822   0.909   0.723  0.0318  0.2772 -0.0473
   18MOL    C34 9588   7.720   0.859   0.808  0.1802 -0.3035 -1.1811
   18MOL    C35 9589   7.594   0.833   0.752 -0.7379 -0.4183  0.3629
   18MOL    C36 9590   7.493   0.774   0.833  0.3576  0.3370 -0.2604
   18MOL    C37 9591   7.379   0.724   0.774  0.1018 -0.1976  0.9620
   18MOL    C38 9592   7.363   0.733   0.633 -0.1446 -0.0996 -0.6250
   18MOL    C39 9593   7.251   0.662   0.558 -0.1713  0.5243  0.0477
   18MOL    O40 9594   7.167   0.599   0.640  0.3102  0.0072 -0.0725
   18MOL    C41 9595   7.059   0.533   0.583 -0.3646 -0.6841 -0.0413
   18MOL    C42 9596   6.931   0.624   0.565 -0.3051 -0.9271  0.1028
   18MOL    O43 9597   7.241   0.659   0.437  0.2719  0.6256  0.3645
   18MOL    C44 9598   7.450   0.813   0.558  0.1021 -0.1051  0.7738
   18MOL    C45 9599   7.570   0.857   0.613 -0.3222  0.8831  0.5389
   18MOL    C46 9600   7.671   0.905   0.524  0.3249  0.4135 -0.1245
   18MOL    C47 9601   7.797   0.931   0.583  0.0872 -0.4263 -0.3140
   18MOL    H48 9602   7.730   0.824   0.910  0.5487  1.7594 -0.4919
   18MOL    H49 9603   7.513   0.749   0.936 -3.1771  0.3365  0.4782
   18MOL    H50 9604   7.317   0.660   0.836  0.0558  0.2317  1.3599
   18MOL    H51 9605   7.037   0.452   0.652 -0.6149 -0.3742  0.2444
   18MOL    H52 9606   7.085   0.490   0.486  2.6062  1.8339 -0.4712
   18MOL    H53 9607   6.958   0.703   0.495 -1.3238  0.6104  1.4121
   18MOL    H54 9608   6.848   0.571   0.519  0.1776 -1.7860  0.2201
   18MOL    H55 9609   7.420   0.849   0.460  1.5891  0.9629  0.7080
   18MOL    H56 9610   7.655   0.916   0.418  0.6650 -0.8213 -0.3100
   18MOL    H57 9611   7.875   0.968   0.518 -0.5747  2.0603  0.2526
   18MOL    O58 9612   6.797   0.479   0.770  0.1025 -0.2858  1.1120
   18MOL    C59 9613   6.825   0.595   0.797  0.0882  0.7690  0.1110
   18MOL    O60 9614   6.888   0.677   0.699  0.2856  0.1476 -0.5595
   18MOL    C61 9615   6.769   0.664   0.918  0.2197 -0.0424 -0.4838
   18MOL    C62 9616   6.788   0.803   0.932  0.6562 -0.3305 -0.1839
   18MOL    C63 9617   6.719   0.875   1.034  0.2570 -0.1145 -0.8681
   18MOL    C64 9618   6.741   1.018   1.049  0.1000  0.2875 -0.0672
   18MOL    C65 9619   6.656   1.087   1.135  0.5223 -0.2105 -0.1518
   18MOL    C66 9620   6.563   1.023   1.214  0.3929 -0.3090 -0.2200
   18MOL    C67 9621   6.471   1.097   1.308 -0.7293  0.2952  0.4521
   18MOL    O68 9622   6.509   1.223   1.330  0.3641 -0.6466 -0.1081
   18MOL    C69 9623   6.439   1.313   1.407 -0.5065  0.4657 -0.5245
   18MOL    C70 9624   6.441   1.287   1.558  0.2381 -0.2908 -0.5180
   18MOL    O71 9625   6.368   1.046   1.352  0.5431 -0.3125 -0.8673
   18MOL    C72 9626   6.546   0.885   1.207 -0.1760  0.1966 -0.2645
   18MOL    C73 9627   6.626   0.810   1.117  0.5861 -0.0155 -0.0987
   18MOL    C74 9628   6.605   0.669   1.096  0.3424 -0.0232  0.0125
   18MOL    C75 9629   6.683   0.599   1.002 -0.3837 -0.5896 -0.3082
   18MOL    H76 9630   6.854   0.860   0.869  1.6032  0.7760  1.7433
   18MOL    H77 9631   6.812   1.064   0.983 -0.3838  0.8058 -0.2362
   18MOL    H78 9632   6.661   1.194   1.146  2.1573  0.0382 -3.0432
   18MOL    H79 9633   6.335   1.320   1.376 -1.4315  0.4103  2.4524
   18MOL    H80 9634   6.482   1.411   1.388  0.1397  0.2841 -0.0055
   18MOL    H81 9635   6.379   1.361   1.608  1.8532  0.8644 -0.1953
   18MOL    H82 9636   6.394   1.191   1.582  1.3037 -0.4010  1.2749
   18MOL    H83 9637   6.483   0.833   1.278 -0.6689  1.0273 -0.0921
   18MOL    H84 9638   6.534   0.618   1.159  0.8856 -0.2950  0.4097
   18MOL    H85 9639   6.673   0.492   1.011 -0.1745 -0.7132 -1.5399
   18MOL    O86 9640   6.577   1.065   1.624 -0.1693  0.2264 -0.0454
   18MOL    C87 9641   6.634   1.170   1.641  0.0163  0.0722 -0.6317
   18MOL    O88 9642   6.574   1.290   1.606 -0.5264 -0.8866  0.3903
   18MOL    C89 9643   6.770   1.177   1.688 -0.2633 -0.0829 -0.3911
   18MOL    C90 9644   6.834   1.297   1.667 -0.0103  0.0330 -0.3517
   18MOL    C91 9645   6.968   1.317   1.696 -0.3504  0.3885  0.0789
   18MOL    C92 9646   7.034   1.438   1.676 -0.9691  0.0415 -0.0368
   18MOL    C93 9647   7.171   1.456   1.709  0.0570 -0.2187 -0.1555
   18MOL    C94 9648   7.247   1.336   1.743 -0.1258 -0.4234 -0.2975
   18MOL    C95 9649   7.387   1.352   1.779  0.2939 -0.3209 -0.5632
   18MOL    O96 9650   7.438   1.469   1.755 -0.6074  0.0735 -0.2784
   18MOL    C97 9651   7.575   1.490   1.773 -0.2548 -0.0422  0.0935
   18MOL    C98 9652   7.620   1.634   1.740 -0.5823  0.1181 -0.3461
   18MOL    O99 9653   7.450   1.255   1.821  0.7167 -0.8459 -0.2236
   18MOL   C100 9654   7.191   1.210   1.757  0.5043  0.1900 -0.0644
   18MOL   C101 9655   7.047   1.210   1.747 -0.5399 -0.1834 -0.2825
   18MOL   C102 9656   6.982   1.084   1.765  0.6717  0.0695 -0.5722
   18MOL   C103 9657   6.847   1.068   1.731  0.3453 -0.5202  0.3632
   18MOL   H104 9658   6.781   1.383   1.629 -0.7547 -0.9112 -1.4860
   18MOL   H105 9659   6.975   1.522   1.642 -0.3743  0.1590 -0.8072
   18MOL   H106 9660   7.213   1.554   1.696 -0.5539  0.0814  0.0836
   18MOL   H107 9661   7.624   1.418   1.707 -0.4211 -1.7514  1.7896
   18MOL   H108 9662   7.602   1.454   1.872  1.3828 -2.0447 -1.0379
   18MOL   H109 9663   7.715   1.633   1.685  0.4784  0.3126  1.4356
   18MOL   H110 9664   7.556   1.689   1.672 -1.0760  0.8452  0.6999
   18MOL   H111 9665   7.251   1.125   1.785 -0.6184 -0.9468 -1.0599
   18MOL   H112 9666   7.043   1.001   1.795 -2.4190 -2.1748 -0.1757
   18MOL   H113 9667   6.801   0.972   1.750  0.1298 -0.4147  0.3788
   18MOL   O114 9668   7.853   1.637   1.884  0.0619 -0.4715  0.4679
   18MOL   C115 9669   7.755   1.702   1.923  0.3767 -0.3304 -0.0092
   18MOL   O116 9670   7.638   1.713   1.856 -0.6162  0.6514 -0.7893
   18MOL   C117 9671   7.754   1.764   2.058 -0.0547 -0.3461  0.7741
   18MOL   C118 9672   7.691   1.890   2.084 -0.3357  0.1911  0.2727
   18MOL   C119 9673   7.702   1.954   2.208 -0.2775  0.0818 -0.3192
   18MOL   C120 9674   7.655   2.087   2.228  0.1034 -0.4240 -0.1761
   18MOL   C121 9675   7.671   2.156   2.353 -0.0741 -0.1077 -0.2651
   18MOL   C122 9676   7.716   2.075   2.464 -0.2346  0.1321  0.4532
   18MOL   C123 9677   7.715   2.132   2.601  0.5433 -0.5552 -0.0400
   18MOL   O124 9678   7.781   2.054   2.698  0.5530 -0.9733 -0.2626
   18MOL   C125 9679   7.797   2.101   2.831 -0.4140 -0.3254 -0.1988
   18MOL   C126 9680   7.669   2.149   2.903  0.4509  0.3890 -0.8302
   18MOL   O127 9681   7.660   2.241   2.635  0.4030 -0.1941 -0.2661
   18MOL   C128 9682   7.768   1.941   2.438  0.3260 -0.2318 -0.5619
   18MOL   C129 9683   7.765   1.880   2.311 -0.3018  0.2017  0.2431
   18MOL   C130 9684   7.814   1.747   2.294 -0.5265 -0.7479 -0.3176
   18MOL   C131 9685   7.810   1.692   2.163  0.9768  0.1844  0.1505
   18MOL   H132 9686   7.629   1.936   2.008 -0.0756  0.9836  0.5409
   18MOL   H133 9687   7.604   2.140   2.149  1.8361  1.1235 -0.3064
   18MOL   H134 9688   7.626   2.253   2.370  0.1276 -0.0680  0.0599
   18MOL   H135 9689   7.867   2.184   2.839 -0.1160 -0.7311  1.5092
   18MOL   H136 9690   7.849   2.026   2.890  0.3574  1.2320  1.1569
   18MOL   H137 9691   7.658   2.255   2.924 -0.3323 -0.0803  1.2352
   18MOL   H138 9692   7.581   2.121   2.845  0.1987 -0.7276  0.0870
   18MOL   H139 9693   7.801   1.893   2.529  0.4216  2.0983  0.6726
   18MOL   H140 9694   7.863   1.696   2.376  2.0089 -1.8058 -2.4328
   18MOL   H141 9695   7.845   1.592   2.142 -4.1207 -1.1722 -2.6178
   18MOL   O142 9696   7.809   2.153   3.142 -0.0710  0.2869 -0.6190
   18MOL   C143 9697   7.702   2.083   3.139  0.0386  0.0446 -0.2073
   18MOL   O144 9698   7.635   2.073   3.025  0.6552 -0.2800 -0.3259
   18MOL   C145 9699   7.648   2.020   3.257  0.4284  0.4085  0.2798
   18MOL   C146 9700   7.708   2.050   3.377 -0.7297 -0.5190  0.7337
   18MOL   C147 9701   7.662   1.983   3.494 -0.6508  0.8036 -0.4686
   18MOL   C148 9702   7.734   1.996   3.612  0.2703 -0.1202 -0.1603
   18MOL   C149 9703   7.687   1.940   3.731  0.3232  0.4651  0.1307
   18MOL   C150 9704   7.575   1.860   3.734 -0.3771 -0.0433 -0.3889
   18MOL   C151 9705   7.518   1.807   3.863 -0.1532  0.1257 -0.3750
   18MOL   O152 9706   7.434   1.706   3.846  0.4697 -0.2323  0.1230
   18MOL   C153 9707   7.360   1.653   3.954 -0.1379  0.0476  0.5820
   18MOL   C154 9708   7.223   1.724   3.959  0.4076 -0.5725  0.1367
   18MOL   O155 9709   7.549   1.851   3.974 -0.1870 -0.2402  0.0504
   18MOL   C156 9710   7.510   1.830   3.612 -0.0823  0.6188 -0.1788
   18MOL   C157 9711   7.553   1.895   3.491 -0.9169  0.0178  0.2660
   18MOL   C158 9712   7.486   1.881   3.368  0.1045 -0.0798 -0.1976
   18MOL   C159 9713   7.529   1.947   3.253  0.8075 -0.3637 -0.4714
   18MOL   H160 9714   7.801   2.103   3.392 -0.2073 -2.0050  2.8959
   18MOL   H161 9715   7.826   2.052   3.617  0.6650 -0.7715 -0.0802
   18MOL   H162 9716   7.743   1.952   3.822  1.6153 -1.7602 -0.3477
   18MOL   H163 9717   7.412   1.659   4.049 -0.7809  0.1346  0.9300
   18MOL   H164 9718   7.340   1.546   3.941  1.4370 -0.3443  1.3324
   18MOL   H165 9719   7.224   1.816   4.018 -2.6536 -1.9904  2.5489
   18MOL   H166 9720   7.190   1.762   3.862 -3.7941 -1.7487  1.0147
   18MOL   H167 9721   7.424   1.766   3.607  0.3210  0.1056 -0.6588
   18MOL   H168 9722   7.396   1.822   3.365  1.3809 -2.0739 -0.1477
   18MOL   H169 9723   7.469   1.936   3.164 -0.3826 -1.6069  0.4573
   18MOL   O170 9724   7.199   1.627   4.215 -0.0093  0.1496 -0.7798
   18MOL   C171 9725   7.111   1.603   4.134 -0.6925  0.0726  0.2755
   18MOL   O172 9726   7.118   1.640   4.011  0.3016 -0.5148  0.4353
   18MOL   C173 9727   6.995   1.514   4.162  0.3085 -0.1451 -0.2852
   18MOL   C174 9728   6.883   1.522   4.083 -0.6299  0.1303  0.5883
   18MOL   C175 9729   6.770   1.437   4.100 -0.4397  0.0452  0.5295
   18MOL   C176 9730   6.649   1.448   4.029  0.0943 -0.2280  0.0617
   18MOL   C177 9731   6.538   1.380   4.074 -0.5941 -0.1768 -0.1580
   18MOL   C178 9732   6.551   1.271   4.158 -0.6794 -0.3231  0.0827
   18MOL   C179 9733   6.428   1.188   4.174 -0.0918  0.2362  0.0287
   18MOL   O180 9734   6.459   1.082   4.253  0.2780 -0.6280  0.0983
   18MOL   C181 9735   6.362   0.975   4.280 -0.5644  0.3501  0.2430
   18MOL   C182 9736   6.359   0.859   4.182 -0.1559  0.0641 -0.0831
   18MOL   O183 9737   6.318   1.205   4.119  0.1368  0.0864 -0.2294
   18MOL   C184 9738   6.676   1.244   4.216  0.1961  0.3117 -0.3612
   18MOL   C185 9739   6.783   1.329   4.190  0.1149  0.1000  0.1417
   18MOL   C186 9740   6.906   1.313   4.262  0.3384 -0.6390 -0.0617
   18MOL   C187 9741   7.008   1.407   4.247 -0.0570  0.0160 -0.4286
   18MOL   H188 9742   6.881   1.598   4.006 -0.8140 -1.1285 -0.6642
   18MOL   H189 9743   6.628   1.533   3.965  0.2652  0.0470  0.3690
   18MOL   H190 9744   6.445   1.401   4.023 -0.7180 -1.0243 -0.2945
   18MOL   H191 9745   6.262   1.012   4.302 -1.7974 -0.9120 -3.0500
   18MOL   H192 9746   6.385   0.920   4.372  0.9735  1.4617  0.5405
   18MOL   H193 9747   6.399   0.890   4.086  1.3511 -0.1375  0.4626
   18MOL   H194 9748   6.411   0.771   4.221 -2.6064 -1.4812 -0.2260
   18MOL   H195 9749   6.686   1.161   4.285  0.7814  0.3009 -0.4522
   18MOL   H196 9750   6.925   1.221   4.315  0.1389  0.2124  1.5218
   18MOL   H197 9751   7.098   1.387   4.304  0.8322  0.0429 -1.8037
   18MOL   O198 9752   6.213   0.708   4.335 -0.4226 -0.2486 -0.2100
   18MOL   C199 9753   6.153   0.753   4.238  0.9136  0.1845 -1.0486
   18MOL   O200 9754   6.217   0.842   4.155  0.2803  1.2024  0.2750
   18MOL   C201 9755   6.018   0.723   4.189  0.0669  0.4841  0.0487
   18MOL   C202 9756   5.960   0.782   4.072 -0.2292  0.2579  0.3695
   18MOL   C203 9757   5.828   0.744   4.028 -0.1255  0.6994  0.4927
   18MOL   C204 9758   5.768   0.806   3.916  0.3513  0.1456 -0.2301
   18MOL   C205 9759   5.638   0.771   3.879 -0.4525  0.6751  0.0065
   18MOL   C206 9760   5.561   0.686   3.954  0.6403  0.3130  0.0019
   18MOL   C207 9761   5.411   0.662   3.924  0.2561 -0.3432  0.3058
   18MOL   O208 9762   5.372   0.710   3.804 -0.1420 -0.4010 -0.1654
   18MOL   C209 9763   5.240   0.734   3.775 -0.6470 -0.4433  0.1963
   18MOL   C210 9764   5.240   0.877   3.720  0.6261 -0.1488  0.0505
   18MOL   O211 9765   5.338   0.602   4.004  0.3603  0.3626 -0.4311
   18MOL   C212 9766   5.618   0.618   4.066  0.2501 -0.4598  0.3942
   18MOL   C213 9767   5.754   0.650   4.106 -0.0324 -0.6777  0.0646
   18MOL   C214 9768   5.814   0.585   4.209 -0.1315  0.3558 -1.1569
   18MOL   C215 9769   5.943   0.623   4.249 -0.0751 -0.8457 -0.4421
   18MOL   H216 9770   6.027   0.854   4.026 -0.6984  0.5930  0.2037
   18MOL   H217 9771   5.824   0.883   3.865 -0.7145  0.1877 -1.3577
   18MOL   H218 9772   5.587   0.817   3.795 -0.1383  0.8358 -0.0978
   18MOL   H219 9773   5.161   0.716   3.848 -0.0351  1.3931  1.3628
   18MOL   H220 9774   5.226   0.668   3.690 -0.2699 -1.1291  0.6603
   18MOL   H221 9775   5.337   0.901   3.678  0.6336 -0.4120 -0.0781
   18MOL   H222 9776   5.159   0.898   3.650  2.2144  0.0605 -1.7532
   18MOL   H223 9777   5.559   0.546   4.121  0.8169  1.0541  3.0401
   18MOL   H224 9778   5.759   0.522   4.278  1.6350 -0.9271 -0.8980
   18MOL   H225 9779   5.982   0.579   4.339 -0.7456  0.3529  0.4412
   18MOL   O226 9780   5.424   1.002   3.893  0.2598  0.2716 -0.0748
   18MOL   C227 9781   5.306   1.024   3.902 -0.9467 -0.3213 -0.6895
   18MOL   O228 9782   5.210   0.965   3.824  0.0489  0.4239 -0.1485
   18MOL   C229 9783   5.259   1.109   4.013  0.0029 -0.5837  0.4604
   18MOL   C230 9784   5.130   1.146   4.012  0.0258 -0.7267  0.3319
   18MOL   C231 9785   5.081   1.228   4.117  0.2373 -0.0326 -0.6054
   18MOL   C232 9786   4.947   1.269   4.124 -0.6227 -0.5386 -0.0089
   18MOL   C233 9787   4.895   1.335   4.238  0.7514  0.2388 -0.3936
   18MOL   C234 9788   4.971   1.361   4.353  0.2082  0.4165  0.2078
   18MOL   C235 9789   4.919   1.449   4.458 -0.3020 -0.4694 -0.4642
   18MOL   O236 9790   5.005   1.478   4.551  0.2894 -0.4905  0.7632
   18MOL   C237 9791   4.965   1.581   4.642  0.4840 -0.1770  0.1599
   18MOL   C238 9792   4.887   1.513   4.757 -0.2751 -0.6294 -0.0608
   18MOL   O239 9793   4.797   1.484   4.463 -0.3301  0.0318 -0.6795
   18MOL   C240 9794   5.110   1.323   4.348 -0.5703 -0.3096 -0.5731
   18MOL   C241 9795   5.162   1.261   4.230 -0.0638  0.0696 -0.6855
   18MOL   C242 9796   5.293   1.215   4.234 -0.2083 -0.2539  0.8734
   18MOL   C243 9797   5.344   1.144   4.123  0.1921  0.3125  0.2312
   18MOL   H244 9798   5.060   1.127   3.932  0.1816  0.1307 -0.0133
   18MOL   H245 9799   4.880   1.234   4.046 -1.3253  1.2891 -0.2482
   18MOL   H246 9800   4.792   1.369   4.235  1.0252  0.9459 -3.1576
   18MOL   H247 9801   4.910   1.663   4.595 -0.1642 -0.8563 -0.2683
   18MOL   H248 9802   5.054   1.621   4.691  1.8073 -2.4153 -0.3564
   18MOL   H249 9803   4.782   1.499   4.729 -0.3236  0.6168 -0.5206
   18MOL   H250 9804   4.934   1.417   4.778 -1.8474 -1.4955 -0.4055
   18MOL   H251 9805   5.178   1.349   4.428  1.0246  0.3321 -2.1124
   18MOL   H252 9806   5.354   1.235   4.321  2.6416  0.3674 -1.1661
   18MOL   H253 9807   5.431   1.082   4.137 -0.7741 -0.9945  0.5186
   18MOL   O254 9808   4.805   1.760   4.800 -0.3517 -0.4429  0.0219
   18MOL   C255 9809   4.849   1.701   4.898  0.5139  0.2393 -0.6688
   18MOL   O256 9810   4.892   1.571   4.883 -0.0031  0.0024  0.3127
   18MOL   C257 9811   4.865   1.762   5.034 -0.6077 -0.3497 -0.1913
   18MOL   C258 9812   4.812   1.896   5.060  0.0029 -0.0615 -0.3630
   18MOL   C259 9813   4.803   1.940   5.190  0.3457  0.3382  0.0727
   18MOL   C260 9814   4.728   2.061   5.223  0.5112  0.3699 -0.2929
   18MOL   C261 9815   4.733   2.110   5.355 -0.3349  0.3947  0.0541
   18MOL   C262 9816   4.796   2.031   5.454 -0.2609 -0.6992 -0.2623
   18MOL   C263 9817   4.805   2.083   5.588 -0.0666  0.0115  0.1285
   18MOL   O264 9818   4.914   2.033   5.669  0.5226  0.3989  0.4169
   18MOL   C265 9819   4.930   2.081   5.797  0.3996 -0.1680  0.7132
   18MOL   C266 9820   5.020   2.209   5.791 -0.5385  0.1740  0.3786
   18MOL   O267 9821   4.718   2.162   5.632  0.2060  0.6329 -0.0384
   18MOL   C268 9822   4.852   1.907   5.423 -0.2568  0.0631  0.1924
   18MOL   C269 9823   4.858   1.860   5.292  0.2240 -0.4489  0.5298
   18MOL   C270 9824   4.921   1.735   5.269  0.1749 -0.8901 -0.0040
   18MOL   C271 9825   4.926   1.688   5.139  0.0489 -0.6101  0.3266
   18MOL   H272 9826   4.774   1.947   4.972  2.0120  1.9899 -0.0984
   18MOL   H273 9827   4.678   2.117   5.146  1.9808  1.2424 -0.6300
   18MOL   H274 9828   4.688   2.203   5.387  1.1998  0.3214  2.5526
   18MOL   H275 9829   4.973   2.007   5.865  0.8655  1.3131  2.0511
   18MOL   H276 9830   4.827   2.095   5.829 -0.3221 -0.4452 -1.3881
   18MOL   H277 9831   5.012   2.253   5.691  1.3671 -1.8627 -0.7053
   18MOL   H278 9832   4.973   2.286   5.852 -0.8625  0.5053 -0.2844
   18MOL   H279 9833   4.898   1.842   5.496  1.9992 -0.0670 -1.2768
   18MOL   H280 9834   4.964   1.684   5.354 -2.3625 -0.1270  1.7891
   18MOL   H281 9835   4.959   1.588   5.115 -0.4523 -0.6577 -0.1842
   18MOL   O282 9836   5.113   2.207   6.049 -0.2382  0.1945 -0.2058
   18MOL   C283 9837   5.196   2.203   5.960  0.5920  0.5466  0.1808
   18MOL   O284 9838   5.156   2.190   5.828 -0.1591  0.3896 -0.4156
   18MOL   C285 9839   5.343   2.193   5.982 -0.0103  0.3344 -0.1661
   18MOL   C286 9840   5.442   2.152   5.880  0.1290  0.0144  0.2984
   18MOL   C287 9841   5.577   2.142   5.911 -0.4428 -0.6698 -0.0214
   18MOL   C288 9842   5.678   2.118   5.813  0.2574 -0.1621  0.1051
   18MOL   C289 9843   5.817   2.130   5.851  0.4212  0.1742 -0.0293
   18MOL   C290 9844   5.852   2.164   5.981  0.6551 -0.4387 -0.1835
   18MOL   C291 9845   5.989   2.190   6.020 -0.2359 -0.6480  0.0200
   18MOL   O292 9846   6.071   2.206   5.921  0.4330  0.0721 -0.0175
   18MOL   C293 9847   6.215   2.206   5.938 -0.2539 -0.1821 -0.0917
   18MOL   C294 9848   6.281   2.146   5.818 -0.7524  0.2155  0.1049
   18MOL   O295 9849   6.025   2.199   6.141  0.1049  0.2137 -0.2018
   18MOL   C296 9850   5.753   2.178   6.078 -0.6797  0.3840  0.4128
   18MOL   C297 9851   5.616   2.168   6.042 -0.1879 -0.2748 -0.3536
   18MOL   C298 9852   5.522   2.199   6.147  0.2406 -0.2927 -0.4954
   18MOL   C299 9853   5.386   2.213   6.118  0.5920  0.9587 -0.8509
   18MOL   H300 9854   5.407   2.132   5.779 -1.0403 -1.5399  0.9845
   18MOL   H301 9855   5.650   2.111   5.709 -1.1136 -0.2931  0.4731
   18MOL   H302 9856   5.893   2.108   5.777  1.4997  1.8857  0.5287
   18MOL   H303 9857   6.245   2.131   6.011  1.1256 -0.8462 -1.3229
   18MOL   H304 9858   6.260   2.301   5.965  1.3946 -1.1725  0.6733
   18MOL   H305 9859   6.375   2.100   5.850  0.4791  0.8641 -2.5182
   18MOL   H306 9860   6.237   2.055   5.778  0.1906 -0.8419  1.4133
   18MOL   H307 9861   5.782   2.196   6.180  0.1938 -1.5396  0.5206
   18MOL   H308 9862   5.557   2.225   6.245  2.3325  0.4385 -1.4039
   18MOL   H309 9863   5.316   2.245   6.194 -2.0973 -4.7944 -0.6069
   18MOL   O310 9864   6.102   2.231   5.643  0.1140  0.3286 -0.6035
   18MOL   C311 9865   6.211   2.281   5.651  0.4304  0.2763 -0.2429
   18MOL   O312 9866   6.305   2.253   5.742 -0.5792 -0.6816 -0.1272
   18MOL   C313 9867   6.268   2.377   5.549 -0.2547 -0.5828 -0.2693
   18MOL   C314 9868   6.210   2.363   5.423 -0.4375  0.3771 -0.0954
   18MOL   C315 9869   6.243   2.442   5.318 -0.1995 -0.6264 -0.0361
   18MOL   C316 9870   6.180   2.440   5.195 -0.1590  0.5393  0.1901
   18MOL   C317 9871   6.219   2.531   5.089 -0.0472 -0.1307  0.1041
   18MOL   C318 9872   6.316   2.628   5.110  0.3109  1.6206 -0.7913
   18MOL   C319 9873   6.358   2.719   4.998  0.2622 -0.2194  0.0632
   18MOL   O320 9874   6.485   2.754   5.010 -0.2281 -0.6781  0.7114
   18MOL   C321 9875   6.548   2.838   4.912  0.1204 -0.1079  0.0603
   18MOL   C322 9876   6.656   2.761   4.839 -0.2246 -0.2872  0.3181
   18MOL   O323 9877   6.284   2.761   4.909 -0.2821  0.0086  0.3358
   18MOL   C324 9878   6.386   2.625   5.234 -0.0357  0.2337  0.4572
   18MOL   C325 9879   6.349   2.538   5.338 -0.0556 -0.5096  0.5458
   18MOL   C326 9880   6.407   2.554   5.467  0.3492 -0.1849  1.0264
   18MOL   C327 9881   6.366   2.471   5.571  0.0890 -0.3216  0.0477
   18MOL   H328 9882   6.128   2.293   5.416  0.2167 -0.4871  0.7981
   18MOL   H329 9883   6.092   2.378   5.186 -0.5237  0.7534  1.9109
   18MOL   H330 9884   6.168   2.542   4.994  2.0084 -2.3979 -1.3297
   18MOL   H331 9885   6.588   2.933   4.947 -2.2412  1.2686 -0.8360
   18MOL   H332 9886   6.474   2.855   4.834  0.6456 -0.0421 -0.4247
   18MOL   H333 9887   6.633   2.655   4.825 -2.1630  0.1040  0.4256
   18MOL   H334 9888   6.659   2.796   4.736  0.1334  0.4362  0.5703
   18MOL   H335 9889   6.453   2.705   5.262 -0.4064 -0.1056  2.4598
   18MOL   H336 9890   6.490   2.623   5.472 -0.6745  1.2322 -0.5312
   18MOL   H337 9891   6.416   2.489   5.665  0.8812 -0.4557 -0.3455
   18MOL   O338 9892   6.730   2.615   5.048  0.1957  0.2881  0.2699
   18MOL   C339 9893   6.810   2.708   5.011  0.2768 -0.0474  0.5668
   18MOL   O340 9894   6.784   2.776   4.891  0.2160  0.9250 -0.2229
   18MOL   C341 9895   6.942   2.729   5.067 -0.1462  0.6617  0.0303
   18MOL   C342 9896   6.992   2.649   5.176 -0.2540  0.4377 -0.3120
   18MOL   C343 9897   7.128   2.662   5.216  0.1504  0.5427 -0.0007
   18MOL   C344 9898   7.167   2.587   5.327  0.0434 -0.3508  0.2311
   18MOL   C345 9899   7.299   2.607   5.369  0.0302  0.0364 -0.0316
   18MOL   C346 9900   7.384   2.702   5.303  0.0968  0.6857 -0.0591
   18MOL   C347 9901   7.522   2.709   5.342 -0.4693  0.1941 -0.4031
   18MOL   O348 9902   7.604   2.716   5.234 -0.0032  0.1933 -0.6478
   18MOL   C349 9903   7.742   2.676   5.245 -0.8201 -0.1796  0.1761
   18MOL   C350 9904   7.828   2.788   5.187 -0.4257  0.2074 -0.2407
   18MOL   O351 9905   7.555   2.676   5.454  0.2406  0.6650 -0.2444
   18MOL   C352 9906   7.324   2.786   5.204  0.1699  0.2517  0.0397
   18MOL   C353 9907   7.201   2.763   5.158  0.0389  0.5352  0.5143
   18MOL   C354 9908   7.152   2.846   5.055  0.6821 -0.3395  0.3684
   18MOL   C355 9909   7.020   2.830   5.011  0.5913  0.5071 -0.0754
   18MOL   H356 9910   6.933   2.570   5.220  0.6390  0.1994  0.4919
   18MOL   H357 9911   7.103   2.516   5.378 -0.1805 -0.2522  0.0892
   18MOL   H358 9912   7.342   2.552   5.451 -0.9046 -1.1268 -0.3050
   18MOL   H359 9913   7.759   2.581   5.193  3.8923  1.9057 -2.3681
   18MOL   H360 9914   7.778   2.653   5.346  1.6627 -0.8595 -0.8169
   18MOL   H361 9915   7.921   2.743   5.151 -0.8328 -1.4558  0.7477
   18MOL   H362 9916   7.775   2.841   5.108 -0.8395  0.8412  0.4514
   18MOL   H363 9917   7.377   2.864   5.150 -0.7357 -0.8538 -2.5023
   18MOL   H364 9918   7.218   2.913   5.003 -0.6937 -0.2569 -1.3380
   18MOL   H365 9919   6.988   2.900   4.935 -2.7311 -0.3962  0.4044
   18MOL   O366 9920   7.672   3.002   5.284 -0.0195  0.8220 -0.1631
   18MOL   C367 9921   7.786   2.985   5.328 -0.0438 -0.0683  0.4657
   18MOL   O368 9922   7.868   2.879   5.284 -0.0377 -0.0207  0.4138
   18MOL   C369 9923   7.836   3.043   5.451  0.1296  0.3654 -0.5315
   18MOL   C370 9924   7.767   3.158   5.502 -0.2311 -0.5067 -0.7616
   18MOL   C371 9925   7.808   3.226   5.618 -0.9212  0.0925 -0.1109
   18MOL   C372 9926   7.734   3.333   5.670  0.8271  0.1597 -0.2708
   18MOL   C373 9927   7.787   3.396   5.785 -0.4117  0.0178  0.4336
   18MOL   C374 9928   7.906   3.354   5.844  0.1711 -0.3525 -0.4282
   18MOL   C375 9929   7.954   3.436   5.962 -0.0101  0.1962  0.1459
   18MOL   O376 9930   7.887   3.555   5.980  0.1891  0.4004 -0.1967
   18MOL   C377 9931   7.903   3.643   6.092  0.1129 -0.0432 -0.0624
   18MOL   C378 9932   7.770   3.658   6.159  0.1937 -0.2319 -0.3068
   18MOL   O379 9933   8.048   3.401   6.029 -0.4685  0.2131  0.4480
   18MOL   C380 9934   7.984   3.250   5.784 -0.1254 -0.8896 -0.0548
   18MOL   C381 9935   7.933   3.184   5.675 -0.3387  0.3618  0.9479
   18MOL   C382 9936   8.005   3.069   5.624  0.3801  0.0587 -0.3921
   18MOL   C383 9937   7.952   3.000   5.513 -0.2079  0.3522  0.2822
   18MOL   H384 9938   7.673   3.190   5.460 -0.3894 -0.2136 -0.1850
   18MOL   H385 9939   7.640   3.356   5.622 -0.0869 -0.0509  1.3803
   18MOL   H386 9940   7.730   3.472   5.835  0.6906  0.1702  1.4901
   18MOL   H387 9941   7.940   3.741   6.061  1.1010 -0.4715 -0.2851
   18MOL   H388 9942   7.969   3.608   6.171 -1.2179 -0.7779  0.7381
   18MOL   H389 9943   7.738   3.560   6.195  1.6064  0.0829  1.8420
   18MOL   H390 9944   7.776   3.719   6.249  1.6455  1.8557 -1.7532
   18MOL   H391 9945   8.083   3.234   5.823 -0.6722 -0.0151  1.7604
   18MOL   H392 9946   8.100   3.042   5.668 -0.0433  2.0082  1.7990
   18MOL   H393 9947   8.017   2.920   5.480 -0.4914  1.2486 -2.5317
   18MOL   O394 9948   7.674   3.921   6.173 -0.2719  0.0613  0.1426
   18MOL   C395 9949   7.635   3.843   6.081 -0.8911  0.4019 -0.1535
   18MOL   O396 9950   7.662   3.715   6.081  0.4293  0.3365 -0.1541
   18MOL   C397 9951   7.564   3.883   5.959 -0.1466 -0.0465 -0.1623
   18MOL   C398 9952   7.538   3.795   5.853 -0.7343 -0.6274 -0.0214
   18MOL   C399 9953   7.469   3.835   5.739  0.0659 -0.1851  0.3716
   18MOL   C400 9954   7.447   3.740   5.636  0.9636  0.2698 -0.4846
   18MOL   C401 9955   7.373   3.777   5.520 -0.7594 -0.3249  0.6300
   18MOL   C402 9956   7.346   3.915   5.488  0.1148  0.4057 -0.1554
   18MOL   C403 9957   7.289   3.958   5.365  0.2398 -0.1422 -0.1392
   18MOL   O404 9958   7.316   4.083   5.334 -0.1759 -0.4252 -0.7688
   18MOL   C405 9959   7.279   4.144   5.206  0.3092 -0.5167  0.1409
   18MOL   C406 9960   7.371   4.085   5.101  0.3903  0.2287 -0.5816
   18MOL   O407 9961   7.214   3.881   5.295  0.0466 -0.0899  0.4153
   18MOL   C408 9962   7.374   4.007   5.589 -0.2865  0.8097  0.1919
   18MOL   C409 9963   7.435   3.969   5.715  0.4887 -0.3115  0.5568
   18MOL   C410 9964   7.464   4.063   5.817 -0.3807 -0.5154  0.6138
   18MOL   C411 9965   7.516   4.019   5.944  0.3364  0.9268 -1.0777
   18MOL   H412 9966   7.559   3.689   5.856 -1.9040 -0.8629  0.3360
   18MOL   H413 9967   7.478   3.638   5.648  1.7480  0.4440 -1.0009
   18MOL   H414 9968   7.356   3.697   5.450  0.6581 -2.0142  2.1649
   18MOL   H415 9969   7.283   4.253   5.203  1.8240 -0.4288  3.2841
   18MOL   H416 9970   7.176   4.120   5.180  0.6503 -1.4391 -0.3669
   18MOL   H417 9971   7.416   4.162   5.039  2.1529  1.8372  2.5833
   18MOL   H418 9972   7.453   4.028   5.146 -0.6207 -2.8857 -2.4939
   18MOL   H419 9973   7.361   4.114   5.580 -0.1760  1.0797  2.8067
   18MOL   H420 9974   7.446   4.168   5.799 -1.1284 -0.4365  1.7603
   18MOL   H421 9975   7.508   4.088   6.027 -0.8269  0.4285 -0.7546
   18MOL   O422 9976   7.199   4.166   4.908  0.1952 -0.6026 -0.0465
   18MOL   C423 9977   7.201   4.043   4.927  0.1921  0.4870 -0.2008
   18MOL   O424 9978   7.290   4.000   5.022 -0.7313  0.4198 -0.1388
   18MOL   C425 9979   7.122   3.941   4.861 -0.6391  0.0428 -0.5323
   18MOL   C426 9980   7.027   3.976   4.765 -1.1300 -0.1211 -0.5339
   18MOL   C427 9981   6.960   3.871   4.698  1.0234 -0.4868  0.1751
   18MOL   C428 9982   6.853   3.909   4.607  0.5380 -1.0854  0.0182
   18MOL   C429 9983   6.775   3.810   4.544  0.1523 -0.0263  0.5482
   18MOL   C430 9984   6.807   3.668   4.560 -0.2869 -0.0893 -0.7340
   18MOL   C431 9985   6.742   3.557   4.492 -0.4459 -0.4927  0.4531
   18MOL   O432 9986   6.676   3.597   4.386 -0.0557  0.2764  0.6199
   18MOL   C433 9987   6.618   3.499   4.304 -0.3181  0.2028  0.2009
   18MOL   C434 9988   6.465   3.506   4.328 -0.8947 -0.2881 -0.5206
   18MOL   O435 9989   6.741   3.439   4.534  0.0220  0.0624 -0.4514
   18MOL   C436 9990   6.911   3.636   4.654 -0.2921  0.0792 -0.5073
   18MOL   C437 9991   6.987   3.735   4.721 -0.0860  0.8740 -0.3469
   18MOL   C438 9992   7.074   3.700   4.823  0.3794  0.3042  0.2945
   18MOL   C439 9993   7.143   3.803   4.895 -0.0072 -0.2966 -0.5930
   18MOL   H440 9994   6.993   4.076   4.746 -0.6144 -0.1775 -1.8042
   18MOL   H441 9995   6.827   4.012   4.586  2.8011 -0.5545 -0.2961
   18MOL   H442 9996   6.698   3.838   4.475  0.8543  2.0827  0.5992
   18MOL   H443 9997   6.646   3.395   4.323 -1.1421  0.2155  1.5266
   18MOL   H444 9998   6.630   3.522   4.198 -1.0866  1.2731  0.3279
   18MOL   H445 9999   6.445   3.458   4.424  0.4410 -1.5637 -0.8492
   18MOL   H44610000   6.436   3.611   4.328 -1.1181 -0.3502 -1.2603
   18MOL   H44710001   6.928   3.532   4.679  0.4301  0.5096  0.8237
   18MOL   H44810002   7.092   3.596   4.846 -0.8484  0.2277  0.9462
   18MOL   H44910003   7.213   3.782   4.975  0.2026  1.7670 -0.2266
   18MOL   O45010004   6.404   3.242   4.336 -0.0458  0.0145  0.8090
   18MOL   C45110005   6.371   3.306   4.233 -0.0413 -0.1986 -0.0969
   18MOL   O45210006   6.398   3.439   4.221  0.0224  0.6322  0.1464
   18MOL   C45310007   6.311   3.250   4.109  0.1891  0.8374  0.2854
   18MOL   C45410008   6.304   3.326   3.991  0.6150  0.2067 -0.0284
   18MOL   C45510009   6.235   3.269   3.877 -0.9156  0.0573 -0.0568
   18MOL   C45610010   6.217   3.354   3.766 -0.2422  0.2152  0.6023
   18MOL   C45710011   6.141   3.299   3.659  0.4426 -0.7135 -0.0868
   18MOL   C45810012   6.093   3.170   3.654  0.3021  0.3965 -0.4339
   18MOL   C45910013   6.025   3.108   3.531 -0.2360  0.0534 -0.3087
   18MOL   O46010014   6.044   3.190   3.427  0.7835  0.0844  0.3429
   18MOL   C46110015   5.975   3.163   3.303  0.0469 -0.5565 -0.4786
   18MOL   C46210016   5.838   3.214   3.308  0.2482  1.2078  0.1475
   18MOL   O46310017   5.980   2.994   3.519  0.0322  0.0974  0.7037
   18MOL   C46410018   6.110   3.088   3.767  0.7552 -0.2718  0.1689
   18MOL   C46510019   6.185   3.135   3.878 -0.5162  0.1076  0.0426
   18MOL   C46610020   6.206   3.055   3.989  0.2458  0.0661 -0.1114
   18MOL   C46710021   6.264   3.115   4.103  0.3838  0.2991 -0.1335
   18MOL   H46810022   6.346   3.425   3.980  0.5845  0.3449  1.0173
   18MOL   H46910023   6.256   3.455   3.756 -3.7054  1.5796  0.2733
   18MOL   H47010024   6.128   3.365   3.575  0.7363 -0.2909  0.1960
   18MOL   H47110025   5.969   3.055   3.290  0.6769 -0.4110 -2.2058
   18MOL   H47210026   6.032   3.204   3.219 -0.9176 -2.2749 -2.0281
   18MOL   H47310027   5.777   3.162   3.234 -0.7859 -0.7754  2.3428
   18MOL   H47410028   5.797   3.195   3.407 -1.6825  0.7246 -0.7357
   18MOL   H47510029   6.069   2.988   3.761 -0.7157  0.2352  1.4632
   18MOL   H47610030   6.173   2.952   3.997  0.7119 -0.0077  1.0457
   18MOL   H47710031   6.269   3.055   4.192  1.5075 -0.9366 -1.0083
   18MOL   O47810032   5.733   3.345   3.091 -0.6394  0.0732 -0.0875
   18MOL   C47910033   5.781   3.410   3.185  0.2897 -0.1139 -0.6387
   18MOL   O48010034   5.836   3.357   3.296  0.3263  0.0748 -0.0356
   18MOL   C48110035   5.771   3.557   3.195  0.5262  0.4333 -0.8853
   18MOL   C48210036   5.755   3.634   3.081  0.0892 -0.9468  0.3505
   18MOL   C48310037   5.709   3.769   3.093 -0.1354  0.0581  0.3524
   18MOL   C48410038   5.663   3.844   2.982  0.2790 -0.0617  0.0167
   18MOL   C48510039   5.617   3.975   2.994 -1.0084 -0.6729  0.2109
   18MOL   C48610040   5.633   4.040   3.124 -1.1721  0.4462  0.4123
   18MOL   C48710041   5.595   4.184   3.143 -0.0861  0.4559  0.0322
   18MOL   O48810042   5.567   4.246   3.028  0.4748  0.0575  0.1026
   18MOL   C48910043   5.523   4.380   3.034  0.0085  0.2080 -0.2335
   18MOL   C49010044   5.450   4.405   2.902 -0.1642 -0.2494 -0.5999
   18MOL   O49110045   5.593   4.232   3.253  0.4716  0.3576  0.5363
   18MOL   C49210046   5.677   3.966   3.237  0.1145 -0.7806 -0.8123
   18MOL   C49310047   5.706   3.831   3.218  0.3891  0.0176 -0.0835
   18MOL   C49410048   5.738   3.754   3.332  0.9209  0.1266  0.1588
   18MOL   C49510049   5.755   3.614   3.322 -1.0879 -0.2277 -0.3985
   18MOL   H49610050   5.778   3.592   2.984  2.4204  0.4330  0.2800
   18MOL   H49710051   5.661   3.802   2.883 -0.7063  2.1574 -0.9396
   18MOL   H49810052   5.573   4.022   2.907 -1.3155  0.0157  0.7356
   18MOL   H49910053   5.607   4.448   3.050 -1.9642  3.7285 -3.7188
   18MOL   H50010054   5.464   4.385   3.126 -0.5551  0.0228 -0.5779
   18MOL   H50110055   5.398   4.318   2.863 -2.2118  0.4980  0.3721
   18MOL   H50210056   5.370   4.476   2.923  1.6460  1.9394 -0.9263
   18MOL   H50310057   5.676   4.013   3.335  1.1086 -1.5153 -0.4440
   18MOL   H50410058   5.738   3.798   3.431 -0.4856  1.0370 -0.2206
   18MOL   H50510059   5.765   3.555   3.412  1.9173  0.5327 -0.1754
   18MOL   O50610060   5.371   4.533   2.690 -0.3645 -0.1452  0.2097
   18MOL   C50710061   5.493   4.505   2.699 -0.1376 -0.3944  0.2737
   18MOL   O50810062   5.545   4.453   2.812 -0.4172  0.2715 -0.1733
   18MOL   C50910063   5.598   4.536   2.594  0.2239  0.5152  0.0114
   18MOL   C51010064   5.578   4.639   2.497 -0.0045 -0.0196 -0.0840
   18MOL   C51110065   5.678   4.682   2.405  0.6301 -0.4183 -0.2520
   18MOL   C51210066   5.656   4.781   2.312 -0.3886 -0.6898  0.5687
   18MOL   C51310067   5.753   4.808   2.215  0.5212  0.2418  0.6410
   18MOL   C51410068   5.877   4.741   2.215 -0.2949  0.5515 -0.5585
   18MOL   C51510069   5.981   4.753   2.109  0.6734  0.0635 -0.5436
   18MOL   O51610070   5.953   4.843   2.018  0.2208 -0.4431  0.3307
   18MOL   C51710071   6.050   4.873   1.914 -0.4076  0.3173  0.7756
   18MOL   C51810072   6.146   4.981   1.966  0.1939  0.2611 -0.3606
   18MOL   O51910073   6.086   4.682   2.116 -0.6891 -0.5148  0.3684
   18MOL   C52010074   5.901   4.651   2.318 -0.7351  0.3490 -0.2401
   18MOL   C52110075   5.803   4.615   2.409 -0.0524 -0.0245 -0.3857
   18MOL   C52210076   5.835   4.530   2.520 -0.2343 -0.0060 -0.1948
   18MOL   C52310077   5.734   4.488   2.606 -0.1373  0.2135  0.1308
   18MOL   H52410078   5.486   4.695   2.509  0.1132  0.7426 -2.5552
   18MOL   H52510079   5.563   4.835   2.296  0.9795  1.3520 -0.8023
   18MOL   H52610080   5.734   4.880   2.137  0.0157 -0.5513  0.0255
   18MOL   H52710081   5.997   4.910   1.826  0.3901  1.4493  0.7713
   18MOL   H52810082   6.099   4.779   1.893 -1.8289 -0.5741  1.3524
   18MOL   H52910083   6.225   4.948   2.034 -1.8347  0.8643  2.4030
   18MOL   H53010084   6.219   5.009   1.890 -0.8764  0.7042 -1.2289
   18MOL   H53110085   5.990   4.590   2.324 -0.5183  0.5967 -0.8741
   18MOL   H53210086   5.935   4.488   2.524 -0.9685 -1.9646 -1.4739
   18MOL   H53310087   5.769   4.413   2.676  2.2682  0.0910 -1.1632
   18MOL   O53410088   6.266   5.186   2.110  0.2888  0.0910  0.5600
   18MOL   C53510089   6.144   5.186   2.099  0.1214 -0.6629 -0.7715
   18MOL   O53610090   6.075   5.096   2.019  0.6282 -0.2246 -0.0336
   18MOL   C53710091   6.047   5.292   2.155  0.6561  0.3544  0.0057
   18MOL   C53810092   6.097   5.409   2.215  0.5632 -0.6898  0.1309
   18MOL   C53910093   6.013   5.507   2.265 -0.5396 -0.1258 -0.7247
   18MOL   C54010094   6.060   5.620   2.335 -0.4094 -1.4340 -0.1425
   18MOL   C54110095   5.973   5.723   2.380 -0.0940 -0.5527 -0.1191
   18MOL   C54210096   5.833   5.706   2.359 -0.1747  0.0869  0.4651
   18MOL   C54310097   5.735   5.821   2.383 -1.0224  0.0056  0.0607
   18MOL   O54410098   5.605   5.796   2.363 -0.5032 -0.7282  0.3852
   18MOL   C54510099   5.515   5.901   2.388  0.3256  0.5608  0.1666
   18MOL   C54610100   5.380   5.837   2.354 -0.1674 -0.2526  0.1308
   18MOL   O54710101   5.779   5.932   2.412 -0.4265 -0.4417 -0.1062
   18MOL   C54810102   5.788   5.586   2.309  0.1348  0.1074  0.0333
   18MOL   C54910103   5.877   5.491   2.261  0.2944 -0.1029  0.3257
   18MOL   C55010104   5.821   5.369   2.209 -0.2044 -0.3283  0.0900
   18MOL   C55110105   5.905   5.270   2.157  0.5485 -0.3028 -0.2745
   18MOL   H55210106   6.204   5.418   2.221  0.7325 -0.7372 -2.2916
   18MOL   H55310107   6.165   5.643   2.344 -0.7347 -0.2267  0.6931
   18MOL   H55410108   6.017   5.814   2.420  1.2231 -1.1919 -0.0773
   18MOL   H55510109   5.534   5.992   2.331  1.2648  0.8139  0.8804
   18MOL   H55610110   5.509   5.925   2.494  0.6547  1.1643  0.0538
   18MOL   H55710111   5.387   5.819   2.247 -2.4079  0.7819 -0.2191
   18MOL   H55810112   5.291   5.893   2.382  0.2504 -0.3870  1.7906
   18MOL   H55910113   5.682   5.562   2.304 -0.2211  1.6912 -0.0494
   18MOL   H56010114   5.715   5.352   2.211  0.1633 -3.2232 -2.0490
   18MOL   H56110115   5.861   5.184   2.109 -0.4136  0.4595 -0.7855
   18MOL   H56210116   5.362   5.739   2.398 -0.5112  0.8152  2.4992
   19MOL     O110117   5.083   1.657   0.041  0.1090  0.0055 -0.6764
   19MOL     C210118   4.975   1.661   0.098  0.2849  0.3728  0.2902
   19MOL     O310119   4.854   1.623   0.036  0.5073 -0.5855 -0.6582
   19MOL     C410120   4.950   1.686   0.246  0.1512  0.7578 -0.1105
   19MOL     C510121   5.056   1.680   0.339 -0.5407  0.1672  0.2492
   19MOL     C610122   5.028   1.700   0.476  0.1221 -0.3084  0.1686
   19MOL     C710123   5.134   1.674   0.568 -0.6003 -0.0461 -0.3624
   19MOL     C810124   5.113   1.709   0.703  0.4279  0.3991 -0.3460
   19MOL     C910125   4.996   1.780   0.742 -0.1957  0.2874  0.7693
   19MOL    C1010126   4.973   1.827   0.878  0.0323  0.2594 -0.0228
   19MOL    O1110127   5.045   1.752   0.975 -0.5383  0.4196  0.4651
   19MOL    C1210128   5.032   1.800   1.110 -0.0573 -0.2934 -0.9903
   19MOL    C1310129   5.099   1.708   1.210  0.1808  0.3182 -0.5001
   19MOL    O1410130   4.895   1.913   0.908 -0.0925 -0.0666  0.5548
   19MOL    C1510131   4.890   1.796   0.644  0.0051  0.7044  0.4285
   19MOL    C1610132   4.905   1.754   0.514 -0.1197 -0.1641  0.1378
   19MOL    C1710133   4.804   1.769   0.421 -0.0944 -0.5342  0.2219
   19MOL    C1810134   4.818   1.723   0.290  0.0251  0.2230  0.4172
   19MOL    H1910135   5.156   1.655   0.304 -0.5791  1.1357 -0.5656
   19MOL    H2010136   5.222   1.621   0.533  0.0276  0.9307 -0.2803
   19MOL    H2110137   5.195   1.685   0.769  0.8367 -0.6216 -1.2172
   19MOL    H2210138   5.077   1.897   1.131 -2.6032  1.1415 -1.8898
   19MOL    H2310139   4.924   1.806   1.123  0.1623 -1.2755  1.5405
   19MOL    H2410140   5.188   1.648   1.189  2.3860  3.1868  0.4186
   19MOL    H2510141   5.139   1.764   1.294 -2.2555  1.2766  0.0588
   19MOL    H2610142   4.802   1.846   0.682  0.4697  1.4146  0.5732
   19MOL    H2710143   4.716   1.825   0.449  0.9936  1.7766 -0.8645
   19MOL    H2810144   4.740   1.755   0.222  0.7425 -1.1891 -1.1034
   19MOL    H2910145   4.872   1.576   8.205 -0.5601 -1.5418 -0.3455
   19MOL    O3010146   5.071   1.454   1.120  0.6677 -0.1314 -0.7730
   19MOL    C3110147   4.983   1.505   1.188 -0.3988  0.3874  0.2849
   19MOL    O3210148   5.001   1.620   1.253  0.2365 -0.1071 -0.3277
   19MOL    C3310149   4.853   1.442   1.198  0.0646 -0.2037  0.4537
   19MOL    C3410150   4.754   1.501   1.276  0.7327 -0.8203 -0.9227
   19MOL    C3510151   4.636   1.436   1.318  0.2933 -0.1806  0.1055
   19MOL    C3610152   4.548   1.493   1.410 -0.2389 -0.0006 -0.3279
   19MOL    C3710153   4.437   1.420   1.450  0.1612  0.4752 -0.6859
   19MOL    C3810154   4.412   1.290   1.403 -0.2137 -0.6293  0.2249
   19MOL    C3910155   4.294   1.208   1.445 -0.0508  0.3167  0.5042
   19MOL    O4010156   4.218   1.279   1.526  0.2884 -0.8712 -0.1980
   19MOL    C4110157   4.093   1.233   1.565 -0.2238  0.1727 -0.2556
   19MOL    C4210158   4.073   1.281   1.713 -0.2551 -0.2152  0.3796
   19MOL    O4310159   4.251   1.106   1.392  0.6283 -0.4672 -0.2334
   19MOL    C4410160   4.494   1.236   1.305  0.9919 -0.0750 -0.3801
   19MOL    C4510161   4.609   1.311   1.262 -0.3268 -0.1974 -0.8146
   19MOL    C4610162   4.700   1.250   1.175  0.4181  0.8103 -0.2203
   19MOL    C4710163   4.822   1.311   1.146  0.2082 -0.3275 -0.4813
   19MOL    H4810164   4.779   1.599   1.315  2.1417 -0.6367 -2.2754
   19MOL    H4910165   4.572   1.590   1.451  0.1069  0.0990 -0.7565
   19MOL    H5010166   4.385   1.465   1.533  0.7044 -0.3319  0.0966
   19MOL    H5110167   4.090   1.124   1.572  0.0655  0.1080 -1.0716
   19MOL    H5210168   4.014   1.274   1.503 -0.3487  0.1193 -0.1310
   19MOL    H5310169   3.989   1.235   1.766 -1.3364  3.0793  1.6297
   19MOL    H5410170   4.154   1.232   1.766 -0.6232 -1.4874 -0.1982
   19MOL    H5510171   4.464   1.141   1.264 -1.5958  0.8702 -0.7212
   19MOL    H5610172   4.681   1.150   1.138 -2.0378  0.9261  0.6650
   19MOL    H5710173   4.901   1.254   1.100  0.5658 -0.9470  0.8776
   19MOL    O5810174   3.872   1.459   1.655  0.3463  0.5641 -0.3132
   19MOL    C5910175   3.987   1.496   1.670  0.2729 -0.6710 -0.5349
   19MOL    O6010176   4.077   1.419   1.726 -0.0863 -0.4345  0.1733
   19MOL    C6110177   4.039   1.629   1.636  0.4530  0.2472  0.3670
   19MOL    C6210178   4.181   1.653   1.638  0.7448 -0.3118  0.4109
   19MOL    C6310179   4.240   1.778   1.591 -0.3783  0.7373  0.0851
   19MOL    C6410180   4.383   1.797   1.587  0.2779  0.4815 -0.4365
   19MOL    C6510181   4.433   1.915   1.534  0.2741 -0.2672 -0.1316
   19MOL    C6610182   4.349   2.022   1.497  0.8165  0.3154 -0.1058
   19MOL    C6710183   4.407   2.147   1.455 -0.4826 -0.3147  0.1374
   19MOL    O6810184   4.320   2.241   1.451  0.1931 -0.0941  0.3852
   19MOL    C6910185   4.362   2.372   1.459  0.0778 -0.0819 -1.0271
   19MOL    C7010186   4.253   2.469   1.411  0.2147 -0.1915 -0.1181
   19MOL    O7110187   4.530   2.170   1.435  0.2701  0.4241 -0.0127
   19MOL    C7210188   4.208   1.999   1.501  0.0730 -0.3152 -0.2056
   19MOL    C7310189   4.156   1.875   1.544  0.0377 -0.2782 -0.4518
   19MOL    C7410190   4.021   1.849   1.549  0.1920  0.3759 -0.3501
   19MOL    C7510191   3.958   1.733   1.588 -0.3167  0.4673 -0.1027
   19MOL    H7610192   4.241   1.575   1.683 -0.1829 -2.2731 -1.6448
   19MOL    H7710193   4.449   1.715   1.614 -1.7291 -1.1754 -0.3858
   19MOL    H7810194   4.539   1.929   1.548  0.2292  0.7301 -0.7681
   19MOL    H7910195   4.455   2.391   1.406  1.8712 -0.8838  1.7135
   19MOL    H8010196   4.385   2.404   1.561  0.9553 -0.1009 -1.2138
   19MOL    H8110197   4.161   2.411   1.408 -0.2092  0.4577  0.3086
   19MOL    H8210198   4.232   2.555   1.474 -0.4125 -0.7777  0.4868
   19MOL    H8310199   4.145   2.080   1.467 -1.2535 -2.7154 -3.8033
   19MOL    H8410200   3.953   1.926   1.516  2.6680  2.1201 -1.4911
   19MOL    H8510201   3.851   1.720   1.587 -0.1098 -1.4625  0.3388
   19MOL    O8610202   4.062   2.563   1.247  0.0996 -0.2073  0.2639
   19MOL    C8710203   4.182   2.571   1.209  0.5493 -0.4027 -0.4760
   19MOL    O8810204   4.286   2.524   1.284 -0.5666 -0.3343 -0.1540
   19MOL    C8910205   4.219   2.606   1.071 -0.1168  0.6585  0.1237
   19MOL    C9010206   4.121   2.667   0.984 -0.5483 -0.7029 -0.6775
   19MOL    C9110207   4.158   2.709   0.858  0.5841 -0.4502  0.8223
   19MOL    C9210208   4.075   2.788   0.780 -0.3447  0.4878  0.3883
   19MOL    C9310209   4.115   2.826   0.653 -0.2022  0.5915  0.0577
   19MOL    C9410210   4.243   2.799   0.602 -0.3663 -0.1508 -0.1144
   19MOL    C9510211   4.278   2.832   0.465  0.1027  0.6737 -0.0113
   19MOL    O9610212   4.170   2.827   0.386  0.1988 -0.3906  0.2603
   19MOL    C9710213   4.184   2.823   0.247 -0.5570  0.4939 -0.2116
   19MOL    C9810214   4.054   2.805   0.169  0.9130  0.1705  0.2442
   19MOL    O9910215   4.397   2.843   0.426 -0.4050 -0.3949 -0.4709
   19MOL   C10010216   4.330   2.730   0.687 -0.0201 -0.3024  0.0610
   19MOL   C10110217   4.289   2.683   0.815  0.6103 -0.1507 -0.1624
   19MOL   C10210218   4.383   2.618   0.895 -0.0706 -0.3265  0.1020
   19MOL   C10310219   4.342   2.572   1.022 -0.9145 -0.4655  0.2136
   19MOL   H10410220   4.027   2.693   1.030 -0.0658  0.9622 -0.6258
   19MOL   H10510221   3.977   2.811   0.819  0.1033  0.8307  1.3355
   19MOL   H10610222   4.035   2.872   0.597 -0.1751  1.4379  0.7184
   19MOL   H10710223   4.251   2.750   0.202  1.7085  1.3758  1.6079
   19MOL   H10810224   4.240   2.912   0.219  0.8258 -0.0559  0.7499
   19MOL   H10910225   3.976   2.857   0.225  1.1314  0.4578  0.2888
   19MOL   H11010226   4.048   2.844   0.067  0.2390 -0.4651  0.0414
   19MOL   H11110227   4.430   2.715   0.648  0.4984  4.0457 -0.4948
   19MOL   H11210228   4.484   2.602   0.860 -0.1976  3.2389 -2.1468
   19MOL   H11310229   4.416   2.524   1.085 -1.5781 -2.4481 -0.4939
   19MOL   O11410230   3.822   2.683   0.144  0.1148  0.3946  0.5038
   19MOL   C11510231   3.922   2.618   0.132 -0.1328 -1.1087 -0.2275
   19MOL   O11610232   4.039   2.672   0.148  0.3567  0.7871  0.2092
   19MOL   C11710233   3.926   2.480   0.090  0.3585  0.2369 -0.3470
   19MOL   C11810234   3.802   2.421   0.057 -0.1730  0.1024 -0.6608
   19MOL   C11910235   3.801   2.289   0.006  0.0060  0.3085  0.0736
   19MOL   C12010236   3.684   2.222   8.219  0.3282 -0.3668 -0.0933
   19MOL   C12110237   3.687   2.087   8.167 -1.3013  0.1736 -0.1271
   19MOL   C12210238   3.812   2.021   8.154 -0.3274 -0.0051 -0.6171
   19MOL   C12310239   3.816   1.884   8.088  0.0749 -0.2281 -0.0365
   19MOL   O12410240   3.687   1.832   8.069  0.4706  0.8346 -0.1163
   19MOL   C12510241   3.675   1.707   8.005  0.5590  0.0857 -0.0344
   19MOL   C12610242   3.533   1.646   8.029 -0.0165 -0.4808  0.4857
   19MOL   O12710243   3.918   1.818   8.068 -0.4249 -0.2370 -0.2379
   19MOL   C12810244   3.927   2.088   8.191 -0.1369  0.0508  0.1054
   19MOL   C12910245   3.923   2.215   8.237 -0.2441  0.2014 -0.3366
   19MOL   C13010246   4.047   2.278   0.016 -0.2378 -0.8533  0.3327
   19MOL   C13110247   4.045   2.408   0.076  0.5065  0.5660  0.1114
   19MOL   H13210248   3.711   2.479   0.065  0.0832  0.3906  0.2344
   19MOL   H13310249   3.588   2.271   8.223 -0.7223 -2.5248  6.6718
   19MOL   H13410250   3.596   2.032   8.146 -1.1379  0.0610 -0.5296
   19MOL   H13510251   3.739   1.633   8.053 -1.0194  0.2901  2.5050
   19MOL   H13610252   3.701   1.719   7.900  1.5372  3.3556  0.5165
   19MOL   H13710253   3.515   1.560   7.964 -0.1185  1.6664 -2.4087
   19MOL   H13810254   3.538   1.616   8.134 -0.6594  2.1367  1.2854
   19MOL   H13910255   4.017   2.029   8.179  1.4058  2.1921  0.9017
   19MOL   H14010256   4.142   2.229   0.004  0.1416  0.4194 -2.1842
   19MOL   H14110257   4.133   2.463   0.108 -0.3754  1.5726  0.8613
   19MOL   O14210258   3.317   1.764   8.187 -0.4009 -0.0863  0.7473
   19MOL   C14310259   3.350   1.805   8.074  0.7822 -0.8259 -0.2614
   19MOL   O14410260   3.440   1.744   7.988 -0.1058  0.4603 -0.2741
   19MOL   C14510261   3.295   1.929   8.014  0.5237  0.2586 -0.0140
   19MOL   C14610262   3.231   2.022   8.092  0.0526  0.0244 -0.1686
   19MOL   C14710263   3.189   2.145   8.039  0.5119  0.4302  0.1802
   19MOL   C14810264   3.117   2.243   8.117  0.0891 -0.7968 -0.0417
   19MOL   C14910265   3.082   2.367   8.060  0.0828 -0.4166  0.3583
   19MOL   C15010266   3.112   2.393   7.921  0.7919 -0.2967  0.2219
   19MOL   C15110267   3.067   2.521   7.859 -0.4801  0.4823  0.1278
   19MOL   O15210268   3.106   2.535   7.729  0.4848  0.2774 -0.3920
   19MOL   C15310269   3.056   2.638   7.645  0.0906 -0.4960 -0.4293
   19MOL   C15410270   3.125   2.776   7.675  0.1346 -0.8353  0.5923
   19MOL   O15510271   2.997   2.607   7.914  0.1564  0.3523  0.2536
   19MOL   C15610272   3.179   2.291   7.842  0.1124  0.1446  0.2604
   19MOL   C15710273   3.218   2.172   7.898  0.2701 -0.5832 -0.7300
   19MOL   C15810274   3.292   2.078   7.819 -1.2507 -0.0277 -0.0315
   19MOL   C15910275   3.333   1.955   7.879  0.2665 -0.6708 -0.0088
   19MOL   H16010276   3.205   1.988   8.191 -0.5949 -2.2132 -1.0677
   19MOL   H16110277   3.108   2.232   8.224  1.4335 -0.2179  0.1329
   19MOL   H16210278   3.030   2.444   8.115  1.8474 -0.3148  1.8989
   19MOL   H16310279   2.948   2.651   7.658  0.3294  2.8446 -1.3730
   19MOL   H16410280   3.081   2.617   7.541  0.8953 -0.0240 -0.3332
   19MOL   H16510281   3.138   2.785   7.783 -0.1590 -2.0513  0.7398
   19MOL   H16610282   3.219   2.783   7.621 -0.6721 -0.2972 -0.7607
   19MOL   H16710283   3.204   2.312   7.739 -2.4145  0.9700 -0.2270
   19MOL   H16810284   3.320   2.108   7.720 -1.1994 -0.1116 -0.0428
   19MOL   H16910285   3.399   1.889   7.824 -1.3021 -1.5658 -0.8359
   19MOL   O17010286   3.103   2.914   7.424 -0.3195 -0.1490  0.2771
   19MOL   C17110287   3.044   2.953   7.525  0.3951  1.0865  0.7077
   19MOL   O17210288   3.038   2.889   7.646 -0.2019 -0.2562 -0.3443
   19MOL   C17310289   2.967   3.087   7.541 -0.5180  0.0280 -0.1547
   19MOL   C17410290   2.864   3.104   7.631  0.1958 -0.4883  0.2295
   19MOL   C17510291   2.800   3.230   7.646  0.3977  0.3494  0.6551
   19MOL   C17610292   2.703   3.248   7.744 -0.7173  0.1526 -0.2113
   19MOL   C17710293   2.644   3.375   7.743  0.9308  0.3079 -0.4923
   19MOL   C17810294   2.684   3.486   7.663 -0.1325  0.2665  0.4356
   19MOL   C17910295   2.606   3.615   7.668  0.4095 -0.1839 -0.0625
   19MOL   O18010296   2.661   3.715   7.595  0.1973 -0.2843  0.0772
   19MOL   C18110297   2.595   3.841   7.582 -0.1838  0.3016  0.2630
   19MOL   C18210298   2.700   3.931   7.512  0.4018 -0.7429  0.5624
   19MOL   O18310299   2.507   3.632   7.743 -0.2815  0.0859  0.1679
   19MOL   C18410300   2.791   3.466   7.579 -0.0773  0.0112 -0.3981
   19MOL   C18510301   2.844   3.338   7.563  0.7140  0.4090  0.1590
   19MOL   C18610302   2.941   3.319   7.469 -0.1952  0.1277 -0.2295
   19MOL   C18710303   3.009   3.195   7.466  0.0879  0.0857  0.1072
   19MOL   H18810304   2.829   3.035   7.706 -2.3770  0.0707 -0.4070
   19MOL   H18910305   2.684   3.171   7.818 -0.8717  0.3148 -0.0809
   19MOL   H19010306   2.568   3.384   7.819  3.2113  0.7640  1.8080
   19MOL   H19110307   2.568   3.889   7.676 -1.0786 -0.0261  0.1720
   19MOL   H19210308   2.507   3.807   7.527  0.4915 -0.5971 -0.2866
   19MOL   H19310309   2.746   3.883   7.425 -0.0512  0.6995 -0.4891
   19MOL   H19410310   2.659   4.025   7.476  4.6526  0.8119 -0.4506
   19MOL   H19510311   2.841   3.549   7.532  0.6466 -1.0603 -1.5785
   19MOL   H19610312   2.977   3.403   7.411 -0.1732  1.5517  1.7823
   19MOL   H19710313   3.076   3.181   7.383 -0.2151  4.8498 -1.1249
   19MOL   O19810314   2.750   4.147   7.671 -0.3825  0.0620 -0.3831
   19MOL   C19910315   2.819   4.046   7.683 -0.7727 -0.2407 -0.9403
   19MOL   O20010316   2.814   3.948   7.600  0.4622 -0.1532  1.0397
   19MOL   C20110317   2.912   4.032   7.797 -0.5638 -0.6837 -0.4761
   19MOL   C20210318   3.019   3.931   7.796 -0.1855  0.2216  0.3604
   19MOL   C20310319   3.083   3.890   7.916 -0.8810  0.8385  0.8079
   19MOL   C20410320   3.158   3.773   7.916 -0.5325 -0.2012 -0.3193
   19MOL   C20510321   3.207   3.725   8.040  0.0963  0.0656 -0.9129
   19MOL   C20610322   3.176   3.801   8.157 -0.3205 -0.1870 -0.8060
   19MOL   C20710323   3.219   3.745   0.034 -0.2758 -1.1530  0.5917
   19MOL   O20810324   3.254   3.837   0.119  0.8133 -0.1591 -0.0573
   19MOL   C20910325   3.287   3.809   0.256  0.2813 -0.0928  0.0687
   19MOL   C21010326   3.159   3.807   0.344  0.2347 -0.0579 -0.4474
   19MOL   O21110327   3.230   3.625   0.059 -0.2186  0.1696  0.5291
   19MOL   C21210328   3.103   3.924   8.156  0.4577  0.7083 -0.0627
   19MOL   C21310329   3.055   3.968   8.029  0.7023 -0.4174 -0.1368
   19MOL   C21410330   2.970   4.079   8.029  0.1511 -0.1862  0.2351
   19MOL   C21510331   2.899   4.119   7.915 -0.1859 -0.1170  0.0290
   19MOL   H21610332   3.030   3.871   7.707  0.7142  1.6527 -0.5146
   19MOL   H21710333   3.184   3.723   7.824  1.7254  0.7840 -0.2336
   19MOL   H21810334   3.257   3.630   8.049 -0.5903 -0.1942  0.2707
   19MOL   H21910335   3.342   3.897   0.289  1.0185 -0.5545  0.0996
   19MOL   H22010336   3.347   3.718   0.267 -0.3694 -0.6946 -1.3707
   19MOL   H22110337   3.082   3.747   0.295  1.4475 -1.7414 -0.3448
   19MOL   H22210338   3.166   3.765   0.445 -0.0209 -1.7346 -1.1165
   19MOL   H22310339   3.087   3.979   8.248 -1.4541 -0.1469  0.1257
   19MOL   H22410340   2.974   4.126   8.126  0.6935  0.1396  0.0614
   19MOL   H22510341   2.844   4.212   7.913  2.1816  1.3723  1.3719
   19MOL   O22610342   3.232   4.030   0.491 -0.0426  0.1474  0.7078
   19MOL   C22710343   3.148   4.040   0.405  0.5168  0.4170  0.1671
   19MOL   O22810344   3.097   3.933   0.342  0.3595 -0.3381 -0.2642
   19MOL   C22910345   3.078   4.169   0.365 -0.0784  0.3892  0.2815
   19MOL   C23010346   3.029   4.190   0.233  0.1467  0.3064 -0.3179
   19MOL   C23110347   2.987   4.318   0.195 -0.1047  0.0879  0.4352
   19MOL   C23210348   2.945   4.348   0.068  0.6666 -0.3660  0.2884
   19MOL   C23310349   2.902   4.478   0.037  0.0613  0.1963 -0.2548
   19MOL   C23410350   2.882   4.574   0.133 -0.4977 -0.7365  0.7246
   19MOL   C23510351   2.797   4.693   0.093  0.2316 -0.0520  0.1565
   19MOL   O23610352   2.771   4.773   0.197  0.2778 -0.3937  0.4491
   19MOL   C23710353   2.680   4.884   0.177  0.1153  0.6048 -1.0096
   19MOL   C23810354   2.740   5.007   0.108  0.3367  0.2014  0.2596
   19MOL   O23910355   2.762   4.716   8.226 -0.1392 -0.0827  0.2560
   19MOL   C24010356   2.928   4.552   0.265 -0.0145 -0.0641  0.4558
   19MOL   C24110357   2.983   4.423   0.291  0.7363  0.1011  0.7137
   19MOL   C24210358   3.016   4.396   0.427 -0.0249  0.4355  0.6803
   19MOL   C24310359   3.064   4.271   0.464  0.5519 -0.1220  0.1418
   19MOL   H24410360   3.033   4.110   0.160 -3.1268 -0.9733  0.8006
   19MOL   H24510361   2.944   4.270   8.243  1.9732 -2.0251  1.9619
   19MOL   H24610362   2.877   4.492   8.182  2.4984  2.7597 -0.5719
   19MOL   H24710363   2.634   4.901   0.275  0.8212 -0.4915 -0.4757
   19MOL   H24810364   2.607   4.842   0.107 -0.6992 -2.2173  1.3909
   19MOL   H24910365   2.772   4.980   0.008  1.7972  1.5528  0.3501
   19MOL   H25010366   2.658   5.078   0.093  0.8164  0.2235 -2.3291
   19MOL   H25110367   2.908   4.624   0.343  0.0037 -0.3372  0.7138
   19MOL   H25210368   3.022   4.485   0.488  0.9862 -0.7088  2.2734
   19MOL   H25310369   3.096   4.256   0.566  2.9847 -0.2077 -0.6117
   19MOL   O25410370   3.014   4.951   0.116  0.1031  0.1120  0.3290
   19MOL   C25510371   2.969   5.043   0.182  0.2076 -0.0497 -0.2922
   19MOL   O25610372   2.840   5.081   0.186  0.0125  0.2567 -0.0543
   19MOL   C25710373   3.048   5.123   0.282  0.3303  0.6090  0.4878
   19MOL   C25810374   2.987   5.193   0.381  0.5388  0.1764  0.0976
   19MOL   C25910375   3.065   5.271   0.466 -0.5509  0.0077 -0.2664
   19MOL   C26010376   3.003   5.343   0.571 -0.2127 -0.4672  0.3139
   19MOL   C26110377   3.086   5.415   0.668  0.4959  0.0298  0.6324
   19MOL   C26210378   3.225   5.425   0.645 -0.0516  0.0962 -0.2066
   19MOL   C26310379   3.307   5.500   0.750  0.0019  0.3436 -0.2329
   19MOL   O26410380   3.423   5.526   0.703 -0.0928 -0.3564  0.3506
   19MOL   C26510381   3.518   5.589   0.788 -0.0055  0.2691  0.2972
   19MOL   C26610382   3.596   5.485   0.871 -1.0041  0.0588  0.6831
   19MOL   O26710383   3.274   5.515   0.870  0.4069  0.5259  0.2391
   19MOL   C26810384   3.287   5.352   0.540 -0.1994 -0.5349 -0.3064
   19MOL   C26910385   3.208   5.271   0.458  0.2803 -0.3702 -0.1582
   19MOL   C27010386   3.268   5.190   0.365 -0.0477 -0.2054  0.1219
   19MOL   C27110387   3.187   5.126   0.266 -0.1035 -0.6855  0.1590
   19MOL   H27210388   2.879   5.193   0.382  0.5366 -2.3153  1.3123
   19MOL   H27310389   2.900   5.346   0.604  0.3576  3.4843  2.0930
   19MOL   H27410390   3.039   5.471   0.747 -0.3418 -0.4087  0.4614
   19MOL   H27510391   3.463   5.656   0.855  0.1364  1.1794 -0.4914
   19MOL   H27610392   3.579   5.664   0.738 -0.5285  0.1907 -0.4726
   19MOL   H27710393   3.591   5.513   0.977 -0.0101 -3.3087  1.6942
   19MOL   H27810394   3.555   5.384   0.870  1.3697 -0.9388 -1.0689
   19MOL   H27910395   3.395   5.352   0.529 -0.1598 -1.3614  0.0497
   19MOL   H28010396   3.375   5.188   0.353  0.0287 -1.8618  0.9488
   19MOL   H28110397   3.237   5.072   0.186  0.6746  0.3568 -0.0760
   19MOL   O28210398   3.686   5.377   0.628 -0.2044 -0.3241 -0.4193
   19MOL   C28310399   3.762   5.426   0.709 -0.5702 -0.3730  0.9157
   19MOL   O28410400   3.727   5.480   0.830 -0.4348 -0.4803 -0.8853
   19MOL   C28510401   3.905   5.431   0.679 -0.2490 -0.3141 -0.4762
   19MOL   C28610402   3.987   5.512   0.754  0.6699 -1.1463 -0.5086
   19MOL   C28710403   4.122   5.516   0.728 -0.6328  0.2539  0.0991
   19MOL   C28810404   4.205   5.597   0.804 -0.4549  0.9849  0.3355
   19MOL   C28910405   4.342   5.615   0.771  0.2878  0.4435 -0.2802
   19MOL   C29010406   4.396   5.549   0.654  0.0070 -0.2065  0.1571
   19MOL   C29110407   4.548   5.572   0.632  0.3734 -0.1617  0.9119
   19MOL   O29210408   4.587   5.521   0.511 -0.3708  0.1536  0.2225
   19MOL   C29310409   4.723   5.530   0.486  0.6326  0.1800 -0.0700
   19MOL   C29410410   4.756   5.659   0.409 -0.4874 -0.2522 -0.7892
   19MOL   O29510411   4.622   5.629   0.713  0.0507  0.1581 -0.3168
   19MOL   C29610412   4.315   5.456   0.587 -0.0722  0.2317  0.1838
   19MOL   C29710413   4.182   5.438   0.622 -0.0893  0.9978 -0.0147
   19MOL   C29810414   4.096   5.362   0.544  0.0180  0.7716 -0.6840
   19MOL   C29910415   3.954   5.354   0.578 -0.5343  0.1391 -0.1789
   19MOL   H30010416   3.942   5.569   0.833 -1.3293 -2.5758 -0.5875
   19MOL   H30110417   4.165   5.643   0.894  0.4059  0.5170  0.9694
   19MOL   H30210418   4.399   5.675   0.840  2.0094 -0.8921 -0.5271
   19MOL   H30310419   4.744   5.446   0.419  1.0213 -0.0798  0.3789
   19MOL   H30410420   4.787   5.523   0.574  0.9273 -1.1765 -0.3737
   19MOL   H30510421   4.821   5.648   0.322 -0.1309  0.8258 -0.6658
   19MOL   H30610422   4.663   5.695   0.365 -0.2809  0.5634 -0.5631
   19MOL   H30710423   4.363   5.397   0.511  2.7376 -0.2944  2.2760
   19MOL   H30810424   4.138   5.291   0.473  0.4406  0.4723 -0.1383
   19MOL   H30910425   3.894   5.294   0.512  0.7168 -0.6467 -0.6295
   19MOL   O31010426   5.014   5.675   0.477  0.4950 -0.4774  0.0241
   19MOL   C31110427   4.938   5.754   0.529 -0.5098 -0.0562  0.2405
   19MOL   O31210428   4.808   5.756   0.504  0.4347  0.1159 -0.3485
   19MOL   C31310429   4.983   5.862   0.627  0.8607  0.2173  0.6313
   19MOL   C31410430   4.884   5.927   0.704 -0.3985  0.3742  0.1525
   19MOL   C31510431   4.931   6.024   0.795  0.3350  0.7131 -0.3448
   19MOL   C31610432   4.840   6.079   0.891  0.2932  0.1200  0.8112
   19MOL   C31710433   4.883   6.176   0.983 -0.0503 -0.5465  0.0571
   19MOL   C31810434   5.006   6.238   0.963  0.0269 -0.5850  0.2833
   19MOL   C31910435   5.044   6.351   1.049  0.4172  0.3993 -0.2429
   19MOL   O32010436   4.962   6.386   1.149 -0.2259  0.8661 -0.0910
   19MOL   C32110437   4.958   6.509   1.206  0.4646 -0.1373 -0.4460
   19MOL   C32210438   4.871   6.600   1.126 -0.8057 -0.4124 -0.5711
   19MOL   O32310439   5.146   6.422   1.038  0.6767  0.0001  0.0298
   19MOL   C32410440   5.098   6.179   0.872 -0.2357  0.4504  0.4941
   19MOL   C32510441   5.064   6.066   0.794 -0.0381  0.0173  0.2676
   19MOL   C32610442   5.159   6.007   0.704 -0.2981  0.1115  0.3397
   19MOL   C32710443   5.113   5.900   0.625 -0.5792 -0.4254  0.7385
   19MOL   H32810444   4.784   5.890   0.722 -0.4230 -0.4294 -1.5706
   19MOL   H32910445   4.742   6.037   0.906  0.6646  0.0816  3.2694
   19MOL   H33010446   4.818   6.224   1.055  0.8149 -2.0623  1.8831
   19MOL   H33110447   5.057   6.553   1.222  0.1776  0.8211 -1.2950
   19MOL   H33210448   4.923   6.497   1.308  0.1963  2.7139 -0.1687
   19MOL   H33310449   4.865   6.681   1.199 -1.3121  1.6990 -2.8697
   19MOL   H33410450   4.933   6.632   1.042 -0.6267  1.1515  0.1357
   19MOL   H33510451   5.199   6.213   0.855  0.3917 -1.9994 -0.8933
   19MOL   H33610452   5.261   6.041   0.697 -0.4565  1.1191  2.5860
   19MOL   H33710453   5.178   5.840   0.563  0.8780 -0.0379  1.8636
   19MOL   O33810454   4.625   6.618   1.241 -0.3162 -0.0993 -0.5887
   19MOL   C33910455   4.635   6.543   1.144  0.0141  0.7696  0.3633
   19MOL   O34010456   4.752   6.529   1.074  0.0884 -0.3785 -0.4369
   19MOL   C34110457   4.525   6.459   1.097 -0.1205  0.2916  0.0716
   19MOL   C34210458   4.544   6.383   0.978  0.4711  0.3678 -0.0351
   19MOL   C34310459   4.439   6.305   0.929  0.1554 -0.6779  0.2316
   19MOL   C34410460   4.452   6.251   0.797  0.3081 -0.1332 -0.8264
   19MOL   C34510461   4.350   6.162   0.756 -0.3808  0.5584 -0.2750
   19MOL   C34610462   4.233   6.140   0.830 -0.8198  1.0873  0.1440
   19MOL   C34710463   4.124   6.052   0.786 -0.0467  0.5053  0.4679
   19MOL   O34810464   4.005   6.107   0.808 -0.3647  0.5092  0.0629
   19MOL   C34910465   3.885   6.032   0.785 -0.9985  0.1948 -0.2853
   19MOL   C35010466   3.816   6.065   0.648  0.0498 -0.1152 -0.4995
   19MOL   O35110467   4.140   5.947   0.725  0.3716 -0.0908 -0.3466
   19MOL   C35210468   4.222   6.202   0.960 -0.2308  0.2389  0.3643
   19MOL   C35310469   4.326   6.288   1.008 -0.3776  0.0469 -0.7078
   19MOL   C35410470   4.304   6.360   1.127 -0.1753 -0.2277  0.2810
   19MOL   C35510471   4.406   6.441   1.176  0.2901 -0.3850  0.4260
   19MOL   H35610472   4.622   6.402   0.907  0.1987 -3.2787 -1.3964
   19MOL   H35710473   4.529   6.269   0.724  1.7200  0.5432  0.8066
   19MOL   H35810474   4.359   6.120   0.657 -0.1687  1.7193 -0.7612
   19MOL   H35910475   3.819   6.053   0.870 -0.1702 -0.4091  0.5058
   19MOL   H36010476   3.903   5.925   0.791  0.8313  0.4847 -0.4344
   19MOL   H36110477   3.709   6.048   0.653 -0.2010  1.6510  0.4294
   19MOL   H36210478   3.833   6.168   0.618  0.2356  0.2356  0.7797
   19MOL   H36310479   4.134   6.192   1.022  0.9541  1.5917  2.2997
   19MOL   H36410480   4.208   6.344   1.173  0.2039  0.6844  1.3894
   19MOL   H36510481   4.389   6.481   1.275 -1.2027 -0.0704  0.0565
   19MOL   O36610482   3.768   5.801   0.636 -0.3953  0.0925 -0.3723
   19MOL   C36710483   3.843   5.852   0.548 -0.3119  0.7740 -0.2223
   19MOL   O36810484   3.867   5.979   0.547 -0.1169  0.3439  0.2649
   19MOL   C36910485   3.890   5.779   0.425 -0.3380  0.0962 -0.0552
   19MOL   C37010486   3.845   5.650   0.401 -0.3298  0.4765 -0.5809
   19MOL   C37110487   3.886   5.572   0.292 -0.1337  0.1577 -0.2669
   19MOL   C37210488   3.846   5.440   0.271  0.5553  0.0047 -0.0827
   19MOL   C37310489   3.899   5.368   0.167  0.3945 -0.1228  0.6422
   19MOL   C37410490   3.995   5.427   0.078  0.3020  0.0329 -0.0916
   19MOL   C37510491   4.048   5.343   8.216 -0.0682  0.7620  0.4091
   19MOL   O37610492   4.143   5.414   8.157 -0.2511 -0.1067 -0.5960
   19MOL   C37710493   4.230   5.362   8.061 -0.4835  0.3740 -0.5427
   19MOL   C37810494   4.354   5.296   8.128  0.2895  0.1868  0.1197
   19MOL   O37910495   4.025   5.224   8.196  0.1643  0.1973  0.1541
   19MOL   C38010496   4.038   5.562   0.100  0.5603  0.4244  0.6000
   19MOL   C38110497   3.985   5.629   0.211 -0.2609 -0.0648  0.0841
   19MOL   C38210498   4.035   5.757   0.229 -0.0803  0.2050  0.0470
   19MOL   C38310499   3.981   5.837   0.333 -0.6086 -0.1448 -0.2570
   19MOL   H38410500   3.787   5.603   0.480  0.6986 -0.0030 -0.1085
   19MOL   H38510501   3.777   5.392   0.339  1.1395 -0.0252  0.4886
   19MOL   H38610502   3.854   5.272   0.149  2.0866 -0.5999 -1.1637
   19MOL   H38710503   4.256   5.446   7.997  0.0007 -0.8683 -1.9874
   19MOL   H38810504   4.190   5.285   7.996 -0.1172 -1.4043  1.2893
   19MOL   H38910505   4.316   5.204   8.173  1.0949  0.6255  1.7439
   19MOL   H39010506   4.425   5.275   8.047 -2.3443 -0.8827 -1.9806
   19MOL   H39110507   4.110   5.616   0.042 -1.7737  3.3822  0.3526
   19MOL   H39210508   4.117   5.785   0.165  1.5752 -0.5965  1.7838
   19MOL   H39310509   4.025   5.935   0.342  1.0729 -0.4281 -4.1056
   19MOL   O39410510   4.331   5.304   0.158  0.1801 -0.4007 -0.5070
   19MOL   C39510511   4.380   5.394   0.093  0.3885  0.3542  0.0460
   19MOL   O39610512   4.412   5.398   8.209  0.5180 -0.0664 -0.6546
   19MOL   C39710513   4.394   5.534   0.152 -0.8818 -0.7420 -0.5313
   19MOL   C39810514   4.496   5.623   0.106  0.0608  0.0233  0.1612
   19MOL   C39910515   4.516   5.747   0.168 -0.4289  0.6061 -0.4441
   19MOL   C40010516   4.626   5.823   0.129 -0.0952 -0.2390  0.2473
   19MOL   C40110517   4.652   5.944   0.196  0.1948 -0.6552  0.0052
   19MOL   C40210518   4.573   5.985   0.299  0.1631  0.0888 -0.1519
   19MOL   C40310519   4.606   6.104   0.376 -0.6166  0.2522  0.0543
   19MOL   O40410520   4.718   6.164   0.339  0.0444  0.3228  0.0494
   19MOL   C40510521   4.794   6.251   0.418  0.7447 -0.3341  0.0465
   19MOL   C40610522   4.941   6.219   0.436 -0.3329  0.1044 -0.7252
   19MOL   O40710523   4.534   6.139   0.471  0.1276  0.6706  0.3969
   19MOL   C40810524   4.458   5.904   0.340 -0.8150 -0.0980 -1.0427
   19MOL   C40910525   4.431   5.782   0.272 -0.3771 -0.3240 -0.6172
   19MOL   C41010526   4.335   5.694   0.319  0.4786  1.2695  0.0406
   19MOL   C41110527   4.314   5.567   0.262 -0.0824 -0.2197  0.4813
   19MOL   H41210528   4.574   5.607   0.032 -3.2551  1.2728 -3.7841
   19MOL   H41310529   4.683   5.786   0.044 -2.6791 -0.2891 -1.5110
   19MOL   H41410530   4.737   5.996   0.153  0.1339  0.0009  0.6787
   19MOL   H41510531   4.743   6.269   0.513 -1.3435  2.3028 -1.4818
   19MOL   H41610532   4.783   6.348   0.369  1.9131 -0.3149 -0.1926
   19MOL   H41710533   4.995   6.301   0.483  0.5577 -1.1385  0.4395
   19MOL   H41810534   4.952   6.135   0.505  1.5311  0.3033 -0.7526
   19MOL   H41910535   4.404   5.952   0.420 -0.4374 -1.1907 -0.1332
   19MOL   H42010536   4.270   5.727   0.399 -1.4147  0.6785 -1.2093
   19MOL   H42110537   4.234   5.503   0.297 -0.3890 -0.2143 -0.2104
   19MOL   O42210538   5.217   6.190   0.390 -0.7415  0.0770 -1.0023
   19MOL   C42310539   5.137   6.177   0.296 -0.2039 -0.9326 -0.2490
   19MOL   O42410540   5.003   6.187   0.313  0.4452 -0.3907 -0.2003
   19MOL   C42510541   5.177   6.140   0.159 -1.2788 -0.2514 -0.3891
   19MOL   C42610542   5.079   6.075   0.076 -0.4153  0.5585  0.3590
   19MOL   C42710543   5.107   6.044   8.191 -0.7923 -0.0299  0.7612
   19MOL   C42810544   5.006   5.979   8.117  0.3332 -0.1128  0.7573
   19MOL   C42910545   5.034   5.932   7.987  0.1470 -0.2833 -0.4552
   19MOL   C43010546   5.163   5.953   7.934  0.5214 -0.2435  0.0949
   19MOL   C43110547   5.189   5.893   7.801  0.5888 -0.2134  0.5120
   19MOL   O43210548   5.296   5.927   7.741 -0.6794  0.0761  0.3785
   19MOL   C43310549   5.338   5.856   7.622  0.7572 -0.1019 -0.5091
   19MOL   C43410550   5.484   5.901   7.598 -0.1576 -0.4767  0.1165
   19MOL   O43510551   5.113   5.812   7.751 -0.5322  0.0503  0.4616
   19MOL   C43610552   5.263   6.014   8.014 -0.4010 -0.1430 -0.1518
   19MOL   C43710553   5.234   6.063   8.143 -1.0429  0.1146 -0.7323
   19MOL   C43810554   5.327   6.141   8.219 -0.2166 -0.5169  0.3246
   19MOL   C43910555   5.306   6.168   0.108  0.6020  0.3258  0.0368
   19MOL   H44010556   4.982   6.049   0.117 -1.1764  1.6532 -0.7070
   19MOL   H44110557   4.914   5.946   8.164  0.0935 -0.5694 -0.0083
   19MOL   H44210558   4.963   5.889   7.918  0.3288  1.1710 -1.5659
   19MOL   H44310559   5.262   5.880   7.549 -0.7069  1.9799  1.6137
   19MOL   H44410560   5.335   5.747   7.629  1.7924 -0.0370  1.6593
   19MOL   H44510561   5.503   5.885   7.492 -3.0635 -0.5207 -0.4449
   19MOL   H44610562   5.497   6.007   7.619  1.3685 -1.2131  3.1926
   19MOL   H44710563   5.364   6.031   7.980 -0.5841  2.5913  0.6000
   19MOL   H44810564   5.422   6.176   8.181  0.0502 -0.3078  1.1648
   19MOL   H44910565   5.376   6.211   0.178 -0.6719 -2.5797  3.2707
   19MOL   O45010566   5.741   5.869   7.515 -0.2238  0.0429  0.4905
   19MOL   C45110567   5.710   5.838   7.632  0.3284 -0.0968 -0.0481
   19MOL   O45210568   5.580   5.831   7.677 -0.6129 -0.4771  0.0230
   19MOL   C45310569   5.813   5.778   7.732 -0.1087 -0.5577  0.1053
   19MOL   C45410570   5.776   5.743   7.862 -0.1826  0.3740 -0.1145
   19MOL   C45510571   5.872   5.715   7.962  0.4344  0.4759  0.4577
   19MOL   C45610572   5.839   5.713   8.097  0.0309  0.0782 -0.3425
   19MOL   C45710573   5.945   5.709   8.193  0.2539 -0.6311  0.6411
   19MOL   C45810574   6.081   5.698   8.151  0.6430  0.1383  0.5914
   19MOL   C45910575   6.175   5.725   0.012 -0.9266 -0.6099 -0.2268
   19MOL   O46010576   6.303   5.704   8.240  0.4644 -0.4268  0.2790
   19MOL   C46110577   6.398   5.735   0.090  0.1154 -0.4773  0.5542
   19MOL   C46210578   6.525   5.682   0.043 -0.1395  0.0109 -0.4588
   19MOL   O46310579   6.139   5.765   0.126 -0.0275  0.2857  0.5679
   19MOL   C46410580   6.113   5.684   8.018  0.3814  0.3834 -0.1822
   19MOL   C46510581   6.006   5.706   7.926 -0.0242 -0.1719 -0.1379
   19MOL   C46610582   6.043   5.718   7.797  0.3326 -0.3534 -0.4571
   19MOL   C46710583   5.944   5.760   7.702 -0.9963 -0.2375 -0.5391
   19MOL   H46810584   5.675   5.761   7.895  0.0184  0.1458  0.6439
   19MOL   H46910585   5.735   5.720   8.126 -0.1706  1.7539 -1.3901
   19MOL   H47010586   5.916   5.722   0.047  0.5036  0.1837  0.6093
   19MOL   H47110587   6.363   5.717   0.192 -0.5672  0.7509  0.5484
   19MOL   H47210588   6.406   5.842   0.070 -0.6816 -0.7501 -1.3142
   19MOL   H47310589   6.528   5.660   8.186 -1.8395 -0.5199 -0.4025
   19MOL   H47410590   6.605   5.751   0.072  1.0540 -1.9745  1.2290
   19MOL   H47510591   6.212   5.676   7.977  0.6747  0.3350  0.5376
   19MOL   H47610592   6.146   5.702   7.771  1.1738  1.6350  1.4918
   19MOL   H47710593   5.980   5.782   7.602  0.3983  1.3728  0.2934
   19MOL   O47810594   6.427   5.434   8.229  0.4107 -0.1422 -0.3573
   19MOL   C47910595   6.490   5.450   0.084 -0.0570  0.1973 -0.3480
   19MOL   O48010596   6.538   5.566   0.126  0.1206  0.6843 -0.3452
   19MOL   C48110597   6.527   5.331   0.168 -0.1522  0.2822  0.4206
   19MOL   C48210598   6.494   5.198   0.136  0.3751  0.0170 -0.1076
   19MOL   C48310599   6.530   5.091   0.218  0.5573  0.3010 -0.6934
   19MOL   C48410600   6.481   4.960   0.186 -0.3244  0.0058  0.3379
   19MOL   C48510601   6.521   4.850   0.269 -0.6171 -0.3815 -0.2390
   19MOL   C48610602   6.603   4.870   0.387 -0.1802 -0.4774  0.0280
   19MOL   C48710603   6.648   4.752   0.472  0.2776 -0.0496  0.9023
   19MOL   O48810604   6.575   4.642   0.443  0.4484  0.3515 -0.0740
   19MOL   C48910605   6.601   4.522   0.509  0.0336  0.3089  0.0380
   19MOL   C49010606   6.520   4.493   0.636  0.2549 -0.1782  0.1085
   19MOL   O49110607   6.732   4.752   0.559 -0.0175 -0.0835  0.8815
   19MOL   C49210608   6.655   5.000   0.415 -0.4326  0.6265 -0.0406
   19MOL   C49310609   6.617   5.108   0.333 -0.3529  0.7753  1.0390
   19MOL   C49410610   6.658   5.237   0.362  0.1352 -0.5607 -0.2111
   19MOL   C49510611   6.613   5.346   0.283 -0.6137 -0.1935  0.0441
   19MOL   H49610612   6.438   5.180   0.045 -2.1278  1.2987  1.1108
   19MOL   H49710613   6.414   4.943   0.103  0.0516  0.3980 -0.0500
   19MOL   H49810614   6.484   4.750   0.248 -1.3680 -0.8604  2.9831
   19MOL   H49910615   6.709   4.513   0.524  0.3992 -0.3504 -2.6927
   19MOL   H50010616   6.574   4.439   0.443 -2.1118  2.0842 -1.4189
   19MOL   H50110617   6.563   4.548   0.720  1.0414 -2.2142  1.0613
   19MOL   H50210618   6.417   4.525   0.620  0.0072 -1.3222 -0.6606
   19MOL   H50310619   6.712   5.018   0.505 -0.3489 -0.9307  0.2239
   19MOL   H50410620   6.708   5.263   0.454 -0.6324 -0.8590  0.2903
   19MOL   H50510621   6.649   5.444   0.308  1.2843 -0.5680 -1.0801
   19MOL   O50610622   6.371   4.313   0.503 -0.8280  0.3213 -0.2911
   19MOL   C50710623   6.428   4.279   0.602  0.6183 -0.4293 -0.1186
   19MOL   O50810624   6.504   4.359   0.673 -0.5941  0.2044 -0.4121
   19MOL   C50910625   6.411   4.144   0.658  0.5244  0.4766 -0.1875
   19MOL   C51010626   6.473   4.090   0.771 -0.7147 -0.5377 -0.0963
   19MOL   C51110627   6.440   3.966   0.825 -0.2491  0.1080  0.0243
   19MOL   C51210628   6.511   3.921   0.935  0.3119  0.0584 -0.5621
   19MOL   C51310629   6.490   3.792   0.986 -0.3325 -0.3134  0.0431
   19MOL   C51410630   6.398   3.710   0.917  0.6535 -0.4285  0.3394
   19MOL   C51510631   6.382   3.567   0.964 -0.0070 -0.4381  0.2205
   19MOL   O51610632   6.491   3.524   1.032 -0.3927  0.7088 -0.1170
   19MOL   C51710633   6.501   3.393   1.083 -0.7627  0.0431 -1.0387
   19MOL   C51810634   6.624   3.392   1.189 -0.7608  0.0981  0.1026
   19MOL   O51910635   6.283   3.497   0.940  0.2252  0.2166  0.0025
   19MOL   C52010636   6.325   3.754   0.806  0.3422  1.0278 -0.3504
   19MOL   C52110637   6.350   3.881   0.757  0.2826 -0.2479  0.1934
   19MOL   C52210638   6.288   3.929   0.639  0.5578  0.7449  0.3523
   19MOL   C52310639   6.325   4.054   0.585 -0.3819 -0.2537  0.0802
   19MOL   H52410640   6.533   4.161   0.825 -1.9880  1.4627 -1.2643
   19MOL   H52510641   6.588   3.985   0.977 -0.8579  0.0918  1.6328
   19MOL   H52610642   6.550   3.747   1.065  1.6195  1.6852 -0.2786
   19MOL   H52710643   6.504   3.317   1.006 -2.0887 -2.7027  1.5325
   19MOL   H52810644   6.417   3.366   1.147  0.2467 -0.0303  0.2729
   19MOL   H52910645   6.631   3.490   1.235 -0.8596  0.1983 -0.0956
   19MOL   H53010646   6.623   3.326   1.276  2.2907 -3.1859 -2.1599
   19MOL   H53110647   6.248   3.694   0.760  3.0909 -2.4915 -0.5679
   19MOL   H53210648   6.210   3.876   0.587 -1.7504  2.4285  2.0320
   19MOL   H53310649   6.284   4.086   0.491 -0.7324 -0.4886  0.1527
   19MOL   O53410650   6.699   3.137   1.140  0.3300 -0.2645 -0.7710
   19MOL   C53510651   6.771   3.228   1.101  0.1244  0.0720  0.1426
   19MOL   O53610652   6.741   3.358   1.115  0.1936 -0.0270  0.1570
   19MOL   C53710653   6.896   3.194   1.042 -0.8521  0.0873 -0.4320
   19MOL   C53810654   6.996   3.283   0.995 -0.2269 -0.5691  0.5115
   19MOL   C53910655   7.121   3.249   0.941 -0.2293  0.2829 -0.5681
   19MOL   C54010656   7.209   3.348   0.895 -0.1526  0.2682 -0.3362
   19MOL   C54110657   7.333   3.312   0.841  0.6852 -0.1551  0.1425
   19MOL   C54210658   7.376   3.177   0.841  0.1908 -0.5734  0.1324
   19MOL   C54310659   7.511   3.137   0.789  0.3168 -0.7289  0.0643
   19MOL   O54410660   7.590   3.249   0.764  0.1603 -0.0989 -0.4324
   19MOL   C54510661   7.716   3.233   0.710  0.6770 -0.2899 -0.0449
   19MOL   C54610662   7.707   3.229   0.556 -0.1786  0.2503 -0.5594
   19MOL   O54710663   7.537   3.019   0.765  0.8299 -0.9597 -0.1145
   19MOL   C54810664   7.282   3.079   0.890 -0.7725  0.2520 -0.9338
   19MOL   C54910665   7.155   3.113   0.930 -0.5122 -0.1016 -0.2776
   19MOL   C55010666   7.062   3.018   0.973  0.0130  0.2461 -0.6435
   19MOL   C55110667   6.939   3.059   1.030  0.3465  0.3750  0.5249
   19MOL   H55210668   6.970   3.387   1.007  0.8739  0.0564 -2.0872
   19MOL   H55310669   7.182   3.452   0.902 -0.6794  0.0990  0.1968
   19MOL   H55410670   7.404   3.386   0.809 -0.2198  0.3664 -0.6757
   19MOL   H55510671   7.772   3.146   0.743  0.0859 -0.9370 -0.7227
   19MOL   H55610672   7.784   3.316   0.732  1.3115 -0.3783 -1.6006
   19MOL   H55710673   7.649   3.140   0.531 -0.3726 -0.4533  2.1592
   19MOL   H55810674   7.801   3.220   0.501  0.2342  1.7122 -0.1142
   19MOL   H55910675   7.302   2.973   0.901 -0.5527  0.1871 -1.9008
   19MOL   H56010676   7.080   2.912   0.963  1.1778  0.4895 -1.1695
   19MOL   H56110677   6.876   2.975   1.058  0.8632  0.0518  0.7376
   19MOL   H56210678   7.650   3.313   0.517 -2.0462  0.5311  2.5813
   20MOL     O110679   1.648   7.246   0.463  0.0872 -0.3920 -0.1394
   20MOL     C210680   1.662   7.125   0.471 -0.1739 -0.3692  0.1272
   20MOL     O310681   1.607   7.055   0.573  0.9678 -0.2622 -0.3642
   20MOL     C410682   1.745   7.047   0.372  0.0731  0.4941  0.0070
   20MOL     C510683   1.716   6.909   0.344  0.1368 -0.4378 -0.1453
   20MOL     C610684   1.807   6.832   0.270 -0.2834  1.4125  0.6058
   20MOL     C710685   1.790   6.691   0.249  0.2670  0.4893 -0.1907
   20MOL     C810686   1.885   6.613   0.187 -0.1675  0.3867 -0.0121
   20MOL     C910687   2.001   6.676   0.132  0.1133  0.1042 -0.2571
   20MOL    C1010688   2.111   6.587   0.080 -0.3429  0.1796  0.0249
   20MOL    O1110689   2.217   6.656   0.047 -0.4293  0.5704 -0.3311
   20MOL    C1210690   2.327   6.594   8.232 -0.4972  0.0252  0.2087
   20MOL    C1310691   2.425   6.527   0.075 -0.0522 -0.2962  0.4210
   20MOL    O1410692   2.116   6.464   0.092  0.1826  0.0519 -0.0347
   20MOL    C1510693   2.012   6.817   0.137  0.7365  0.0712 -0.3269
   20MOL    C1610694   1.921   6.894   0.208  0.4104 -0.0915  0.3036
   20MOL    C1710695   1.946   7.027   0.230  0.2785 -0.4753 -0.0563
   20MOL    C1810696   1.859   7.105   0.306  0.3939  0.1132  0.4341
   20MOL    H1910697   1.633   6.856   0.389  0.9561  0.2878  2.2766
   20MOL    H2010698   1.710   6.634   0.294 -0.6560  1.0436 -1.0910
   20MOL    H2110699   1.871   6.506   0.197  0.2957  0.1788 -1.5800
   20MOL    H2210700   2.297   6.526   8.152  0.6426 -2.8533  2.1712
   20MOL    H2310701   2.393   6.668   8.186  1.8606 -1.9345  0.3388
   20MOL    H2410702   2.472   6.579   0.158 -1.4298 -1.9207  2.2776
   20MOL    H2510703   2.390   6.428   0.108 -1.8858 -0.2808 -1.3733
   20MOL    H2610704   2.102   6.867   0.105  0.5366  1.2269  0.8580
   20MOL    H2710705   2.031   7.076   0.184 -1.2353 -0.0090 -2.3709
   20MOL    H2810706   1.880   7.209   0.325 -0.0729  0.4605 -0.9029
   20MOL    H2910707   1.567   7.112   0.636 -0.1977  3.5521 -4.3019
   20MOL    O3010708   2.669   6.658   0.037  0.4242  0.0287  0.1955
   20MOL    C3110709   2.635   6.567   8.213  0.6332 -0.5842  0.1807
   20MOL    O3210710   2.527   6.487   8.235 -0.0406  0.4863  0.2050
   20MOL    C3310711   2.715   6.533   8.094 -0.3134 -0.2643  0.4463
   20MOL    C3410712   2.838   6.599   8.081  0.0297  0.1638  0.2888
   20MOL    C3510713   2.916   6.577   7.966  0.7694  0.4735  0.6533
   20MOL    C3610714   3.047   6.631   7.961 -0.6363 -0.7821 -0.3763
   20MOL    C3710715   3.122   6.627   7.837  0.1980 -0.3247 -0.4386
   20MOL    C3810716   3.063   6.561   7.723  0.2736 -0.0517  0.0300
   20MOL    C3910717   3.128   6.575   7.589  0.0461  0.5969 -0.0554
   20MOL    O4010718   3.222   6.667   7.579  0.2735 -0.4032  0.2415
   20MOL    C4110719   3.297   6.707   7.460  1.3872 -0.0238 -0.3628
   20MOL    C4210720   3.360   6.837   7.486 -0.6919  0.2306 -0.3018
   20MOL    O4310721   3.089   6.516   7.485 -0.0417  0.7961 -0.0058
   20MOL    C4410722   2.943   6.487   7.741 -0.1104  1.1794  0.1393
   20MOL    C4510723   2.868   6.497   7.860 -0.2900 -0.3998  0.5870
   20MOL    C4610724   2.743   6.427   7.875  0.6529 -0.1340  0.3375
   20MOL    C4710725   2.672   6.440   7.997 -0.6956  0.0302 -0.5377
   20MOL    H4810726   2.882   6.671   8.148 -1.4682  0.5102  0.9018
   20MOL    H4910727   3.081   6.697   8.039  0.5082 -1.0925 -0.5976
   20MOL    H5010728   3.207   6.691   7.818  1.1958 -0.5054  3.0114
   20MOL    H5110729   3.213   6.725   7.393  1.1806  1.6307  0.3272
   20MOL    H5210730   3.354   6.629   7.409  2.3226  0.7763 -0.5530
   20MOL    H5310731   3.343   6.908   7.404  1.5501 -0.4594 -1.3865
   20MOL    H5410732   3.304   6.890   7.563  0.0462  0.2745  0.2033
   20MOL    H5510733   2.903   6.430   7.659  1.6255  0.8882 -0.5262
   20MOL    H5610734   2.710   6.357   7.800 -0.9376 -2.5902  3.2190
   20MOL    H5710735   2.581   6.383   8.004  0.4598 -2.0901 -2.3594
   20MOL    O5810736   3.577   6.803   7.315 -0.2803 -0.1583 -0.1396
   20MOL    C5910737   3.596   6.816   7.438  1.3179  0.1397  0.1211
   20MOL    O6010738   3.499   6.840   7.524 -0.1121 -0.0197  0.5119
   20MOL    C6110739   3.730   6.813   7.513 -0.1950 -0.2019 -0.3556
   20MOL    C6210740   3.845   6.781   7.435  0.0518  0.0957 -0.1731
   20MOL    C6310741   3.973   6.769   7.493  0.8571 -0.2238 -0.5672
   20MOL    C6410742   4.088   6.733   7.416 -0.5737  0.3496 -0.1682
   20MOL    C6510743   4.208   6.716   7.486 -0.4549 -0.4648  0.2347
   20MOL    C6610744   4.230   6.751   7.622 -0.5303  0.9220  0.1481
   20MOL    C6710745   4.359   6.735   7.691 -0.0902  0.3670 -0.1388
   20MOL    O6810746   4.449   6.706   7.599  0.8880 -0.4158  0.1808
   20MOL    C6910747   4.587   6.681   7.637 -0.8469  0.0976 -0.3495
   20MOL    C7010748   4.692   6.702   7.524  0.4025  0.5187  0.2192
   20MOL    O7110749   4.379   6.761   7.804  0.6110 -0.2368 -0.3300
   20MOL    C7210750   4.121   6.803   7.694  0.8277  0.5006 -0.0312
   20MOL    C7310751   3.997   6.799   7.630 -0.0358 -0.1881 -0.0759
   20MOL    C7410752   3.888   6.840   7.705 -0.5236 -0.8715  0.2863
   20MOL    C7510753   3.756   6.844   7.648 -0.7944 -0.0343 -0.3911
   20MOL    H7610754   3.845   6.755   7.330  2.8044 -1.6812  0.2347
   20MOL    H7710755   4.084   6.713   7.310  0.0941 -0.3090 -0.0646
   20MOL    H7810756   4.285   6.681   7.419 -0.2465 -1.7301  1.1123
   20MOL    H7910757   4.591   6.577   7.670 -2.1194  0.4173  0.9005
   20MOL    H8010758   4.605   6.757   7.714 -4.0147  0.1322  0.4423
   20MOL    H8110759   4.699   6.615   7.459  1.7240  1.1479 -0.5082
   20MOL    H8210760   4.641   6.775   7.461  2.3263  0.2735 -1.6908
   20MOL    H8310761   4.140   6.817   7.799  1.3220 -1.8999  0.2396
   20MOL    H8410762   3.906   6.880   7.804  2.2560  1.1297 -0.9750
   20MOL    H8510763   3.678   6.893   7.705 -1.4351 -0.6331 -0.7541
   20MOL    O8610764   4.886   6.518   7.559 -0.7920  0.2976  0.9346
   20MOL    C8710765   4.899   6.624   7.618  0.1862  0.9057  0.3548
   20MOL    O8810766   4.817   6.729   7.583  0.0606 -0.3046 -0.1721
   20MOL    C8910767   5.001   6.660   7.715 -0.2982  0.4192 -0.0193
   20MOL    C9010768   4.977   6.759   7.815  0.1049 -0.3033  0.0788
   20MOL    C9110769   5.077   6.776   7.913  0.6570 -0.2939  0.2322
   20MOL    C9210770   5.065   6.883   8.003  0.2630  0.1082  0.7468
   20MOL    C9310771   5.170   6.911   8.096  0.4902  0.2310 -0.1217
   20MOL    C9410772   5.284   6.829   8.091 -0.9666  0.2242  0.0897
   20MOL    C9510773   5.397   6.858   8.185  0.2522 -0.0975  0.2829
   20MOL    O9610774   5.386   6.972   8.247  0.3458  0.0722  0.6405
   20MOL    C9710775   5.445   7.001   0.121  0.5049  0.4430 -0.7511
   20MOL    C9810776   5.369   6.944   0.238 -0.2605 -0.8863  0.6480
   20MOL    O9910777   5.496   6.789   8.200 -0.1191 -0.0686 -0.4004
   20MOL   C10010778   5.306   6.733   7.988 -0.5682 -0.6590 -0.5647
   20MOL   C10110779   5.201   6.706   7.904  0.1469 -0.0785 -0.2309
   20MOL   C10210780   5.220   6.614   7.801 -0.5817  0.4495 -0.6122
   20MOL   C10310781   5.115   6.581   7.713 -0.2563 -0.0410  0.1757
   20MOL   H10410782   4.887   6.818   7.817  0.7675  0.6894  2.9662
   20MOL   H10510783   4.975   6.942   8.012 -0.3255 -0.9236  1.7530
   20MOL   H10610784   5.154   6.979   8.178 -2.2058  0.8148 -1.0931
   20MOL   H10710785   5.454   7.109   0.130 -0.4697  0.4251  0.6811
   20MOL   H10810786   5.548   6.965   0.126 -0.2831 -2.4334 -3.3147
   20MOL   H10910787   5.344   6.842   0.210  1.0061 -0.9632 -0.2269
   20MOL   H11010788   5.428   6.922   0.327 -0.6683 -2.6149  0.5051
   20MOL   H11110789   5.400   6.683   7.972  0.2719  0.7425 -0.1126
   20MOL   H11210790   5.306   6.549   7.791 -1.1116 -0.4236  0.3956
   20MOL   H11310791   5.131   6.502   7.642  0.4798  1.9426 -1.9221
   20MOL   O11410792   5.208   6.893   0.459  0.4414  0.2726 -0.6542
   20MOL   C11510793   5.172   6.975   0.373  0.4014  0.3743 -0.0950
   20MOL   O11610794   5.251   7.022   0.277  0.3372 -0.2557 -0.4407
   20MOL   C11710795   5.036   7.022   0.361 -0.4308 -0.2340 -1.6307
   20MOL   C11810796   4.946   6.989   0.468 -0.5181 -0.1557 -0.6440
   20MOL   C11910797   4.817   7.041   0.472  0.0534 -0.2653  0.4251
   20MOL   C12010798   4.726   7.012   0.577  0.2156 -0.1520  0.5233
   20MOL   C12110799   4.590   7.056   0.574 -0.4845  0.2586  0.0319
   20MOL   C12210800   4.554   7.139   0.473 -0.0318 -0.6886  0.2502
   20MOL   C12310801   4.419   7.205   0.478 -0.2531  0.1491  0.0692
   20MOL   O12410802   4.332   7.144   0.573 -0.4201  0.2567  0.4589
   20MOL   C12510803   4.189   7.180   0.572  0.1174 -0.5416  0.3945
   20MOL   C12610804   4.159   7.295   0.662 -0.3001 -0.5025 -0.5838
   20MOL   O12710805   4.389   7.296   0.406 -0.7780 -0.2302  0.0102
   20MOL   C12810806   4.642   7.180   0.368  0.1966  0.2410 -0.1918
   20MOL   C12910807   4.770   7.118   0.360 -0.0497 -0.1053  0.5313
   20MOL   C13010808   4.857   7.148   0.255 -0.7561 -0.9468  0.2259
   20MOL   C13110809   4.989   7.099   0.256  0.3988  0.6465  0.4227
   20MOL   H13210810   4.974   6.931   0.555  0.4861 -0.5922 -1.2451
   20MOL   H13310811   4.765   6.961   0.664 -0.2263  0.8934  1.3459
   20MOL   H13410812   4.525   7.021   0.652  1.4272  4.2480  3.6521
   20MOL   H13510813   4.134   7.087   0.586 -2.0636  1.1475  3.5106
   20MOL   H13610814   4.154   7.203   0.471 -2.6196 -0.1433  1.3943
   20MOL   H13710815   4.239   7.283   0.736 -0.9207 -0.1158  0.1524
   20MOL   H13810816   4.167   7.398   0.629  0.2893 -0.1561  0.6200
   20MOL   H13910817   4.617   7.256   0.296 -0.3018 -1.5655 -1.9641
   20MOL   H14010818   4.826   7.216   0.176 -1.1001 -0.5331  0.7136
   20MOL   H14110819   5.055   7.125   0.174 -0.8055  0.5035 -0.6078
   20MOL   O14210820   4.117   7.101   0.839 -0.0416  0.4278  0.7485
   20MOL   C14310821   4.029   7.186   0.831  0.1173 -0.1297 -0.4265
   20MOL   O14410822   4.038   7.284   0.740  0.0987 -0.1210  0.0128
   20MOL   C14510823   3.912   7.189   0.927  0.7785  0.6638  0.7085
   20MOL   C14610824   3.899   7.084   1.018  0.0730 -0.6628 -0.2893
   20MOL   C14710825   3.797   7.099   1.116  0.3493  0.5299  0.0877
   20MOL   C14810826   3.783   7.012   1.220  0.0174  0.3159  0.7718
   20MOL   C14910827   3.698   7.035   1.332  0.3292  0.5114 -0.5881
   20MOL   C15010828   3.613   7.147   1.336 -0.5156 -0.2429 -0.6876
   20MOL   C15110829   3.513   7.153   1.449 -0.3308  0.0561 -0.2584
   20MOL   O15210830   3.433   7.263   1.436  0.2254  0.1882 -0.1108
   20MOL   C15310831   3.327   7.286   1.522  0.9689  0.7245  0.7732
   20MOL   C15410832   3.190   7.218   1.482 -0.1398 -0.2718  0.4278
   20MOL   O15510833   3.513   7.079   1.545 -0.1934 -0.4478 -0.2567
   20MOL   C15610834   3.613   7.231   1.224  0.3764 -0.1467 -0.0753
   20MOL   C15710835   3.705   7.208   1.124  0.4840  0.3918  1.0558
   20MOL   C15810836   3.711   7.306   1.017  0.4141  0.6503 -0.6882
   20MOL   C15910837   3.814   7.291   0.916  0.2860 -0.6366 -0.1330
   20MOL   H16010838   3.964   6.998   1.027  1.1487  0.2693  1.2118
   20MOL   H16110839   3.841   6.921   1.226 -0.7762 -0.1346  1.7059
   20MOL   H16210840   3.704   6.968   1.416  0.5316  1.3161  0.0453
   20MOL   H16310841   3.308   7.393   1.525 -1.6520  0.3117  0.0670
   20MOL   H16410842   3.351   7.275   1.628  4.5708 -0.0279 -0.0384
   20MOL   H16510843   3.118   7.269   1.545 -0.3191 -2.4672  2.0659
   20MOL   H16610844   3.167   7.230   1.376  2.4026 -0.7942 -0.2125
   20MOL   H16710845   3.541   7.310   1.210  0.9036  0.7361  2.0918
   20MOL   H16810846   3.653   7.397   1.026  1.4047  1.1140  1.2506
   20MOL   H16910847   3.819   7.367   0.840  0.6888 -0.7607 -0.2321
   20MOL   O17010848   3.107   7.121   1.726  0.2988  0.5606  0.5505
   20MOL   C17110849   3.147   7.036   1.648 -0.4640 -0.2760  0.5812
   20MOL   O17210850   3.183   7.077   1.523  0.0248 -0.0548  0.0435
   20MOL   C17310851   3.151   6.890   1.673 -0.5750  0.4153  0.4493
   20MOL   C17410852   3.136   6.832   1.802 -0.7009 -0.5015 -0.2980
   20MOL   C17510853   3.145   6.695   1.826  0.2061  0.0792  0.5685
   20MOL   C17610854   3.136   6.645   1.955 -0.0594  0.6230  0.6507
   20MOL   C17710855   3.138   6.507   1.978 -0.1542  0.6248  0.3938
   20MOL   C17810856   3.158   6.418   1.875 -0.3037  0.0428 -0.0218
   20MOL   C17910857   3.169   6.277   1.902  0.0094  0.0999  0.3445
   20MOL   O18010858   3.198   6.220   1.788 -0.4447 -0.4090  0.4575
   20MOL   C18110859   3.208   6.075   1.774  0.5828 -0.4780 -0.1296
   20MOL   C18210860   3.314   6.014   1.866 -0.0198 -0.2896 -0.3828
   20MOL   O18310861   3.166   6.225   2.012 -0.2233  0.1706 -0.2279
   20MOL   C18410862   3.159   6.466   1.741  0.1063  0.4114 -0.3165
   20MOL   C18510863   3.158   6.605   1.717 -0.4812  0.4143 -0.3417
   20MOL   C18610864   3.159   6.659   1.582 -0.5812  0.7167 -0.6793
   20MOL   C18710865   3.167   6.799   1.567 -0.0152  0.2802 -0.0448
   20MOL   H18810866   3.122   6.896   1.888 -1.9193  0.7975 -1.4420
   20MOL   H18910867   3.138   6.713   2.039  2.6839 -1.3034  2.2057
   20MOL   H19010868   3.131   6.470   2.079 -1.6967 -0.9004 -0.2521
   20MOL   H19110869   3.234   6.064   1.669  0.1537  3.2768 -0.6963
   20MOL   H19210870   3.114   6.026   1.804 -0.6774  1.0068 -1.5709
   20MOL   H19310871   3.400   6.079   1.854  0.2415 -0.2389  1.6628
   20MOL   H19410872   3.281   6.024   1.970  0.8104  1.1489 -0.2357
   20MOL   H19510873   3.177   6.399   1.658 -0.4046  0.9425 -0.8647
   20MOL   H19610874   3.154   6.587   1.501 -1.2797 -0.2780  0.2325
   20MOL   H19710875   3.181   6.843   1.470  0.2640  1.0273  0.3330
   20MOL   O19810876   3.192   5.790   1.960 -0.2427 -0.1740  0.4545
   20MOL   C19910877   3.282   5.772   1.875  0.2434 -0.1551 -0.0401
   20MOL   O20010878   3.349   5.880   1.824 -0.9852 -0.2838  0.6367
   20MOL   C20110879   3.321   5.647   1.812 -0.2666  0.3599 -0.9846
   20MOL   C20210880   3.273   5.521   1.861 -0.5783 -0.3317 -0.8367
   20MOL   C20310881   3.322   5.394   1.814 -0.4974 -0.2717  0.1434
   20MOL   C20410882   3.281   5.267   1.859  0.6270  0.6461  0.0513
   20MOL   C20510883   3.353   5.149   1.824  0.5308 -0.0132 -0.0482
   20MOL   C20610884   3.457   5.164   1.729  0.3611 -0.6369 -0.1706
   20MOL   C20710885   3.529   5.039   1.690 -0.3796  0.1529  0.0276
   20MOL   O20810886   3.615   5.060   1.586 -1.0645  0.0101 -0.2234
   20MOL   C20910887   3.695   4.948   1.526  0.2110 -0.8857  0.0811
   20MOL   C21010888   3.817   4.890   1.609 -0.5504  0.5637  0.3575
   20MOL   O21110889   3.514   4.933   1.752  0.3007  0.8005 -0.1540
   20MOL   C21210890   3.486   5.287   1.673 -0.1132  0.9597 -0.0566
   20MOL   C21310891   3.420   5.400   1.717  0.1213 -0.1525  0.7838
   20MOL   C21410892   3.464   5.521   1.665 -0.1890 -0.6512  0.6691
   20MOL   C21510893   3.420   5.646   1.709  0.3347  0.3434 -0.4843
   20MOL   H21610894   3.189   5.519   1.929  0.6548 -0.9036  0.7118
   20MOL   H21710895   3.206   5.254   1.936 -1.1093  0.8397 -1.5857
   20MOL   H21810896   3.332   5.046   1.849  1.3620 -0.0537  0.5066
   20MOL   H21910897   3.741   4.993   1.438  0.0805 -1.1453 -0.1209
   20MOL   H22010898   3.626   4.876   1.481  1.8107 -1.1029 -2.1084
   20MOL   H22110899   3.906   4.866   1.551  0.7166 -0.6122  2.7478
   20MOL   H22210900   3.846   4.960   1.686 -0.9884  1.0781  0.0631
   20MOL   H22310901   3.559   5.293   1.594 -0.1656 -2.5481 -0.4398
   20MOL   H22410902   3.541   5.522   1.588  0.1801 -2.5885  0.9814
   20MOL   H22510903   3.462   5.735   1.664  0.5726  0.2659 -0.4168
   20MOL   O22610904   3.990   4.718   1.724  0.1357 -0.0634 -0.0212
   20MOL   C22710905   3.870   4.693   1.732 -0.1957 -0.1412 -0.2723
   20MOL   O22810906   3.776   4.770   1.670  0.1896 -0.6021 -0.3841
   20MOL   C22910907   3.808   4.571   1.791  0.5823 -0.8533 -0.4954
   20MOL   C23010908   3.670   4.547   1.779 -0.6997  0.5505  0.6082
   20MOL   C23110909   3.625   4.415   1.815 -0.2512 -0.4667  0.1969
   20MOL   C23210910   3.491   4.379   1.785  0.3121 -0.5309 -0.5648
   20MOL   C23310911   3.448   4.248   1.780  0.0561  0.5339 -0.0214
   20MOL   C23410912   3.536   4.145   1.827 -0.3834  0.4265  0.2662
   20MOL   C23510913   3.495   4.003   1.820 -0.2164 -0.0632  0.5336
   20MOL   O23610914   3.362   3.984   1.777 -0.1036  0.1475  0.0304
   20MOL   C23710915   3.333   3.852   1.739  0.0293  0.0993  0.0947
   20MOL   C23810916   3.389   3.810   1.599 -0.4649 -0.4051 -0.1622
   20MOL   O23910917   3.567   3.910   1.849 -0.2368  0.2702 -0.4389
   20MOL   C24010918   3.667   4.180   1.871  0.2129  0.8104  0.0953
   20MOL   C24110919   3.708   4.314   1.859  0.4211  0.0635  0.1205
   20MOL   C24210920   3.845   4.340   1.873 -0.0901 -0.3322  0.5598
   20MOL   C24310921   3.891   4.468   1.837 -0.0870 -0.0876  0.2221
   20MOL   H24410922   3.602   4.609   1.723 -1.5913 -1.4866 -0.6400
   20MOL   H24510923   3.420   4.459   1.769  0.0605 -0.6272  0.0601
   20MOL   H24610924   3.348   4.223   1.748  0.8221 -0.2479 -1.8410
   20MOL   H24710925   3.225   3.839   1.740  0.2606 -2.1647 -0.3258
   20MOL   H24810926   3.372   3.791   1.820 -1.8602 -0.7580  0.3777
   20MOL   H24910927   3.436   3.901   1.562 -1.0188 -0.6759 -1.5624
   20MOL   H25010928   3.466   3.735   1.618  0.0913  0.3056  0.4096
   20MOL   H25110929   3.730   4.101   1.912 -2.6814 -1.5105  0.2810
   20MOL   H25210930   3.918   4.267   1.903 -0.0032 -0.1554  0.7788
   20MOL   H25310931   3.998   4.474   1.826  0.0802 -3.0256 -0.0582
   20MOL   O25410932   3.254   3.554   1.586  0.1201  0.0514 -0.1139
   20MOL   C25510933   3.256   3.637   1.496  0.2430  0.6880  0.3397
   20MOL   O25610934   3.301   3.764   1.498  0.1231 -0.3802 -0.4667
   20MOL   C25710935   3.193   3.606   1.363 -0.0425 -0.6116  0.6169
   20MOL   C25810936   3.218   3.684   1.250 -0.2232  0.4621  0.5030
   20MOL   C25910937   3.168   3.648   1.124 -0.1083  0.1157 -0.0248
   20MOL   C26010938   3.190   3.731   1.012  0.2178 -0.0830 -0.0824
   20MOL   C26110939   3.140   3.691   0.884  0.1683 -0.2803 -0.7240
   20MOL   C26210940   3.050   3.587   0.875 -0.2783 -0.1023 -0.5178
   20MOL   C26310941   2.989   3.561   0.743  0.9118  0.9164 -0.3494
   20MOL   O26410942   2.919   3.446   0.751  0.3668 -0.0692  0.1264
   20MOL   C26510943   2.873   3.384   0.632 -0.6765 -0.2003  0.1950
   20MOL   C26610944   2.721   3.369   0.628  0.5325  0.4669 -0.3882
   20MOL   O26710945   2.988   3.640   0.645 -0.0723  0.7804  0.1996
   20MOL   C26810946   3.017   3.510   0.985  0.4523  0.5620 -0.1654
   20MOL   C26910947   3.076   3.542   1.116 -0.0700  0.3933  0.2583
   20MOL   C27010948   3.042   3.464   1.234 -0.0223  0.2026  0.2273
   20MOL   C27110949   3.099   3.499   1.355  0.5340  0.1582 -0.1616
   20MOL   H27210950   3.280   3.770   1.267  1.5527 -0.9437  1.2614
   20MOL   H27310951   3.246   3.824   1.005  0.4831 -0.2178  0.2830
   20MOL   H27410952   3.181   3.734   0.793  2.2093  1.1384  0.8165
   20MOL   H27510953   2.923   3.287   0.627 -0.0565  0.1070  0.3617
   20MOL   H27610954   2.905   3.441   0.544 -0.3764 -0.0053  0.4270
   20MOL   H27710955   2.698   3.292   0.555 -1.2724 -0.3409  0.9871
   20MOL   H27810956   2.695   3.337   0.729  1.4393 -1.1636 -0.6570
   20MOL   H27910957   2.944   3.431   0.989  0.3169  0.7334  0.8395
   20MOL   H28010958   2.977   3.378   1.231  0.7237 -0.3761  0.7497
   20MOL   H28110959   3.076   3.440   1.442 -1.6824 -1.0184 -1.5103
   20MOL   O28210960   2.717   3.494   0.386  0.1643 -0.5941 -0.4399
   20MOL   C28310961   2.648   3.538   0.478 -1.1160  0.2018 -0.4048
   20MOL   O28410962   2.653   3.487   0.603 -0.4808 -0.0316 -0.0229
   20MOL   C28510963   2.563   3.658   0.451 -0.2926  0.4110 -0.5331
   20MOL   C28610964   2.544   3.705   0.314 -0.5189 -0.2109 -0.1743
   20MOL   C28710965   2.453   3.806   0.288  0.3334 -1.2580  0.0794
   20MOL   C28810966   2.437   3.842   0.153 -0.2028 -0.2075 -0.0513
   20MOL   C28910967   2.361   3.953   0.117  0.1133  0.1548  0.0515
   20MOL   C29010968   2.299   4.031   0.223  0.1747  0.4940  0.7827
   20MOL   C29110969   2.225   4.165   0.201  0.4273 -0.4254  0.2615
   20MOL   O29210970   2.226   4.201   0.062  0.5200  0.1751 -0.1010
   20MOL   C29310971   2.195   4.334   0.033 -0.6474 -0.1678 -0.7627
   20MOL   C29410972   2.309   4.428   0.061  0.6044 -0.3133  0.2292
   20MOL   O29510973   2.161   4.228   0.286  0.0842 -0.1670 -0.6401
   20MOL   C29610974   2.302   3.980   0.357  0.3320 -0.5592 -0.7412
   20MOL   C29710975   2.381   3.871   0.392 -0.3084 -0.4037 -0.9071
   20MOL   C29810976   2.385   3.816   0.524  0.0779  0.6873  0.2001
   20MOL   C29910977   2.479   3.714   0.549 -0.6296  0.1626 -0.3903
   20MOL   H30010978   2.598   3.653   0.236 -0.1323  0.4121 -0.3306
   20MOL   H30110979   2.490   3.777   0.085  2.4910 -0.0527  1.8187
   20MOL   H30210980   2.338   3.974   0.014  0.1904 -0.5966 -0.1220
   20MOL   H30310981   2.103   4.359   0.085 -1.8391 -2.4683 -1.6974
   20MOL   H30410982   2.167   4.339   8.176  0.1766 -0.2258 -0.9846
   20MOL   H30510983   2.400   4.379   0.024 -0.8360 -1.6783 -1.6201
   20MOL   H30610984   2.298   4.517   8.249 -0.1480 -0.0295  0.7841
   20MOL   H30710985   2.245   4.040   0.427 -2.6213 -1.5601 -2.1880
   20MOL   H30810986   2.323   3.847   0.607  0.8227  2.4684  0.1117
   20MOL   H30910987   2.481   3.663   0.644 -3.3297 -0.2738 -0.5326
   20MOL   O31010988   2.524   4.555   0.175 -0.2580 -0.1847  0.1077
   20MOL   C31110989   2.427   4.518   0.242  0.1674 -0.1537 -0.1848
   20MOL   O31210990   2.325   4.458   0.195  0.0226  0.3086  0.2184
   20MOL   C31310991   2.418   4.521   0.393  0.5931  0.2001 -0.4752
   20MOL   C31410992   2.534   4.571   0.468 -0.5048  0.9602 -0.0932
   20MOL   C31510993   2.537   4.578   0.609 -0.4010  0.0223  0.0256
   20MOL   C31610994   2.648   4.627   0.680 -0.2131  0.1135 -0.4453
   20MOL   C31710995   2.638   4.637   0.820  0.0375  0.0804 -0.3039
   20MOL   C31810996   2.524   4.604   0.891 -0.3702 -0.4617 -0.1259
   20MOL   C31910997   2.512   4.603   1.042 -0.4311  0.4976 -0.2732
   20MOL   O32010998   2.380   4.607   1.072 -0.3267 -0.0846  0.3314
   20MOL   C32110999   2.334   4.633   1.207  0.4786 -0.4240 -0.4705
   20MOL   C32211000   2.384   4.773   1.256  0.5302  0.1410 -0.2404
   20MOL   O32311001   2.599   4.597   1.128  0.2776 -0.0142 -0.8623
   20MOL   C32411002   2.420   4.542   0.819  1.0131 -0.1548 -0.3547
   20MOL   C32511003   2.421   4.543   0.680 -0.6045 -0.6083 -0.6227
   20MOL   C32611004   2.316   4.493   0.608  0.5589  0.0467 -0.3787
   20MOL   C32711005   2.305   4.485   0.469 -0.0150  0.5372  0.5890
   20MOL   H32811006   2.625   4.589   0.413  0.6796  0.4582  1.6489
   20MOL   H32911007   2.734   4.655   0.621 -2.1430  1.2372 -2.8233
   20MOL   H33011008   2.733   4.653   0.869  1.3534 -4.1756 -1.2234
   20MOL   H33111009   2.389   4.554   1.257 -0.6128 -1.7725 -1.3750
   20MOL   H33211010   2.231   4.615   1.238  1.0222  0.0069  1.6849
   20MOL   H33311011   2.389   4.772   1.365  2.9098 -3.0507 -0.2656
   20MOL   H33411012   2.477   4.812   1.214  0.2730  0.5116 -0.4629
   20MOL   H33511013   2.328   4.506   0.862 -0.0861  3.2567  0.2903
   20MOL   H33611014   2.233   4.454   0.665  2.2951  1.8056  3.5395
   20MOL   H33711015   2.212   4.451   0.425 -1.4102  1.4653  2.7515
   20MOL   O33811016   2.326   4.921   1.025 -0.5967 -0.3968 -0.1967
   20MOL   C33911017   2.273   4.946   1.136 -0.2509  0.2432 -0.3628
   20MOL   O34011018   2.285   4.870   1.243 -0.4350  0.1738 -0.1189
   20MOL   C34111019   2.211   5.079   1.165  0.3470 -0.3493  0.4100
   20MOL   C34211020   2.117   5.089   1.273  0.0294 -0.3572 -0.0521
   20MOL   C34311021   2.038   5.208   1.282  0.4099 -0.3330 -0.0389
   20MOL   C34411022   1.936   5.222   1.379 -0.1565  0.0779  0.9328
   20MOL   C34511023   1.868   5.341   1.388  0.4505 -0.4366  0.3758
   20MOL   C34611024   1.880   5.438   1.285 -1.1267 -0.6557 -0.3774
   20MOL   C34711025   1.801   5.565   1.281 -0.4896 -0.2249  0.3365
   20MOL   O34811026   1.703   5.576   1.382  0.4881 -0.2846  0.4595
   20MOL   C34911027   1.619   5.694   1.381 -1.0318  0.2882 -0.1826
   20MOL   C35011028   1.549   5.728   1.241  0.6309 -0.3562 -0.0270
   20MOL   O35111029   1.836   5.658   1.204 -0.4330  0.3605  1.0586
   20MOL   C35211030   1.968   5.419   1.181 -0.4323 -0.0302 -0.0073
   20MOL   C35311031   2.054   5.310   1.185 -0.5155  0.1372 -0.4532
   20MOL   C35411032   2.149   5.300   1.086 -0.4072 -0.2474  0.0192
   20MOL   C35511033   2.226   5.184   1.075 -0.0661  0.0063 -0.1402
   20MOL   H35611034   2.115   5.003   1.339  0.4479 -0.5265 -0.2585
   20MOL   H35711035   1.924   5.157   1.465 -0.5348 -0.6524  0.3322
   20MOL   H35811036   1.810   5.364   1.477  0.7606 -0.0845  0.4853
   20MOL   H35911037   1.689   5.773   1.408  2.4553 -2.2800 -1.3237
   20MOL   H36011038   1.544   5.692   1.460  0.4896 -3.4961  1.2653
   20MOL   H36111039   1.536   5.836   1.235 -0.6823 -0.2642  3.1839
   20MOL   H36211040   1.615   5.687   1.165  3.9589 -0.2454  2.7092
   20MOL   H36311041   1.987   5.496   1.108  0.1953 -0.4293 -0.2658
   20MOL   H36411042   2.164   5.381   1.016 -0.4614  0.8352  1.2462
   20MOL   H36511043   2.316   5.173   1.016  0.1681  1.1573  0.0010
   20MOL   O36611044   1.474   5.486   1.129  0.1454 -0.0056  0.0896
   20MOL   C36711045   1.389   5.555   1.190 -0.2639  0.0215 -0.5513
   20MOL   O36811046   1.419   5.671   1.250  0.6782 -0.0000  0.4119
   20MOL   C36911047   1.241   5.514   1.197  0.1596 -0.0852  0.5011
   20MOL   C37011048   1.148   5.594   1.263 -0.6238  0.0900 -0.3339
   20MOL   C37111049   1.009   5.565   1.257  0.4934  0.0403  0.2184
   20MOL   C37211050   0.913   5.653   1.319 -0.5996  1.2761 -0.0531
   20MOL   C37311051   0.779   5.608   1.326 -0.6822  0.1995  0.0797
   20MOL   C37411052   0.741   5.487   1.255  0.2395 -0.2192  0.3395
   20MOL   C37511053   0.602   5.432   1.264  0.6445 -0.5874  0.1586
   20MOL   O37611054   0.565   5.364   1.152 -0.0257 -0.3440  0.0211
   20MOL   C37711055   0.448   5.280   1.148 -0.1403  0.0343 -0.1815
   20MOL   C37811056   0.480   5.154   1.215 -0.3675 -0.2068  0.8673
   20MOL   O37911057   0.520   5.462   1.352  0.5950 -0.4478  0.5700
   20MOL   C38011058   0.839   5.409   1.187 -0.0532  0.2087 -0.4266
   20MOL   C38111059   0.971   5.444   1.188  0.2692  0.6792  0.0898
   20MOL   C38211060   1.064   5.360   1.123 -0.5126 -0.1833  0.5695
   20MOL   C38311061   1.200   5.397   1.127 -0.7847  0.3708  0.0580
   20MOL   H38411062   1.174   5.682   1.319 -3.2993 -0.8662  2.5825
   20MOL   H38511063   0.953   5.746   1.355  0.3513  1.2894 -1.1080
   20MOL   H38611064   0.709   5.667   1.383  0.1679 -0.2254  1.6265
   20MOL   H38711065   0.420   5.268   1.043  0.0208  1.0585 -0.3492
   20MOL   H38811066   0.372   5.325   1.212  1.2692  1.0818  0.7538
   20MOL   H38911067   0.535   5.177   1.306 -0.1678 -1.5632  1.1000
   20MOL   H39011068   0.388   5.098   1.233 -0.7248  0.2633  0.5340
   20MOL   H39111069   0.810   5.311   1.152  1.1283 -0.4033  0.2842
   20MOL   H39211070   1.046   5.266   1.073 -1.7442  0.6455 -0.5475
   20MOL   H39311071   1.271   5.337   1.071 -0.3255  1.1525 -0.2048
   20MOL   O39411072   0.493   4.885   1.166  0.4864  0.4127 -0.5639
   20MOL   C39511073   0.573   4.956   1.111  0.5368 -0.0348  0.3808
   20MOL   O39611074   0.580   5.094   1.130  0.6503  0.3249 -0.4249
   20MOL   C39711075   0.680   4.906   1.025 -0.8062  0.2564 -0.1848
   20MOL   C39811076   0.777   5.002   0.983  1.0855 -0.1844  0.2124
   20MOL   C39911077   0.880   4.954   0.905  0.2429 -0.7994  0.4875
   20MOL   C40011078   0.990   5.035   0.874  0.0265  0.0665  0.2604
   20MOL   C40111079   1.089   4.994   0.780  0.2120  0.0406  0.9136
   20MOL   C40211080   1.082   4.870   0.719  0.7499  0.6584 -0.1351
   20MOL   C40311081   1.179   4.824   0.616 -0.3107  0.3490  0.2789
   20MOL   O40411082   1.119   4.719   0.539  0.4662 -0.2541  0.9252
   20MOL   C40511083   1.183   4.692   0.415  0.4528  0.0555 -0.3823
   20MOL   C40611084   1.149   4.800   0.307 -0.2204  0.1630 -0.2623
   20MOL   O40711085   1.286   4.878   0.602 -0.2992 -0.8513  0.0051
   20MOL   C40811086   0.975   4.779   0.755 -0.0436 -0.7191  0.6185
   20MOL   C40911087   0.878   4.826   0.844 -0.2711  0.3682 -0.3850
   20MOL   C41011088   0.775   4.740   0.882 -0.1157 -0.3272 -0.6056
   20MOL   C41111089   0.677   4.778   0.972  0.2292  0.0499 -0.0563
   20MOL   H41211090   0.783   5.106   1.012 -0.1655 -0.2939  0.8907
   20MOL   H41311091   0.998   5.132   0.921 -0.8474 -0.2698  1.1344
   20MOL   H41411092   1.172   5.062   0.771  0.2978 -0.2304 -0.5477
   20MOL   H41511093   1.127   4.607   0.376  0.8250 -0.4356  0.1498
   20MOL   H41611094   1.289   4.666   0.427  0.6167  1.2261  0.7500
   20MOL   H41711095   1.139   4.737   0.219 -1.3149 -1.4277  0.9641
   20MOL   H41811096   1.055   4.854   0.316  1.4581  3.4425 -1.7230
   20MOL   H41911097   0.956   4.684   0.708 -1.9898  0.5017 -1.1131
   20MOL   H42011098   0.786   4.640   0.843  1.9204 -0.3499 -0.0249
   20MOL   H42111099   0.602   4.705   0.996  2.0328 -0.5722  4.1721
   20MOL   O42211100   1.166   5.069   0.367 -0.0043  0.1136 -0.4242
   20MOL   C42311101   1.268   5.016   0.324 -0.7362  0.0677  0.6249
   20MOL   O42411102   1.264   4.886   0.290  0.6052 -0.3674 -0.0622
   20MOL   C42511103   1.401   5.080   0.305 -0.1329 -0.5219 -0.0552
   20MOL   C42611104   1.432   5.197   0.371  0.2958 -0.6053 -0.2060
   20MOL   C42711105   1.561   5.251   0.362  0.7813  0.5286 -0.6043
   20MOL   C42811106   1.601   5.360   0.440  0.0256 -0.5191 -0.0396
   20MOL   C42911107   1.727   5.412   0.436 -0.2698  0.0982 -0.3642
   20MOL   C43011108   1.823   5.368   0.341  0.3309  0.1905 -0.3243
   20MOL   C43111109   1.954   5.445   0.321  0.3089  0.2285  0.1588
   20MOL   O43211110   1.996   5.441   0.190  0.0389  0.6435  0.1539
   20MOL   C43311111   2.118   5.509   0.148 -0.1939 -0.5420 -0.7297
   20MOL   C43411112   2.244   5.440   0.200 -0.3972 -0.1591 -0.8260
   20MOL   O43511113   2.013   5.513   0.411  0.9971  0.2927 -0.3534
   20MOL   C43611114   1.784   5.257   0.264  0.3927  1.2610  0.6638
   20MOL   C43711115   1.657   5.200   0.269  0.1957  0.0957 -1.0029
   20MOL   C43811116   1.619   5.088   0.197 -0.5349 -0.7255  0.7612
   20MOL   C43911117   1.493   5.030   0.211  0.1696  0.1100  0.3859
   20MOL   H44011118   1.371   5.236   0.450  1.3159  0.6170 -0.0061
   20MOL   H44111119   1.543   5.394   0.524  0.6313  0.2701  0.0661
   20MOL   H44211120   1.746   5.497   0.500  1.6876 -1.3717  1.1011
   20MOL   H44311121   2.116   5.607   0.196 -1.0235 -1.4574  1.1721
   20MOL   H44411122   2.124   5.528   0.041  3.3767  3.0243 -0.0263
   20MOL   H44511123   2.326   5.512   0.192  0.7065 -1.2250  0.7045
   20MOL   H44611124   2.236   5.437   0.308 -0.9832  0.7935 -0.8412
   20MOL   H44711125   1.846   5.216   0.186 -1.4384 -0.4065  0.0323
   20MOL   H44811126   1.689   5.046   0.127  0.6578 -0.4991  1.8121
   20MOL   H44911127   1.464   4.942   0.156  0.7392  0.1050  0.0921
   20MOL   O45011128   2.167   5.185   0.246  0.2446  0.3007  0.6389
   20MOL   C45111129   2.250   5.205   0.160  0.1189  0.3407  0.0533
   20MOL   O45211130   2.292   5.321   0.136  0.0482 -0.4096 -0.7128
   20MOL   C45311131   2.319   5.097   0.081  1.0666 -1.0606  0.5182
   20MOL   C45411132   2.398   5.123   8.212 -0.2552  0.4780  0.3831
   20MOL   C45511133   2.449   5.015   8.130 -0.2269 -0.6840  0.2675
   20MOL   C45611134   2.502   5.040   8.003 -0.2419  0.4632 -0.0391
   20MOL   C45711135   2.540   4.930   7.927  0.0887  0.9698  0.5480
   20MOL   C45811136   2.519   4.794   7.966  0.4003 -0.9011  0.0883
   20MOL   C45911137   2.565   4.684   7.884 -0.1171 -0.4194  0.6696
   20MOL   O46011138   2.519   4.558   7.924 -0.2085 -0.1459  0.2060
   20MOL   C46111139   2.552   4.441   7.847  0.0125 -0.1408 -0.3121
   20MOL   C46211140   2.550   4.324   7.941 -0.3614  0.7053 -0.0362
   20MOL   O46311141   2.618   4.700   7.771 -0.1448 -0.4198  0.0969
   20MOL   C46411142   2.459   4.774   8.093  0.0416  0.4320  0.4489
   20MOL   C46511143   2.423   4.881   8.174 -0.3730  0.0645  0.3544
   20MOL   C46611144   2.357   4.855   0.045 -0.0529 -0.2586 -0.0197
   20MOL   C46711145   2.302   4.963   0.123 -0.4343 -0.1559  0.1229
   20MOL   H46811146   2.406   5.222   8.169 -0.5000  0.4672  0.3096
   20MOL   H46911147   2.515   5.141   7.968 -1.2144 -0.2116 -2.5038
   20MOL   H47011148   2.586   4.947   7.831 -0.4719 -0.0006  0.0975
   20MOL   H47111149   2.657   4.447   7.816  0.5917 -0.6823  1.4921
   20MOL   H47211150   2.479   4.428   7.767  0.0353  3.9689 -1.1229
   20MOL   H47311151   2.639   4.265   7.922  0.7636  2.7343 -1.2852
   20MOL   H47411152   2.560   4.360   8.043 -1.0774  0.1016  0.2493
   20MOL   H47511153   2.445   4.674   8.131  0.3179  0.6289  1.0800
   20MOL   H47611154   2.337   4.759   0.088 -0.7343  1.4730  3.7325
   20MOL   H47711155   2.237   4.956   0.209 -2.1622 -2.3125 -1.3166
   20MOL   O47811156   2.534   4.046   7.929 -0.0015 -0.2657 -0.0464
   20MOL   C47911157   2.432   4.115   7.933  0.2961  0.3663 -0.7768
   20MOL   O48011158   2.429   4.245   7.918  0.4092 -0.8423 -0.3485
   20MOL   C48111159   2.305   4.048   7.964  0.1161 -0.3411 -0.3014
   20MOL   C48211160   2.299   3.912   7.989 -0.0996 -1.6854  0.8924
   20MOL   C48311161   2.177   3.849   8.028 -0.0206  0.0803  0.2237
   20MOL   C48411162   2.158   3.714   8.048 -0.2381  1.0792 -0.0342
   20MOL   C48511163   2.027   3.667   8.080  0.1226  0.5349 -0.0662
   20MOL   C48611164   1.914   3.748   8.089 -0.1879 -0.5516 -0.6036
   20MOL   C48711165   1.781   3.684   8.131  0.9939  0.0531  0.2157
   20MOL   O48811166   1.788   3.574   8.202  0.5434  0.9780  0.3268
   20MOL   C48911167   1.665   3.513   8.246  0.4973  0.9525  0.0234
   20MOL   C49011168   1.643   3.549   0.148 -0.1514 -0.2016  0.6172
   20MOL   O49111169   1.672   3.738   8.102 -0.1579  0.3174  0.0389
   20MOL   C49211170   1.937   3.890   8.077 -0.3579 -0.0231 -1.1858
   20MOL   C49311171   2.065   3.932   8.032 -0.0789 -0.0491  0.2683
   20MOL   C49411172   2.069   4.073   7.998 -0.1617 -0.6703 -0.1185
   20MOL   C49511173   2.189   4.131   7.962 -0.4195 -0.2596  0.8434
   20MOL   H49611174   2.391   3.856   7.977 -0.3406 -2.4031  2.3092
   20MOL   H49711175   2.243   3.653   8.022 -0.7355  0.1823  0.4269
   20MOL   H49811176   2.025   3.563   8.111 -0.0028  0.8875  1.1595
   20MOL   H49911177   1.684   3.405   8.246  0.3775  0.9325  0.1716
   20MOL   H50011178   1.577   3.534   8.186  1.2306 -0.0219 -1.4214
   20MOL   H50111179   1.573   3.477   0.189  1.9252 -2.2456  0.6566
   20MOL   H50211180   1.730   3.540   0.213  1.1043  0.7832 -0.8832
   20MOL   H50311181   1.853   3.953   8.102 -0.0277  0.2903 -0.8680
   20MOL   H50411182   1.980   4.135   8.004  0.2251  0.0438 -1.6315
   20MOL   H50511183   2.187   4.230   7.919 -0.7430  0.7934  3.1698
   20MOL   O50611184   1.668   3.707   0.374  0.0133 -0.4013 -0.4520
   20MOL   C50711185   1.611   3.750   0.275 -0.3892  0.3838  0.8864
   20MOL   O50811186   1.590   3.675   0.162 -0.0150  0.0607  0.4367
   20MOL   C50911187   1.557   3.890   0.263 -1.3992  0.2444 -0.1893
   20MOL   C51011188   1.562   3.951   0.136 -0.1470 -0.6608  1.2778
   20MOL   C51111189   1.512   4.083   0.126 -0.3804 -0.2802  0.1065
   20MOL   C51211190   1.515   4.150   0.001  0.2064 -0.2300  0.3614
   20MOL   C51311191   1.452   4.274   8.230  0.3764  0.0587 -0.3264
   20MOL   C51411192   1.410   4.353   0.095 -0.5377 -0.3059  0.8594
   20MOL   C51511193   1.353   4.492   0.094  0.6042  0.6409  0.2956
   20MOL   O51611194   1.354   4.548   8.229 -0.4675 -0.0274 -0.0797
   20MOL   C51711195   1.309   4.686   8.210 -0.2603  0.3642  0.5453
   20MOL   C51811196   1.317   4.712   8.057 -0.4265 -0.5326 -0.0070
   20MOL   O51911197   1.300   4.545   0.192  0.1379  0.5962 -0.1752
   20MOL   C52011198   1.422   4.286   0.223 -0.6309 -0.3347  0.6879
   20MOL   C52111199   1.471   4.154   0.241 -0.0825  0.6744  0.4638
   20MOL   C52211200   1.462   4.097   0.363 -0.7650 -0.3213 -0.1864
   20MOL   C52311201   1.508   3.965   0.376  0.1483 -0.5101  0.4162
   20MOL   H52411202   1.607   3.903   0.050  1.4929  0.5460  1.4447
   20MOL   H52511203   1.555   4.090   8.169  1.9105  0.9135  0.3215
   20MOL   H52611204   1.453   4.307   8.127  1.9726 -1.7192 -0.9113
   20MOL   H52711205   1.384   4.744   0.015 -1.4590  0.7926  1.7733
   20MOL   H52811206   1.208   4.705   8.246 -0.3479  1.6189 -0.3191
   20MOL   H52911207   1.304   4.820   8.053 -1.4751 -0.6811 -0.8252
   20MOL   H53011208   1.418   4.695   8.018 -0.1606 -0.5851  0.6930
   20MOL   H53111209   1.403   4.339   0.315 -1.7602 -2.1132  1.5086
   20MOL   H53211210   1.436   4.153   0.451 -0.2698  0.6560 -0.6624
   20MOL   H53311211   1.510   3.913   0.471  0.8116 -0.9344  0.1749
   20MOL   O53411212   1.345   4.469   7.930  0.5634 -0.3880 -0.1340
   20MOL   C53511213   1.234   4.529   7.924  0.1511 -0.2718 -0.3038
   20MOL   O53611214   1.211   4.644   7.987 -0.0013 -0.7432 -0.4318
   20MOL   C53711215   1.116   4.477   7.852 -0.1365  0.8983 -0.8067
   20MOL   C53811216   1.005   4.562   7.837  0.3309 -0.3381  0.4505
   20MOL   C53911217   0.885   4.505   7.789 -0.1550  1.0187  0.2463
   20MOL   C54011218   0.769   4.584   7.765  0.3898 -0.4420  0.2186
   20MOL   C54111219   0.642   4.521   7.733  0.2488  0.1289  0.0561
   20MOL   C54211220   0.637   4.382   7.719 -0.0195  0.2845 -0.0318
   20MOL   C54311221   0.511   4.310   7.674 -0.0380  0.0975  0.1603
   20MOL   O54411222   0.406   4.400   7.648 -0.1503 -0.0545 -0.1278
   20MOL   C54511223   0.283   4.361   7.589  0.1645 -0.6918 -0.6214
   20MOL   C54611224   0.173   4.464   7.636 -0.1299  0.1885 -0.0129
   20MOL   O54711225   0.492   4.192   7.675 -0.2329 -0.5865  0.1943
   20MOL   C54811226   0.756   4.302   7.733  0.0326  0.5093 -0.5914
   20MOL   C54911227   0.878   4.367   7.763  0.2697 -0.5611  0.3667
   20MOL   C55011228   0.994   4.287   7.764 -0.7529 -0.3426  0.3422
   20MOL   C55111229   1.116   4.340   7.802 -0.6949  0.0651 -0.5869
   20MOL   H55211230   0.994   4.658   7.885  1.6769  1.5713 -2.9063
   20MOL   H55311231   0.778   4.692   7.768  0.7841 -0.4900  3.6854
   20MOL   H55411232   0.557   4.586   7.723 -0.1423 -0.6042 -1.6104
   20MOL   H55511233   0.244   4.260   7.603  2.0165 -1.1390  1.7433
   20MOL   H55611234   0.298   4.378   7.482  0.2061  0.7325 -0.3989
   20MOL   H55711235   0.180   4.455   7.745 -2.4751  0.0952  0.1507
   20MOL   H55811236   0.077   4.419   7.611  0.5441 -1.6840  0.6392
   20MOL   H55911237   0.738   4.197   7.713  0.0552  0.4217 -0.1541
   20MOL   H56011238   0.985   4.180   7.753 -2.0936 -0.1641 -0.3419
   20MOL   H56111239   1.204   4.278   7.812 -1.1657 -0.5187 -0.0326
   20MOL   H56211240   0.178   4.566   7.600 -1.2011  0.0575 -0.5540
   21MOL     O111241   4.099   1.991   2.060 -1.0863  0.2064  0.3692
   21MOL     C211242   4.022   2.006   1.965 -0.2509 -0.2976  0.2860
   21MOL     O311243   4.009   1.926   1.861 -0.5188 -0.0896 -0.1903
   21MOL     C411244   3.915   2.108   1.975  0.3418  0.0731  0.2386
   21MOL     C511245   3.821   2.140   1.865  0.1857 -0.6757  0.1702
   21MOL     C611246   3.729   2.245   1.889 -0.4321 -0.3044 -0.7287
   21MOL     C711247   3.643   2.281   1.779 -0.0813  0.6483 -0.6051
   21MOL     C811248   3.553   2.391   1.802  0.2885  0.2558  0.7338
   21MOL     C911249   3.541   2.455   1.925  0.1029  0.5205  0.4910
   21MOL    C1011250   3.450   2.573   1.944  0.3103 -0.4769 -0.6229
   21MOL    O1111251   3.403   2.623   1.825  0.6787 -0.8610  0.5817
   21MOL    C1211252   3.308   2.727   1.822 -0.4087  0.5806  0.3449
   21MOL    C1311253   3.346   2.855   1.896 -0.4186  0.0605  0.4694
   21MOL    O1411254   3.422   2.620   2.051  0.2412  0.6313  0.9833
   21MOL    C1511255   3.618   2.404   2.035  0.1183  0.7278  0.4399
   21MOL    C1611256   3.716   2.310   2.017  0.8599  0.6876 -0.0983
   21MOL    C1711257   3.812   2.286   2.117 -0.7686  0.2584 -0.1885
   21MOL    C1811258   3.908   2.181   2.092 -0.2078 -0.1733  0.4329
   21MOL    H1911259   3.829   2.103   1.764 -1.2800  1.7608 -0.8634
   21MOL    H2011260   3.654   2.238   1.680  3.7318 -0.0630  0.0464
   21MOL    H2111261   3.470   2.409   1.736  0.0843  0.7000  1.1030
   21MOL    H2211262   3.271   2.748   1.722 -0.2023 -0.0985  0.1198
   21MOL    H2311263   3.223   2.673   1.863 -0.8460 -1.1195 -2.6158
   21MOL    H2411264   3.264   2.895   1.956  2.1804  4.7643  1.1229
   21MOL    H2511265   3.424   2.831   1.967 -0.3719 -0.9859  0.0683
   21MOL    H2611266   3.607   2.454   2.129  0.7218  2.1994 -0.2607
   21MOL    H2711267   3.803   2.329   2.215  1.1125  2.2709 -0.8482
   21MOL    H2811268   3.991   2.167   2.159 -1.2749  1.1362  2.0905
   21MOL    H2911269   4.076   1.860   1.867  0.7575  1.3228  1.3373
   21MOL    O3011270   3.598   2.867   1.779  0.3397 -0.5270 -0.3870
   21MOL    C3111271   3.515   2.957   1.750 -0.4537  0.1886  0.2083
   21MOL    O3211272   3.388   2.957   1.803  0.4902  0.0108  0.6186
   21MOL    C3311273   3.548   3.068   1.650 -0.3911  0.6859  0.4394
   21MOL    C3411274   3.668   3.054   1.576 -0.2020 -0.4167 -0.1465
   21MOL    C3511275   3.692   3.135   1.462 -0.2828  0.4674  0.0105
   21MOL    C3611276   3.812   3.132   1.388 -0.0928 -0.0490  0.2258
   21MOL    C3711277   3.834   3.220   1.286  1.4194 -0.1200 -0.4944
   21MOL    C3811278   3.734   3.309   1.240 -0.0486  1.1504  0.2595
   21MOL    C3911279   3.754   3.388   1.120 -0.2721 -0.3185  0.4343
   21MOL    O4011280   3.639   3.446   1.068 -0.5581 -0.3106  0.5241
   21MOL    C4111281   3.645   3.552   0.977 -0.0332  0.1606 -0.1443
   21MOL    C4211282   3.506   3.626   0.970  0.0736  0.9685 -0.4086
   21MOL    O4311283   3.865   3.426   1.075 -0.1719 -0.0310 -0.4884
   21MOL    C4411284   3.611   3.310   1.307 -0.2479  0.0653 -0.2506
   21MOL    C4511285   3.590   3.223   1.421 -0.0394 -0.3923 -1.3465
   21MOL    C4611286   3.467   3.231   1.490  0.1331 -0.3716 -0.8931
   21MOL    C4711287   3.451   3.161   1.611  0.7288  0.5947  0.1544
   21MOL    H4811288   3.738   2.977   1.604 -1.1241 -1.2901 -0.2010
   21MOL    H4911289   3.899   3.079   1.423 -1.0255 -0.7657  1.5298
   21MOL    H5011290   3.932   3.228   1.241  1.0066 -0.6216 -1.4801
   21MOL    H5111291   3.672   3.532   0.873 -2.3148  0.7589 -0.8914
   21MOL    H5211292   3.720   3.624   1.008 -0.5866  1.2120 -1.1864
   21MOL    H5311293   3.432   3.571   0.912 -0.4192  1.3267 -0.1219
   21MOL    H5411294   3.462   3.626   1.069  0.7386  2.0670 -0.0987
   21MOL    H5511295   3.527   3.375   1.288 -1.3841 -1.2219  0.2089
   21MOL    H5611296   3.394   3.308   1.467  1.0345  0.0328 -2.4766
   21MOL    H5711297   3.360   3.177   1.666  0.3953 -0.7674  0.0143
   21MOL    O5811298   3.526   3.688   0.699 -0.3200 -0.1074  0.4142
   21MOL    C5911299   3.526   3.778   0.786 -0.6106  0.3749 -0.2710
   21MOL    O6011300   3.521   3.765   0.921 -0.2751 -0.5348  0.4838
   21MOL    C6111301   3.532   3.924   0.748 -0.5112  1.6086 -0.1839
   21MOL    C6211302   3.513   4.030   0.845 -0.1373 -0.5817  0.1779
   21MOL    C6311303   3.542   4.164   0.813 -0.5797  0.0278 -0.1720
   21MOL    C6411304   3.530   4.271   0.908 -0.3608  0.2793 -0.5903
   21MOL    C6511305   3.568   4.404   0.867  0.2088  0.4756 -0.2431
   21MOL    C6611306   3.618   4.432   0.738 -0.0735  0.5161 -0.9213
   21MOL    C6711307   3.644   4.573   0.695 -0.0424  0.0730 -0.0329
   21MOL    O6811308   3.674   4.588   0.572 -0.0653 -0.9879  0.0703
   21MOL    C6911309   3.689   4.709   0.514 -0.1442 -0.4701 -0.1914
   21MOL    C7011310   3.737   4.695   0.372 -0.5403 -0.0366 -0.9730
   21MOL    O7111311   3.642   4.665   0.776 -0.0823  0.1433  0.0605
   21MOL    C7211312   3.618   4.324   0.644  0.0317 -0.0220 -0.1835
   21MOL    C7311313   3.581   4.194   0.682  0.4827  0.2809 -0.4383
   21MOL    C7411314   3.588   4.095   0.583  0.0255  0.4510  0.5593
   21MOL    C7511315   3.554   3.962   0.612  0.4826 -0.0314  0.2353
   21MOL    H7611316   3.489   4.009   0.949 -4.1455 -0.5204 -0.6417
   21MOL    H7711317   3.507   4.250   1.011  1.6924 -0.0837 -0.1795
   21MOL    H7811318   3.563   4.487   0.937  0.6272  1.4205 -1.3241
   21MOL    H7911319   3.748   4.772   0.580 -0.0133 -1.0949  0.2899
   21MOL    H8011320   3.590   4.755   0.506 -0.1891 -0.6067 -0.4375
   21MOL    H8111321   3.668   4.633   0.315  1.5022 -0.0344 -3.5458
   21MOL    H8211322   3.737   4.793   0.324  1.2988  0.0484 -0.8276
   21MOL    H8311323   3.637   4.341   0.539 -0.0976 -2.1255 -0.5661
   21MOL    H8411324   3.626   4.116   0.483 -1.2736  1.0269  0.1802
   21MOL    H8511325   3.565   3.896   0.527 -1.3034  2.4879 -2.0473
   21MOL    O8611326   3.811   4.427   0.294 -0.1134  0.0203  0.1572
   21MOL    C8711327   3.886   4.512   0.337  0.0964  0.6942 -0.4540
   21MOL    O8811328   3.863   4.636   0.372  0.0797 -0.2145  0.0518
   21MOL    C8911329   4.036   4.495   0.353 -0.3435 -0.1999  0.4413
   21MOL    C9011330   4.129   4.595   0.320 -0.2705  0.1106 -0.2424
   21MOL    C9111331   4.266   4.581   0.346  0.6722  0.3176 -0.8219
   21MOL    C9211332   4.360   4.677   0.308  0.0964  0.3516  0.4166
   21MOL    C9311333   4.495   4.655   0.346  0.3626 -0.1004  1.0153
   21MOL    C9411334   4.537   4.532   0.395 -0.9048  0.0928 -1.0576
   21MOL    C9511335   4.684   4.507   0.419  0.4180 -0.1172  0.1486
   21MOL    O9611336   4.708   4.382   0.433  0.1006  0.4184  0.6003
   21MOL    C9711337   4.843   4.340   0.471  0.3031  0.5422  0.2612
   21MOL    C9811338   4.882   4.338   0.622  0.2391  0.2825 -0.1345
   21MOL    O9911339   4.767   4.596   0.421 -0.0472 -0.2261 -0.2079
   21MOL   C10011340   4.445   4.431   0.424  0.0420 -0.2210 -0.3434
   21MOL   C10111341   4.312   4.457   0.401 -1.0400  0.2677 -0.0312
   21MOL   C10211342   4.218   4.351   0.433  0.6845 -0.0499  0.4702
   21MOL   C10311343   4.085   4.372   0.404 -0.5723  0.0078 -0.2936
   21MOL   H10411344   4.089   4.689   0.284  2.0796  1.8025  1.4073
   21MOL   H10511345   4.341   4.774   0.264 -0.0014  1.1489  2.1735
   21MOL   H10611346   4.571   4.723   0.311  0.4173 -0.2745  0.7888
   21MOL   H10711347   4.916   4.392   0.408 -1.1871  2.9271  0.4190
   21MOL   H10811348   4.843   4.235   0.443 -2.5302  0.6374 -0.2082
   21MOL   H10911349   4.788   4.307   0.669  0.3381  0.9424  0.5170
   21MOL   H11011350   4.964   4.270   0.643  1.6523  2.4892  1.8920
   21MOL   H11111351   4.468   4.330   0.456  0.2215 -0.3421 -0.8373
   21MOL   H11211352   4.241   4.252   0.469 -1.9700 -0.6961  0.4866
   21MOL   H11311353   4.013   4.294   0.420 -0.5539  0.5338  2.4872
   21MOL   O11411354   5.122   4.455   0.595 -0.7092 -0.4480 -0.5193
   21MOL   C11511355   5.034   4.520   0.652  0.2796 -0.4194  0.6693
   21MOL   O11611356   4.913   4.469   0.664  0.5396 -0.4509  0.8240
   21MOL   C11711357   5.044   4.653   0.706  0.6041 -0.2581  0.5260
   21MOL   C11811358   5.173   4.704   0.725  0.3768  0.2591 -0.7092
   21MOL   C11911359   5.179   4.836   0.765  0.6400 -0.5912  0.4314
   21MOL   C12011360   5.312   4.886   0.780  0.1205  0.0240  0.4968
   21MOL   C12111361   5.330   5.019   0.830 -0.4647 -0.1398 -0.1244
   21MOL   C12211362   5.218   5.098   0.869 -0.5783 -0.0182 -0.0305
   21MOL   C12311363   5.233   5.238   0.921 -0.9586 -0.3161  0.7299
   21MOL   O12411364   5.127   5.284   0.992  0.4584 -0.0837  0.0777
   21MOL   C12511365   5.143   5.380   1.079  0.1895  0.6900 -0.5918
   21MOL   C12611366   5.169   5.307   1.218  0.0558 -0.4576  0.0769
   21MOL   O12711367   5.333   5.306   0.901  0.0058 -0.4752  0.4009
   21MOL   C12811368   5.088   5.042   0.862  0.3093  0.0781 -0.0644
   21MOL   C12911369   5.064   4.911   0.809  0.4185 -0.5448  0.5577
   21MOL   C13011370   4.934   4.853   0.801 -0.1242  0.0897  0.5223
   21MOL   C13111371   4.929   4.725   0.741  0.5586  0.1652  0.4198
   21MOL   H13211372   5.260   4.646   0.698  0.5000  0.0768  0.0930
   21MOL   H13311373   5.399   4.824   0.761 -0.3108  0.1395 -2.0141
   21MOL   H13411374   5.427   5.065   0.842 -0.3787 -0.7350  1.5414
   21MOL   H13511375   5.048   5.433   1.082  0.2084  0.6403  1.3625
   21MOL   H13611376   5.219   5.456   1.058  1.1314  0.0337  0.4274
   21MOL   H13711377   5.160   5.382   1.296  0.4618 -0.7430  0.3988
   21MOL   H13811378   5.085   5.237   1.219 -0.0834 -0.3494 -1.6363
   21MOL   H13911379   5.007   5.100   0.904  2.2615  2.2910  0.7522
   21MOL   H14011380   4.844   4.908   0.823  0.3581  0.7883  0.7808
   21MOL   H14111381   4.828   4.686   0.737  0.3955  0.6362 -0.2003
   21MOL   O14211382   5.353   5.322   1.431 -0.0918  0.5115 -0.4606
   21MOL   C14311383   5.387   5.282   1.320  0.6162 -0.4928  0.0131
   21MOL   O14411384   5.303   5.247   1.223 -0.0502 -0.5093 -0.0988
   21MOL   C14511385   5.527   5.254   1.267 -0.1950  0.1998  0.5330
   21MOL   C14611386   5.637   5.288   1.348 -0.5642 -0.8119  0.6542
   21MOL   C14711387   5.774   5.273   1.306 -0.1545 -0.1127 -0.3756
   21MOL   C14811388   5.887   5.311   1.382 -0.4674 -0.1937  0.2817
   21MOL   C14911389   6.016   5.310   1.337 -0.7082 -0.4148 -0.1571
   21MOL   C15011390   6.045   5.247   1.216 -0.8575  0.2031 -0.1215
   21MOL   C15111391   6.185   5.228   1.164 -0.5602  0.1555  0.3386
   21MOL   O15211392   6.191   5.159   1.049 -0.8417  0.1412  0.3023
   21MOL   C15311393   6.312   5.121   0.997  1.0156 -0.0654 -0.0905
   21MOL   C15411394   6.370   5.001   1.073 -0.5689 -0.4278  0.7818
   21MOL   O15511395   6.280   5.271   1.224 -0.4494  0.7973  0.3809
   21MOL   C15611396   5.932   5.197   1.137 -0.1182  0.1802  0.5872
   21MOL   C15711397   5.797   5.214   1.181 -0.3689 -0.1130  0.7451
   21MOL   C15811398   5.689   5.177   1.096 -0.5313 -0.9438 -0.0590
   21MOL   C15911399   5.557   5.193   1.142 -0.6409  0.7406  0.1621
   21MOL   H16011400   5.619   5.347   1.437  0.7042  0.8273 -0.1395
   21MOL   H16111401   5.876   5.343   1.484  1.2044  0.4115  0.2820
   21MOL   H16211402   6.091   5.352   1.402 -0.0241 -0.7209 -0.7384
   21MOL   H16311403   6.385   5.202   1.005  0.1856  0.4930  1.9455
   21MOL   H16411404   6.308   5.103   0.889 -0.1880  1.3085 -0.2795
   21MOL   H16511405   6.463   4.973   1.024  1.1859  1.4542  2.9377
   21MOL   H16611406   6.400   5.029   1.174 -2.6933 -1.1996  1.6680
   21MOL   H16711407   5.948   5.147   1.043  0.4313  0.9493  0.2579
   21MOL   H16811408   5.706   5.128   1.001  1.3201 -0.1548 -0.1539
   21MOL   H16911409   5.474   5.175   1.075 -0.2373  0.5189 -0.2823
   21MOL   O17011410   6.331   4.804   1.260  0.5790  0.6978  0.1197
   21MOL   C17111411   6.270   4.798   1.154  0.8002  0.6335 -0.2043
   21MOL   O17211412   6.288   4.885   1.056 -0.3928 -0.4636  0.3059
   21MOL   C17311413   6.170   4.693   1.125  0.2100 -0.5093  0.4639
   21MOL   C17411414   6.126   4.604   1.221 -0.1557 -0.0173 -0.1219
   21MOL   C17511415   6.036   4.503   1.190 -0.2128  0.6444 -0.7123
   21MOL   C17611416   6.014   4.397   1.288  0.0335 -0.0012  0.4981
   21MOL   C17711417   5.936   4.289   1.245 -0.0865 -0.7605 -0.1957
   21MOL   C17811418   5.864   4.296   1.125  0.3920  0.6539  0.4741
   21MOL   C17911419   5.769   4.181   1.087 -1.0337 -0.4152  0.2444
   21MOL   O18011420   5.701   4.200   0.967 -0.4079  0.5911  0.1200
   21MOL   C18111421   5.620   4.100   0.911 -0.1323  0.4100 -0.1829
   21MOL   C18211422   5.535   4.155   0.792  0.1977 -0.3638 -0.0329
   21MOL   O18311423   5.747   4.078   1.149 -0.4421 -0.2310 -0.0755
   21MOL   C18411424   5.888   4.397   1.032 -0.8438 -0.1060 -0.0581
   21MOL   C18511425   5.979   4.496   1.062  0.7559  0.4350  1.1017
   21MOL   C18611426   6.010   4.601   0.971  0.8938  0.2284  0.5608
   21MOL   C18711427   6.106   4.696   1.001  0.0829 -0.2192  0.4525
   21MOL   H18811428   6.164   4.615   1.322  1.5876  0.7660 -0.8532
   21MOL   H18911429   6.066   4.395   1.383 -1.4873  0.3981  1.3662
   21MOL   H19011430   5.919   4.201   1.305  0.0326 -1.8979 -1.8046
   21MOL   H19111431   5.569   4.058   0.997  1.4712 -0.8915  0.1387
   21MOL   H19211432   5.688   4.026   0.870 -0.5081  1.1113 -2.1463
   21MOL   H19311433   5.583   4.237   0.738  0.1247  0.0989  0.5856
   21MOL   H19411434   5.511   4.083   0.715 -0.8628  1.8787 -1.8654
   21MOL   H19511435   5.841   4.407   0.935 -1.4480 -1.5121  0.0745
   21MOL   H19611436   5.943   4.597   0.886  0.0257 -2.0972  1.3039
   21MOL   H19711437   6.111   4.773   0.925 -0.8125 -1.1100 -0.5344
   21MOL   O19811438   5.296   4.019   0.804  0.5164 -0.5085 -0.2136
   21MOL   C19911439   5.303   4.138   0.839  0.1833 -0.7089  0.1777
   21MOL   O20011440   5.413   4.211   0.839 -0.2596  0.5017  0.0567
   21MOL   C20111441   5.180   4.217   0.878  0.0769 -0.1399 -0.5294
   21MOL   C20211442   5.193   4.341   0.948  0.5156 -0.2029  0.1637
   21MOL   C20311443   5.084   4.416   0.998 -0.2803 -0.1705  0.7594
   21MOL   C20411444   5.089   4.550   1.046 -0.1454  0.2415  0.0615
   21MOL   C20511445   4.971   4.613   1.086  0.7305 -0.5647 -0.5819
   21MOL   C20611446   4.840   4.551   1.065  1.1789  0.1448 -0.4118
   21MOL   C20711447   4.712   4.626   1.083 -0.8842  0.5642  0.3884
   21MOL   O20811448   4.604   4.577   1.003 -0.2570 -0.6602  0.2037
   21MOL   C20911449   4.480   4.644   1.021 -0.0971  0.5317 -0.3038
   21MOL   C21011450   4.400   4.620   0.893 -0.3536  0.1508  0.6030
   21MOL   O21111451   4.706   4.722   1.161 -0.1774  0.7988  0.6251
   21MOL   C21211452   4.838   4.417   1.018  0.4636  0.8039  0.2293
   21MOL   C21311453   4.955   4.364   0.971 -0.3257 -0.6158  0.2630
   21MOL   C21411454   4.941   4.236   0.911  0.4684  0.0620  0.0388
   21MOL   C21511455   5.051   4.167   0.864  0.1529 -0.4758  0.2806
   21MOL   H21611456   5.292   4.383   0.957  0.4651 -0.6072  2.9997
   21MOL   H21711457   5.182   4.603   1.057 -0.2214  0.5225 -0.6210
   21MOL   H21811458   4.970   4.710   1.133 -1.7667 -0.3353 -1.0395
   21MOL   H21911459   4.489   4.751   1.042  0.9549  0.5766 -0.9528
   21MOL   H22011460   4.424   4.606   1.107 -0.3869  0.4679 -0.5189
   21MOL   H22111461   4.301   4.666   0.897 -0.0229  0.7852  1.5689
   21MOL   H22211462   4.447   4.677   0.813 -1.7963 -0.5138 -0.7526
   21MOL   H22311463   4.746   4.365   0.998  2.0872 -1.6665 -1.0226
   21MOL   H22411464   4.846   4.190   0.889  0.1260  0.8545 -0.1670
   21MOL   H22511465   5.033   4.076   0.808  2.9815 -1.5394  1.0010
   21MOL   O22611466   4.259   4.410   0.998 -0.5700 -0.1329 -0.7545
   21MOL   C22711467   4.326   4.395   0.895  0.1813  0.9632 -0.8194
   21MOL   O22811468   4.404   4.489   0.845 -0.2366  0.4065 -0.2310
   21MOL   C22911469   4.349   4.266   0.837  0.0613  0.1185 -0.5396
   21MOL   C23011470   4.282   4.153   0.876  0.1036  0.7080  0.6981
   21MOL   C23111471   4.318   4.023   0.833  1.0377  0.8863 -0.2099
   21MOL   C23211472   4.252   3.916   0.885 -0.0682  0.4251 -0.7712
   21MOL   C23311473   4.267   3.789   0.832  0.2573 -0.1238 -0.7886
   21MOL   C23411474   4.355   3.776   0.723  0.6802  0.7725  1.1385
   21MOL   C23511475   4.360   3.649   0.648 -0.4360 -0.1072  0.4987
   21MOL   O23611476   4.470   3.629   0.571 -0.3201 -0.3390 -0.2312
   21MOL   C23711477   4.471   3.536   0.468 -0.3227 -0.2837  0.0803
   21MOL   C23811478   4.370   3.583   0.353  0.1784  0.1242 -0.2262
   21MOL   O23911479   4.263   3.571   0.653 -0.5178  0.0960  0.3000
   21MOL   C24011480   4.434   3.885   0.675 -0.1883 -0.6183 -0.0656
   21MOL   C24111481   4.411   4.009   0.729  0.2842 -0.0753 -0.5617
   21MOL   C24211482   4.464   4.124   0.675 -0.5911 -0.6423 -0.7954
   21MOL   C24311483   4.446   4.250   0.736 -0.4431  0.0899  0.7326
   21MOL   H24411484   4.219   4.159   0.964  0.2761 -3.8106  1.2289
   21MOL   H24511485   4.186   3.933   0.969 -0.8638  2.8298 -1.8489
   21MOL   H24611486   4.212   3.706   0.874  3.4558 -1.9463 -0.0408
   21MOL   H24711487   4.431   3.443   0.509 -1.2859  0.9025  1.8683
   21MOL   H24811488   4.575   3.521   0.438 -0.3428  0.6951 -0.5104
   21MOL   H24911489   4.373   3.505   0.277  1.4870 -0.3468  0.2899
   21MOL   H25011490   4.268   3.584   0.391  0.1996 -0.2147 -0.1630
   21MOL   H25111491   4.506   3.863   0.598 -1.5554 -2.7889 -0.7602
   21MOL   H25211492   4.541   4.116   0.600 -0.4639 -2.6885 -0.4766
   21MOL   H25311493   4.506   4.332   0.701  3.0246 -1.6518  2.3403
   21MOL   O25411494   4.233   3.824   0.348 -0.5102  0.3908 -0.3009
   21MOL   C25511495   4.349   3.819   0.319  0.4237 -0.1659  0.7908
   21MOL   O25611496   4.417   3.709   0.302  0.0891  0.0271 -0.0949
   21MOL   C25711497   4.429   3.939   0.285 -0.7493 -0.3652  0.1161
   21MOL   C25811498   4.574   3.928   0.293 -0.0230  0.7208 -0.4437
   21MOL   C25911499   4.652   4.031   0.240  0.6925 -1.0229 -0.4695
   21MOL   C26011500   4.788   4.016   0.216  0.6111  0.0291 -0.6003
   21MOL   C26111501   4.867   4.119   0.170  0.1610  0.0288  0.2560
   21MOL   C26211502   4.808   4.246   0.138  0.5293  0.0632 -0.6500
   21MOL   C26311503   4.899   4.361   0.112  0.2149 -0.0904 -0.0409
   21MOL   O26411504   4.824   4.474   0.092  0.1445 -0.0868 -0.7007
   21MOL   C26511505   4.894   4.598   0.076 -0.8791 -0.5350 -0.4990
   21MOL   C26611506   4.802   4.723   0.102 -0.4257  0.6419  0.6316
   21MOL   O26711507   5.020   4.357   0.124  0.3570 -0.4946 -0.4103
   21MOL   C26811508   4.668   4.253   0.144  0.2176  0.2851 -0.3259
   21MOL   C26911509   4.583   4.148   0.199  0.8310 -0.3800 -0.4364
   21MOL   C27011510   4.444   4.160   0.199  0.1920  0.3871 -0.0831
   21MOL   C27111511   4.360   4.050   0.229 -0.3324  0.4109  0.1896
   21MOL   H27211512   4.611   3.834   0.330  2.5485  1.2194 -1.6487
   21MOL   H27311513   4.833   3.923   0.244  0.7410  0.9101  2.2287
   21MOL   H27411514   4.975   4.105   0.170  0.4468  2.0778  0.8827
   21MOL   H27511515   4.940   4.590   8.226  1.0724 -1.2348  0.4379
   21MOL   H27611516   4.975   4.620   0.146 -0.0950 -0.4530 -1.4191
   21MOL   H27711517   4.710   4.714   0.043  0.0674  1.4322 -0.2821
   21MOL   H27811518   4.788   4.726   0.210  0.0396  0.9115  0.6868
   21MOL   H27911519   4.628   4.351   0.125 -0.2596  0.3428  0.9162
   21MOL   H28011520   4.399   4.253   0.169  2.4677  1.2653 -0.9174
   21MOL   H28111521   4.253   4.055   0.233 -0.3535 -0.6292  1.8889
   21MOL   O28211522   4.935   4.914   0.266 -0.7667 -0.4672  0.0659
   21MOL   C28311523   4.934   4.918   0.146  0.3137  0.3792  0.2641
   21MOL   O28411524   4.869   4.841   0.058  0.0166 -0.8771 -0.0468
   21MOL   C28511525   5.015   5.019   0.069  0.2844  0.3573 -0.4958
   21MOL   C28611526   5.088   5.124   0.131  0.4113  0.0053  0.2021
   21MOL   C28711527   5.174   5.210   0.054  0.5472 -0.4241 -0.3972
   21MOL   C28811528   5.247   5.312   0.122  0.2472 -0.2987  0.5593
   21MOL   C28911529   5.344   5.383   0.051  0.2571  0.1822 -0.3505
   21MOL   C29011530   5.360   5.366   8.161 -0.1656  0.3768  0.2176
   21MOL   C29111531   5.460   5.447   8.086 -0.7625 -0.1857  0.0527
   21MOL   O29211532   5.450   5.428   7.950 -0.0368  0.2314 -0.2035
   21MOL   C29311533   5.502   5.530   7.864  0.1684  0.2679 -0.1940
   21MOL   C29411534   5.472   5.496   7.717  0.0859 -0.6965  0.2206
   21MOL   O29511535   5.536   5.528   8.137 -0.0538 -0.1915  0.0480
   21MOL   C29611536   5.282   5.263   8.097 -0.8475  0.1654 -0.7781
   21MOL   C29711537   5.194   5.187   8.168 -0.0467 -0.3228  0.5929
   21MOL   C29811538   5.121   5.079   8.102 -0.1356 -0.2199 -0.1538
   21MOL   C29911539   5.039   4.995   8.175 -0.2041  0.0029 -0.2448
   21MOL   H30011540   5.069   5.148   0.235  0.5028  0.7749  0.0427
   21MOL   H30111541   5.237   5.328   0.229  0.7805 -0.1081  0.5828
   21MOL   H30211542   5.399   5.467   0.090 -0.6772 -0.0511  1.5293
   21MOL   H30311543   5.608   5.508   7.874  0.6077  1.5987 -1.6597
   21MOL   H30411544   5.481   5.629   7.903  0.2485  0.9267 -1.7568
   21MOL   H30511545   5.529   5.565   7.655  0.9083 -2.1982 -0.7355
   21MOL   H30611546   5.507   5.394   7.698  3.0034  1.1338 -4.9898
   21MOL   H30711547   5.318   5.232   8.000 -0.0272 -4.0895  0.8044
   21MOL   H30811548   5.131   5.051   7.998  0.1289 -0.4451 -0.0659
   21MOL   H30911549   5.005   4.907   8.122 -0.1997 -0.6572  0.8327
   21MOL   O31011550   5.286   5.296   7.762  0.1785 -0.3147  0.4316
   21MOL   C31111551   5.255   5.400   7.705  0.6776 -0.3196  0.5273
   21MOL   O31211552   5.338   5.505   7.677  0.1225 -0.1438 -0.1945
   21MOL   C31311553   5.126   5.412   7.635 -0.5818  0.1392  0.5041
   21MOL   C31411554   5.036   5.303   7.624 -0.3568 -0.3826 -0.1535
   21MOL   C31511555   4.924   5.308   7.544  0.4676 -0.3125  0.1019
   21MOL   C31611556   4.846   5.191   7.523 -0.1276  0.0462 -0.1515
   21MOL   C31711557   4.752   5.195   7.421 -0.5931 -0.8226  0.2600
   21MOL   C31811558   4.714   5.315   7.360  0.0087 -0.8325  0.1911
   21MOL   C31911559   4.615   5.319   7.255  0.9096 -0.1398 -0.5369
   21MOL   O32011560   4.510   5.236   7.283 -0.4501 -0.5307  0.5361
   21MOL   C32111561   4.398   5.235   7.195 -0.3689 -0.1641 -0.5526
   21MOL   C32211562   4.387   5.117   7.107 -0.2463 -0.4218 -0.3435
   21MOL   O32311563   4.615   5.390   7.157 -0.1151 -0.4959  0.1384
   21MOL   C32411564   4.779   5.435   7.386 -0.0103  0.3539  0.1275
   21MOL   C32511565   4.895   5.433   7.474 -0.2631  0.5657  1.0494
   21MOL   C32611566   4.972   5.549   7.498  0.0587 -0.1899 -0.1891
   21MOL   C32711567   5.088   5.532   7.578 -0.7044  0.0524 -0.6488
   21MOL   H32811568   5.054   5.206   7.668 -0.5402  0.1059  1.0287
   21MOL   H32911569   4.874   5.100   7.574 -0.1385  1.0884  1.7425
   21MOL   H33011570   4.699   5.104   7.398  1.1528 -1.4604 -1.3509
   21MOL   H33111571   4.373   5.332   7.152  0.3356 -0.0405 -0.6867
   21MOL   H33211572   4.314   5.219   7.263  0.1219  1.2485  0.4023
   21MOL   H33311573   4.435   5.031   7.154  0.2541 -0.5957 -1.1783
   21MOL   H33411574   4.284   5.085   7.087 -0.8678  2.3261 -1.8132
   21MOL   H33511575   4.743   5.520   7.329 -1.8851 -0.3519  0.2121
   21MOL   H33611576   4.945   5.639   7.444 -2.1600  0.0928  1.3106
   21MOL   H33711577   5.147   5.622   7.595 -0.5277  0.1677 -1.8342
   21MOL   O33811578   4.427   4.949   6.894  0.2417  0.0751  0.3309
   21MOL   C33911579   4.459   5.069   6.884  0.2591 -0.3713  0.3075
   21MOL   O34011580   4.441   5.159   6.981  0.2399 -0.4530 -0.2967
   21MOL   C34111581   4.509   5.125   6.752  0.0943 -0.4443  0.1907
   21MOL   C34211582   4.449   5.085   6.635 -0.3698  0.4615  0.0488
   21MOL   C34311583   4.500   5.140   6.517  0.7275  0.1973  0.4282
   21MOL   C34411584   4.436   5.111   6.395 -0.6851  0.4334  0.5893
   21MOL   C34511585   4.499   5.163   6.274  1.1390 -0.2873 -0.5242
   21MOL   C34611586   4.606   5.253   6.273 -0.0271 -0.0150 -0.1103
   21MOL   C34711587   4.661   5.295   6.145 -0.3393  0.5429  0.4144
   21MOL   O34811588   4.784   5.349   6.142  1.1192  0.4272 -0.0312
   21MOL   C34911589   4.839   5.381   6.020 -0.4806 -1.2136  0.2092
   21MOL   C35011590   4.790   5.518   5.967  0.2901  0.1588  0.0626
   21MOL   O35111591   4.596   5.275   6.040  0.1594  0.3620  0.4575
   21MOL   C35211592   4.658   5.290   6.399 -0.7643  0.3494  0.5651
   21MOL   C35311593   4.610   5.232   6.522  0.8563 -0.5607 -0.8232
   21MOL   C35411594   4.677   5.256   6.644  0.3035  0.2544 -1.1155
   21MOL   C35511595   4.626   5.204   6.759  0.0403 -0.1985 -0.0907
   21MOL   H35611596   4.358   5.027   6.635 -0.4343  0.5555 -1.4128
   21MOL   H35711597   4.355   5.039   6.391 -1.2847  1.1867 -1.3349
   21MOL   H35811598   4.456   5.134   6.179  3.3276 -0.8882 -1.3576
   21MOL   H35911599   4.834   5.305   5.942  2.1686 -2.0281  0.7948
   21MOL   H36011600   4.948   5.375   6.022 -0.5577 -2.4204  1.3857
   21MOL   H36111601   4.684   5.515   5.941 -0.1593 -1.1029  1.9504
   21MOL   H36211602   4.807   5.587   6.049 -0.1791  0.1586  0.1576
   21MOL   H36311603   4.746   5.352   6.393 -1.9532  1.7937 -4.9150
   21MOL   H36411604   4.758   5.324   6.666 -0.7890  1.9303 -2.0804
   21MOL   H36511605   4.658   5.239   6.856  0.8615 -0.4402 -0.2717
   21MOL   O36611606   4.742   5.437   5.719 -0.2747  0.5055  0.4155
   21MOL   C36711607   4.830   5.527   5.731  0.1161  0.0583 -0.1941
   21MOL   O36811608   4.862   5.574   5.852  0.0468  0.1302 -0.1648
   21MOL   C36911609   4.912   5.590   5.623 -0.2260 -0.0308  0.1889
   21MOL   C37011610   4.881   5.569   5.487  0.3693  0.3019  1.0209
   21MOL   C37111611   4.964   5.614   5.380  0.5900  0.0333 -0.5999
   21MOL   C37211612   4.927   5.590   5.245 -0.6376  0.1962  0.1597
   21MOL   C37311613   5.004   5.641   5.138  0.8619 -0.6654 -0.2406
   21MOL   C37411614   5.120   5.713   5.166 -0.5148  0.2071 -0.2528
   21MOL   C37511615   5.196   5.776   5.057  0.3313 -0.6270  0.8476
   21MOL   O37611616   5.317   5.819   5.099 -0.0868 -0.2836 -0.1187
   21MOL   C37711617   5.404   5.880   5.004 -0.2202 -0.4277 -0.5238
   21MOL   C37811618   5.472   5.767   4.908  0.1606 -0.1037  0.1737
   21MOL   O37911619   5.145   5.790   4.942 -0.1580 -0.1555 -0.3594
   21MOL   C38011620   5.149   5.743   5.302  0.3862  0.2558  0.0786
   21MOL   C38111621   5.074   5.694   5.407  0.0172  0.0999 -0.1673
   21MOL   C38211622   5.092   5.738   5.544 -0.1879 -0.1865 -0.4223
   21MOL   C38311623   5.020   5.677   5.648 -0.0612 -0.1161  0.5815
   21MOL   H38411624   4.790   5.515   5.465  0.0824  1.2473 -0.1666
   21MOL   H38511625   4.844   5.525   5.218 -0.0803 -0.7201  0.6177
   21MOL   H38611626   4.973   5.638   5.035 -0.4903 -3.4668  0.2160
   21MOL   H38711627   5.483   5.936   5.055  0.3928 -2.1551  0.4489
   21MOL   H38811628   5.338   5.954   4.959 -0.8247 -0.3419  0.4849
   21MOL   H38911629   5.539   5.706   4.968 -0.3078 -0.0456  0.7512
   21MOL   H39011630   5.391   5.704   4.870 -0.4650 -0.8809  2.7077
   21MOL   H39111631   5.231   5.810   5.325  1.3572 -1.6593  2.3499
   21MOL   H39211632   5.175   5.806   5.556  0.4612 -1.2575  1.4692
   21MOL   H39311633   5.042   5.706   5.750  2.0330 -2.7999  0.9366
   21MOL   O39411634   5.714   5.919   4.897  0.4833 -0.2536  0.0110
   21MOL   C39511635   5.655   5.878   4.794 -0.7211  0.0944  0.3482
   21MOL   O39611636   5.542   5.805   4.790  0.1098  0.3306  0.1750
   21MOL   C39711637   5.706   5.909   4.656  0.4022 -0.2246 -0.4618
   21MOL   C39811638   5.647   5.854   4.542  0.5456  0.1772  0.3294
   21MOL   C39911639   5.690   5.902   4.418 -0.4754 -0.2866 -0.5958
   21MOL   C40011640   5.632   5.852   4.301  1.1005 -0.6672  0.0173
   21MOL   C40111641   5.680   5.894   4.173  0.0760  0.6280 -0.8000
   21MOL   C40211642   5.787   5.989   4.160  0.3866 -0.3089  0.2938
   21MOL   C40311643   5.833   6.042   4.031 -0.2769  0.4039 -0.0795
   21MOL   O40411644   5.757   6.006   3.930 -0.3619 -0.2797 -0.1128
   21MOL   C40511645   5.792   6.059   3.803 -0.1911 -0.1070  0.4116
   21MOL   C40611646   5.679   6.076   3.701  0.0460  0.3066 -0.3076
   21MOL   O40711647   5.927   6.122   4.011 -0.4641 -0.1646  0.0450
   21MOL   C40811648   5.846   6.022   4.281  0.2309 -0.2286 -0.3254
   21MOL   C40911649   5.804   5.984   4.406  0.2786 -0.4170 -0.3633
   21MOL   C41011650   5.879   6.016   4.519  0.4124 -0.6751 -0.3735
   21MOL   C41111651   5.826   5.984   4.649 -0.6542  0.5218 -0.1029
   21MOL   H41211652   5.573   5.776   4.543  0.4329  0.2686 -0.2257
   21MOL   H41311653   5.552   5.780   4.292 -0.5535  0.9941  1.0126
   21MOL   H41411654   5.628   5.867   4.082 -0.3513  1.4885 -0.8185
   21MOL   H41511655   5.864   5.993   3.755 -1.0031 -0.8622  0.2305
   21MOL   H41611656   5.830   6.161   3.807 -1.6583  0.4627  0.4098
   21MOL   H41711657   5.614   5.990   3.715 -0.8107  0.3229 -3.9124
   21MOL   H41811658   5.616   6.164   3.709 -2.6984 -1.7724  1.9875
   21MOL   H41911659   5.930   6.089   4.277  0.2810 -0.3898 -2.7668
   21MOL   H42011660   5.970   6.074   4.520  1.5414 -2.4179  1.2821
   21MOL   H42111661   5.875   6.025   4.737 -1.1235 -1.3725  1.0760
   21MOL   O42211662   5.819   6.265   3.573 -0.6864  0.0832 -0.3218
   21MOL   C42311663   5.797   6.158   3.516  0.2219 -0.0683  0.4406
   21MOL   O42411664   5.721   6.061   3.564  0.2243 -0.3321  0.1717
   21MOL   C42511665   5.856   6.127   3.383  0.2757 -0.5664 -0.0352
   21MOL   C42611666   5.932   6.233   3.316 -0.2494 -0.5795  0.8405
   21MOL   C42711667   5.991   6.211   3.186 -0.0030  0.3198 -0.5814
   21MOL   C42811668   6.051   6.311   3.117  0.2178  0.0375 -0.1524
   21MOL   C42911669   6.124   6.292   2.998 -0.0223 -0.0560 -0.1555
   21MOL   C43011670   6.122   6.162   2.939  0.6352 -0.3177  0.2921
   21MOL   C43111671   6.185   6.127   2.812 -0.1591 -0.2850 -0.1023
   21MOL   O43211672   6.222   6.239   2.744  0.2844 -0.5111 -0.4586
   21MOL   C43311673   6.241   6.228   2.601 -0.3565  0.3757  0.7299
   21MOL   C43411674   6.185   6.360   2.540 -0.6206  0.5083 -0.1012
   21MOL   O43511675   6.188   6.012   2.762 -0.0768 -0.4101 -0.6218
   21MOL   C43611676   6.050   6.063   3.003 -0.6947  1.0274  0.2785
   21MOL   C43711677   5.990   6.083   3.126 -0.1858  0.4590 -0.0267
   21MOL   C43811678   5.923   5.980   3.196  0.3249  0.2208 -0.0683
   21MOL   C43911679   5.863   5.997   3.324 -0.0735 -0.3392 -0.6037
   21MOL   H44011680   5.936   6.336   3.346  1.1218  0.2442 -2.0462
   21MOL   H44111681   6.057   6.414   3.150 -1.5479  0.7532 -1.9349
   21MOL   H44211682   6.174   6.374   2.949 -0.4672  0.4469  0.2458
   21MOL   H44311683   6.175   6.146   2.573  1.2985 -1.0053  0.7404
   21MOL   H44411684   6.344   6.205   2.572 -0.3975  0.7034  0.3400
   21MOL   H44511685   6.180   6.347   2.431 -0.0182 -0.0496 -0.0664
   21MOL   H44611686   6.082   6.378   2.571 -0.1568  1.3041  0.9974
   21MOL   H44711687   6.056   5.963   2.962 -0.8890  0.1052  2.4224
   21MOL   H44811688   5.907   5.886   3.146 -2.2906  0.7841 -0.3499
   21MOL   H44911689   5.820   5.913   3.377 -0.6198  0.5200  0.3443
   21MOL   O45011690   6.130   6.600   2.422 -0.0160  0.2048 -0.2715
   21MOL   C45111691   6.221   6.591   2.504 -0.2217  0.7624 -0.1965
   21MOL   O45211692   6.260   6.477   2.566 -0.3034  0.0969 -0.0246
   21MOL   C45311693   6.325   6.700   2.533  0.6740 -0.0793 -0.6871
   21MOL   C45411694   6.295   6.835   2.491 -0.5173 -0.1568  1.0203
   21MOL   C45511695   6.381   6.945   2.515 -0.6642  0.1212  0.0815
   21MOL   C45611696   6.348   7.071   2.475  0.0134  0.0656 -0.2417
   21MOL   C45711697   6.440   7.181   2.489 -0.1337  0.2930 -0.3117
   21MOL   C45811698   6.563   7.155   2.557  0.2283  0.3253 -0.1407
   21MOL   C45911699   6.650   7.271   2.580  0.0608 -0.0207 -0.0400
   21MOL   O46011700   6.736   7.258   2.670 -0.1692 -0.6040  0.1335
   21MOL   C46111701   6.839   7.362   2.697 -0.0851 -0.2886 -0.3261
   21MOL   C46211702   6.787   7.453   2.808  0.2763 -1.5105  0.1488
   21MOL   O46311703   6.642   7.371   2.503  0.0289 -0.2577 -0.3105
   21MOL   C46411704   6.593   7.022   2.604 -0.1587 -0.4228 -0.3229
   21MOL   C46511705   6.506   6.918   2.572  0.6240 -0.0406  0.5098
   21MOL   C46611706   6.538   6.785   2.604 -0.2222  0.0019 -0.5627
   21MOL   C46711707   6.450   6.677   2.592 -0.0071 -0.7831  0.1537
   21MOL   H46811708   6.198   6.851   2.445 -0.5655  0.0001  1.1775
   21MOL   H46911709   6.250   7.086   2.430 -0.3300 -0.4935  0.3044
   21MOL   H47011710   6.416   7.274   2.439  0.8789 -0.8845 -3.0679
   21MOL   H47111711   6.870   7.412   2.606  0.9681 -0.6060 -0.1522
   21MOL   H47211712   6.930   7.322   2.742 -0.3808 -0.3503  0.2258
   21MOL   H47311713   6.780   7.551   2.760 -1.6094 -1.7689 -0.1639
   21MOL   H47411714   6.682   7.429   2.827 -0.3874 -0.1194 -1.6622
   21MOL   H47511715   6.681   7.010   2.666  0.5698  0.5970 -1.1494
   21MOL   H47611716   6.635   6.772   2.651 -0.4769  1.4149  0.3803
   21MOL   H47711717   6.475   6.573   2.611 -0.2123 -0.2054  3.8207
   21MOL   O47811718   6.727   7.353   3.066  0.1494  0.7867 -0.0184
   21MOL   C47911719   6.844   7.386   3.043 -0.7215  0.2593  0.2891
   21MOL   O48011720   6.876   7.454   2.929 -0.4053 -0.0227 -0.0359
   21MOL   C48111721   6.954   7.370   3.143  0.0750  0.4149  0.4749
   21MOL   C48211722   7.089   7.402   3.127 -0.5315  0.4955  0.5351
   21MOL   C48311723   7.191   7.376   3.226  0.5436  0.8021  0.4455
   21MOL   C48411724   7.324   7.413   3.206  0.3533  0.1342 -0.0866
   21MOL   C48511725   7.421   7.383   3.300  0.0526  0.0857  0.0989
   21MOL   C48611726   7.384   7.305   3.418 -0.7356 -0.0328 -0.2579
   21MOL   C48711727   7.486   7.260   3.519  0.3473 -0.2221 -0.0084
   21MOL   O48811728   7.625   7.266   3.492  0.5443 -0.2047  0.1340
   21MOL   C48911729   7.714   7.242   3.600 -0.2573  0.3978  0.3607
   21MOL   C49011730   7.732   7.374   3.676  0.6544  0.0713  0.2941
   21MOL   O49111731   7.449   7.223   3.633  0.3076 -0.0281  0.1839
   21MOL   C49211732   7.249   7.273   3.439  0.3019  0.3406  0.5180
   21MOL   C49311733   7.153   7.310   3.345 -0.0161  0.3863 -0.0643
   21MOL   C49411734   7.018   7.282   3.370 -0.1805  0.3404 -0.0536
   21MOL   C49511735   6.919   7.307   3.271 -0.1620  0.0364  0.0797
   21MOL   H49611736   7.123   7.450   3.036  0.5306  1.9195  1.6605
   21MOL   H49711737   7.353   7.464   3.115 -2.1781 -0.4001 -1.2149
   21MOL   H49811738   7.519   7.427   3.305  0.6379 -1.0513 -1.1376
   21MOL   H49911739   7.816   7.215   3.572 -1.2927 -3.8566  0.3181
   21MOL   H50011740   7.679   7.158   3.660  0.9548 -0.6197 -0.3215
   21MOL   H50111741   7.645   7.424   3.719 -1.0303 -1.4481 -1.2541
   21MOL   H50211742   7.797   7.354   3.761 -0.1289  1.5313  1.2655
   21MOL   H50311743   7.216   7.221   3.527  0.3713  1.1817  1.0490
   21MOL   H50411744   6.990   7.243   3.467  1.1184  0.1148  0.2353
   21MOL   H50511745   6.817   7.279   3.292 -0.0136 -0.2447  0.4205
   21MOL   O50611746   8.005   7.452   3.659  0.2483  0.4155 -0.1441
   21MOL   C50711747   7.923   7.495   3.576  0.0324 -0.7745  0.0371
   21MOL   O50811748   7.791   7.468   3.582 -0.1654 -0.1793  0.0174
   21MOL   C50911749   7.952   7.591   3.470 -0.3038 -0.5801  0.3375
   21MOL   C51011750   8.082   7.635   3.442 -0.4218  0.0929  0.4656
   21MOL   C51111751   8.113   7.733   3.344  0.0099  0.1846  0.3436
   21MOL   C51211752   8.242   7.777   3.305 -0.6660 -1.4481 -0.4169
   21MOL   C51311753   0.010   7.888   3.217 -1.0515  0.4313 -0.0854
   21MOL   C51411754   8.149   7.951   3.161  0.6057  0.0986  0.6345
   21MOL   C51511755   8.165   8.071   3.079 -0.3922 -0.0995 -0.2339
   21MOL   O51611756   8.057   8.150   3.079  0.1695 -0.0496  0.3111
   21MOL   C51711757   8.051   0.012   2.988 -0.0004  0.2474 -0.2245
   21MOL   C51811758   8.117   0.134   3.045  0.1778 -0.0883 -0.0277
   21MOL   O51911759   0.017   8.090   3.012  0.2101 -0.4480  0.4929
   21MOL   C52011760   8.024   7.891   3.181  0.1219  0.4520 -0.7353
   21MOL   C52111761   8.004   7.792   3.279  0.1550 -1.0924  0.0941
   21MOL   C52211762   7.878   7.756   3.310 -0.1504  0.1390  0.5515
   21MOL   C52311763   7.846   7.653   3.401  0.0124 -0.0840  0.0387
   21MOL   H52411764   8.160   7.592   3.503  2.2412  1.0999 -2.1014
   21MOL   H52511765   0.082   7.735   3.351  0.4888  2.2815  0.9370
   21MOL   H52611766   0.108   7.930   3.199  0.1328 -1.6572  1.2214
   21MOL   H52711767   7.946   0.042   2.989 -0.1695 -0.4005  1.7364
   21MOL   H52811768   8.089   8.230   2.891  0.8278 -1.4614  0.6333
   21MOL   H52911769   8.217   0.106   3.076 -0.5288 -0.7668  1.7498
   21MOL   H53011770   8.131   0.212   2.971 -0.7620 -1.5388 -1.7700
   21MOL   H53111771   7.936   7.923   3.127 -0.0937 -0.5581 -0.9819
   21MOL   H53211772   7.797   7.795   3.250 -1.7937 -2.2532  1.1543
   21MOL   H53311773   7.742   7.625   3.413  0.1895 -0.3639  0.9928
   21MOL   O53411774   7.933   0.339   3.026  0.1703 -0.2026 -0.4835
   21MOL   C53511775   7.957   0.288   3.135 -0.3756  0.7470 -0.3759
   21MOL   O53611776   8.037   0.188   3.159 -0.0417  0.5315  0.6037
   21MOL   C53711777   7.900   0.351   3.254  0.7249 -0.5639 -0.2471
   21MOL   C53811778   7.819   0.468   3.239  0.2142  0.4383  0.3331
   21MOL   C53911779   7.774   0.529   3.359  0.1492  0.5411 -0.3032
   21MOL   C54011780   7.691   0.645   3.351 -0.0101  0.0501  0.6227
   21MOL   C54111781   7.655   0.722   3.464  0.2405  0.2068 -0.2408
   21MOL   C54211782   7.694   0.684   3.591 -1.0680  0.1583  0.5370
   21MOL   C54311783   7.646   0.760   3.708  0.4250 -0.0558  0.1385
   21MOL   O54411784   7.530   0.822   3.692 -0.0256  0.3035  0.1745
   21MOL   C54511785   7.482   0.919   3.786 -0.2172  0.4729  0.3225
   21MOL   C54611786   7.381   1.005   3.710 -0.1733 -0.0796  0.1133
   21MOL   O54711787   7.706   0.768   3.817 -0.0172  0.0543  0.4154
   21MOL   C54811788   7.768   0.562   3.598 -0.0258 -0.4049 -0.2434
   21MOL   C54911789   7.808   0.483   3.485  1.0536 -0.2021 -1.0348
   21MOL   C55011790   7.882   0.364   3.500 -0.1993  0.4792 -0.0715
   21MOL   C55111791   7.926   0.298   3.382  0.5883  0.9265  0.1830
   21MOL   H55211792   7.787   0.500   3.140  0.3597  0.7176  0.3734
   21MOL   H55311793   7.665   0.686   3.255  0.2699 -0.7850  0.1772
   21MOL   H55411794   7.617   0.823   3.456 -1.8325 -0.6135 -0.9236
   21MOL   H55511795   7.560   0.990   3.815 -2.0376  2.2281  0.9953
   21MOL   H55611796   7.436   0.869   3.871  0.5952  0.2574  0.6486
   21MOL   H55711797   7.316   1.056   3.780  1.0732  0.1311  1.1396
   21MOL   H55811798   7.317   0.937   3.653  0.3721  0.5220 -1.2314
   21MOL   H55911799   7.802   0.532   3.697 -0.4873 -0.2445 -0.0371
   21MOL   H56011800   7.889   0.326   3.600  0.9439 -0.6277 -0.5693
   21MOL   H56111801   7.982   0.206   3.387 -0.4263  0.3786  1.8958
   21MOL   H56211802   7.434   1.069   3.639 -0.6928 -0.5672 -0.7191
   22MOL     O111803   5.830   3.367   7.776  0.4535 -0.1670 -0.0778
   22MOL     C211804   5.767   3.378   7.880  0.5788 -0.1725 -0.1581
   22MOL     O311805   5.688   3.485   7.909 -0.0328  0.2104  0.1222
   22MOL     C411806   5.783   3.276   7.989 -0.0205 -0.1684  0.2532
   22MOL     C511807   5.897   3.195   7.982  1.1620 -0.4979  0.3736
   22MOL     C611808   5.916   3.089   8.076 -0.3920  0.6252  0.6257
   22MOL     C711809   6.025   2.995   8.067  0.1926  0.4550  0.6201
   22MOL     C811810   6.043   2.889   8.158 -0.1302  0.0988 -0.7722
   22MOL     C911811   5.946   2.875   0.018 -0.3598  0.4759  0.7364
   22MOL    C1011812   5.961   2.778   0.130  0.3075  0.8471 -0.4109
   22MOL    O1111813   6.075   2.710   0.125  0.0153  0.0950  0.2926
   22MOL    C1211814   6.107   2.623   0.228 -0.5769  0.2066 -0.1376
   22MOL    C1311815   6.255   2.573   0.232 -0.2412  0.7076  0.0432
   22MOL    O1411816   5.878   2.758   0.223  0.3113 -0.2155 -0.0430
   22MOL    C1511817   5.838   2.968   0.022 -0.1870 -0.5212 -0.0377
   22MOL    C1611818   5.818   3.067   8.178 -0.3350  0.4585  0.4153
   22MOL    C1711819   5.703   3.158   8.189  0.3894 -0.6387 -0.7325
   22MOL    C1811820   5.692   3.263   8.093  0.6067  0.2857 -0.2266
   22MOL    H1911821   5.964   3.202   7.898  0.6418 -0.1887 -0.0148
   22MOL    H2011822   6.094   3.007   7.985  0.8620  0.9513  1.2562
   22MOL    H2111823   6.129   2.825   8.146  0.5728  1.3232 -2.5485
   22MOL    H2211824   6.086   2.673   0.322  1.8820 -0.4115  0.7990
   22MOL    H2311825   6.041   2.536   0.222 -0.2943 -0.0100 -0.1379
   22MOL    H2411826   6.323   2.631   0.170  1.3820 -0.1822  0.9429
   22MOL    H2511827   6.292   2.565   0.334 -1.2123 -0.9398  0.2783
   22MOL    H2611828   5.768   2.959   0.103 -0.7911  3.4922  0.0188
   22MOL    H2711829   5.620   3.167   0.010  0.0279 -0.0241 -1.2371
   22MOL    H2811830   5.604   3.324   8.103 -0.8519 -1.9002  0.4106
   22MOL    H2911831   5.719   3.559   7.859  0.9081  0.9061  1.7059
   22MOL    O3011832   6.248   2.348   0.398  0.4444 -0.0427 -0.6464
   22MOL    C3111833   6.265   2.335   0.276 -0.2291 -0.2548  0.0235
   22MOL    O3211834   6.257   2.438   0.183  0.2059 -0.2968  0.0459
   22MOL    C3311835   6.275   2.205   0.216 -0.2443 -0.1853 -0.5345
   22MOL    C3411836   6.309   2.191   0.079  0.0643  0.4949  0.1388
   22MOL    C3511837   6.308   2.059   0.021 -0.1744 -0.5744 -0.6826
   22MOL    C3611838   6.336   2.037   8.132 -0.1173  0.4448 -0.0753
   22MOL    C3711839   6.335   1.907   8.083 -0.1624  0.0890  0.2010
   22MOL    C3811840   6.307   1.798   8.161  0.3970 -0.1348 -0.1936
   22MOL    C3911841   6.328   1.660   8.108 -0.0528  0.2496 -0.2411
   22MOL    O4011842   6.248   1.568   8.165 -0.4493 -0.2251 -0.5269
   22MOL    C4111843   6.267   1.427   8.135  0.1867 -0.3713 -0.1245
   22MOL    C4211844   6.384   1.377   8.222  0.1173  0.5262 -0.0339
   22MOL    O4311845   6.408   1.635   8.017  0.4326  0.0616 -0.3816
   22MOL    C4411846   6.258   1.818   0.043  0.4511  0.4080  0.3792
   22MOL    C4511847   6.261   1.947   0.091  0.2825 -0.4421 -0.0035
   22MOL    C4611848   6.211   1.972   0.223  0.1078  0.3307  0.4445
   22MOL    C4711849   6.227   2.094   0.288  0.0300  0.6586  0.2402
   22MOL    H4811850   6.335   2.275   0.016 -2.6336  2.2836  1.3381
   22MOL    H4911851   6.378   2.106   8.060 -1.5095 -1.7872 -3.1320
   22MOL    H5011852   6.379   1.888   7.986 -0.7151  0.7517 -0.1876
   22MOL    H5111853   6.295   1.412   8.031 -0.6031 -1.9564 -0.1303
   22MOL    H5211854   6.171   1.379   8.158 -1.2499  1.7915 -1.3751
   22MOL    H5311855   6.375   1.399   0.079  1.1623 -0.3490  0.2431
   22MOL    H5411856   6.387   1.269   8.205  2.1635  0.7196 -0.9968
   22MOL    H5511857   6.222   1.731   0.095  0.7061 -2.5161 -4.0539
   22MOL    H5611858   6.158   1.891   0.271 -0.9851 -0.2774 -1.7066
   22MOL    H5711859   6.191   2.110   0.389  2.1612 -0.1780  1.1726
   22MOL    O5811860   6.551   1.260   8.010 -0.4761 -0.5698 -0.0626
   22MOL    C5911861   6.585   1.358   8.081  0.4341  0.0348  0.8724
   22MOL    O6011862   6.513   1.427   8.176  0.7135  0.5894  0.2327
   22MOL    C6111863   6.729   1.419   8.066  0.4496 -0.0627 -0.3130
   22MOL    C6211864   6.763   1.539   8.135  0.1279 -0.3757 -0.0552
   22MOL    C6311865   6.890   1.595   8.123  0.0876  0.0611  0.1323
   22MOL    C6411866   6.922   1.717   8.197  0.3812  0.1424 -0.8987
   22MOL    C6511867   7.055   1.777   8.190  0.2257  1.0551 -0.9560
   22MOL    C6611868   7.155   1.711   8.114 -0.0696  0.1269 -0.5918
   22MOL    C6711869   7.293   1.773   8.119 -0.0257 -0.0735  0.5397
   22MOL    O6811870   7.345   1.781   8.239  0.6821 -0.0806 -0.0815
   22MOL    C6911871   7.473   1.843   0.015  0.8727 -0.3019  0.1426
   22MOL    C7011872   7.581   1.740   0.030 -0.4786 -0.0347 -0.3214
   22MOL    O7111873   7.349   1.812   8.017 -0.5566  0.0834  0.0268
   22MOL    C7211874   7.119   1.592   8.043 -0.4395 -0.3156 -0.5658
   22MOL    C7311875   6.993   1.534   8.051  0.0788  0.0962  0.0901
   22MOL    C7411876   6.961   1.412   7.988  0.0081  0.1190 -0.5685
   22MOL    C7511877   6.830   1.361   7.989  0.4712  0.1094 -0.3682
   22MOL    H7611878   6.691   1.588   8.200  1.5957  0.7417  0.7456
   22MOL    H7711879   6.847   1.767   0.007  2.4068 -0.0143  1.9113
   22MOL    H7811880   7.076   1.872   8.237  0.5491  0.5387 -0.0348
   22MOL    H7911881   7.460   1.912   0.099 -0.6702 -1.5798  0.9759
   22MOL    H8011882   7.497   1.911   8.182 -0.9524 -0.5456 -0.6293
   22MOL    H8111883   7.549   1.657   8.217  0.8825  0.4562 -1.7173
   22MOL    H8211884   7.677   1.763   8.234  0.7591 -0.5981  1.9340
   22MOL    H8311885   7.198   1.541   7.990 -1.1913 -0.7192 -1.3113
   22MOL    H8411886   7.038   1.363   7.930 -0.6278 -0.5820 -0.8101
   22MOL    H8511887   6.792   1.278   7.930  0.2021  0.4844 -0.7242
   22MOL    O8611888   7.745   1.539   0.131  0.1193  0.1536  0.6049
   22MOL    C8711889   7.669   1.595   0.208 -0.0391 -0.7630  0.0489
   22MOL    O8811890   7.595   1.704   0.170  0.8353  0.2208 -0.4350
   22MOL    C8911891   7.649   1.558   0.347  0.0098 -1.1141 -0.2972
   22MOL    C9011892   7.687   1.430   0.398 -0.0484  0.0501  0.5422
   22MOL    C9111893   7.653   1.389   0.523  0.3226 -0.8938 -0.0427
   22MOL    C9211894   7.655   1.254   0.566  0.0772 -0.4458 -0.2742
   22MOL    C9311895   7.606   1.216   0.691  0.1545  0.8675  0.3066
   22MOL    C9411896   7.563   1.314   0.784  0.4381 -0.2710  0.5669
   22MOL    C9511897   7.503   1.271   0.913 -0.1929  0.2470  0.0279
   22MOL    O9611898   7.492   1.137   0.924 -0.2958  0.8340 -0.0435
   22MOL    C9711899   7.424   1.078   1.031  0.2269 -0.2926 -0.0088
   22MOL    C9811900   7.513   1.014   1.134 -0.1878 -0.2607 -0.4617
   22MOL    O9911901   7.452   1.351   0.994  0.1846  0.6020  0.0577
   22MOL   C10011902   7.572   1.453   0.746 -0.0953 -0.5997 -0.1701
   22MOL   C10111903   7.611   1.486   0.617  0.5366 -0.1203 -0.2737
   22MOL   C10211904   7.587   1.618   0.577 -0.2836  0.1713 -0.3600
   22MOL   C10311905   7.607   1.656   0.445 -0.0075  0.5433  0.2251
   22MOL   H10411906   7.750   1.363   0.342 -0.6047 -0.4061  0.4547
   22MOL   H10511907   7.699   1.182   0.499  1.3923 -0.0502  0.1583
   22MOL   H10611908   7.615   1.116   0.731 -2.1938  1.8798  3.5623
   22MOL   H10711909   7.369   1.003   0.975 -2.3597 -0.3451  2.5258
   22MOL   H10811910   7.352   1.144   1.079 -0.0828  0.1523 -1.0681
   22MOL   H10911911   7.435   0.981   1.202  0.9817 -1.3996  0.3598
   22MOL   H11011912   7.559   0.927   1.088  2.8228  0.0151  1.8687
   22MOL   H11111913   7.535   1.523   0.820  2.0308 -1.5867  1.8972
   22MOL   H11211914   7.543   1.695   0.639 -3.2500 -2.1497  0.5277
   22MOL   H11311915   7.590   1.754   0.404 -0.0420 -0.1233 -1.4215
   22MOL   O11411916   7.789   1.018   1.112  0.5684  0.0944 -0.0899
   22MOL   C11511917   7.731   1.095   1.184  0.6148  0.2691  0.4838
   22MOL   O11611918   7.596   1.110   1.196 -0.5042 -0.0315 -0.0901
   22MOL   C11711919   7.804   1.185   1.264 -0.4052 -0.7439 -0.5533
   22MOL   C11811920   7.759   1.319   1.288 -0.0791  0.6114 -0.7357
   22MOL   C11911921   7.842   1.410   1.350 -0.2474 -0.1702  0.0181
   22MOL   C12011922   7.800   1.545   1.377 -0.8907  0.1310  0.2054
   22MOL   C12111923   7.886   1.625   1.447 -0.1026  0.4641 -0.3807
   22MOL   C12211924   8.006   1.581   1.500  0.4617 -0.0095 -1.3047
   22MOL   C12311925   8.089   1.682   1.577 -0.1704 -0.0429 -0.4797
   22MOL   O12411926   8.194   1.628   1.638  0.3467  0.3102 -0.1905
   22MOL   C12511927   0.014   1.700   1.742 -0.5350 -0.1186 -0.0495
   22MOL   C12611928   0.104   1.600   1.823 -0.0805 -0.1996  0.4558
   22MOL   O12711929   8.050   1.797   1.600  0.0574 -0.0939 -0.0629
   22MOL   C12811930   8.051   1.450   1.487 -0.1429  0.6194  0.0813
   22MOL   C12911931   7.967   1.366   1.405  0.2824  0.0243  0.3229
   22MOL   C13011932   8.011   1.232   1.387 -0.5701 -0.2792  0.4239
   22MOL   C13111933   7.927   1.144   1.321 -0.2301  0.2549  0.5109
   22MOL   H13211934   7.664   1.358   1.255 -0.1505  0.4192 -0.7552
   22MOL   H13311935   7.701   1.581   1.355 -2.1916 -0.1590  5.0290
   22MOL   H13411936   7.860   1.728   1.466  2.6532  0.8725  1.5047
   22MOL   H13511937   8.191   1.743   1.811  0.4838  1.2087  0.2179
   22MOL   H13611938   0.070   1.785   1.702 -2.5439  0.0483 -2.6581
   22MOL   H13711939   0.166   1.535   1.761 -1.9863 -1.2246 -0.4188
   22MOL   H13811940   0.181   1.644   1.886  2.6543 -2.1599 -1.4285
   22MOL   H13911941   8.148   1.413   1.516  0.0885 -0.0355 -1.4774
   22MOL   H14011942   8.110   1.201   1.417 -0.6462 -0.2972  0.6593
   22MOL   H14111943   7.964   1.045   1.300  0.4590  0.4517  0.7725
   22MOL   O14211944   0.191   1.382   1.961 -0.3276 -0.1688 -0.5740
   22MOL   C14311945   0.070   1.409   1.956  0.8034 -0.2734  0.3527
   22MOL   O14411946   0.021   1.520   1.896 -0.1538 -0.1658 -0.4177
   22MOL   C14511947   8.210   1.306   1.989  1.3368 -0.0426 -0.0694
   22MOL   C14611948   8.071   1.338   1.988  0.0617  0.3728  0.1352
   22MOL   C14711949   7.973   1.234   2.003  0.4043  0.1501 -0.3665
   22MOL   C14811950   7.830   1.259   1.988  0.0288  0.1555 -0.5310
   22MOL   C14911951   7.742   1.155   2.002  0.0564 -0.4188  0.9567
   22MOL   C15011952   7.781   1.021   2.019  0.6123 -0.3309  0.0005
   22MOL   C15111953   7.683   0.906   2.016  0.3473 -0.2027  0.4369
   22MOL   O15211954   7.547   0.939   2.022 -0.3504  0.1866 -0.1267
   22MOL   C15311955   7.447   0.845   1.994  0.3382  0.3953 -0.2902
   22MOL   C15411956   7.397   0.763   2.117 -0.2499  0.2369 -0.4736
   22MOL   O15511957   7.730   0.790   2.009 -1.0550  0.2170  0.1162
   22MOL   C15611958   7.917   0.995   2.028  0.3856 -0.5873 -0.7325
   22MOL   C15711959   8.012   1.099   2.017  0.8269 -0.2645 -1.1588
   22MOL   C15811960   8.151   1.073   2.015  0.0209 -0.3705  0.3361
   22MOL   C15911961   8.248   1.173   2.003 -0.4218 -0.6655  0.7444
   22MOL   H16011962   8.036   1.437   1.962  1.4640  0.8594  0.1116
   22MOL   H16111963   7.798   1.361   1.970  4.3958  1.5901 -0.9961
   22MOL   H16211964   7.637   1.177   1.995  0.2567  0.2778  0.1458
   22MOL   H16311965   7.492   0.788   1.913 -0.2100  1.4651 -1.3527
   22MOL   H16411966   7.367   0.901   1.946 -0.2088 -0.4923 -0.4300
   22MOL   H16511967   7.361   0.834   2.192  1.7272  1.2965 -0.4984
   22MOL   H16611968   7.310   0.703   2.089  0.8316 -1.3452 -0.4790
   22MOL   H16711969   7.946   0.891   2.024 -2.4774 -1.4483 -0.4018
   22MOL   H16811970   8.177   0.969   2.027  1.7915 -0.0584 -0.5940
   22MOL   H16911971   0.105   1.152   1.993 -0.2242  0.6421  0.0909
   22MOL   O17011972   7.470   0.674   2.371  0.3276  0.2426  0.4484
   22MOL   C17111973   7.526   0.626   2.277 -0.0347 -0.9936  0.3615
   22MOL   O17211974   7.502   0.662   2.146  0.0547  0.2416 -0.0666
   22MOL   C17311975   7.633   0.522   2.294  1.2094  0.5132  0.1323
   22MOL   C17411976   7.668   0.470   2.423 -0.2349 -0.0622 -0.2197
   22MOL   C17511977   7.776   0.378   2.433  0.3100 -0.7119 -0.3199
   22MOL   C17611978   7.815   0.332   2.560 -0.3774  0.0389 -0.0995
   22MOL   C17711979   7.927   0.243   2.566 -0.5177 -0.6646 -0.2616
   22MOL   C17811980   7.990   0.201   2.447 -0.6130  0.4598 -0.3642
   22MOL   C17911981   8.100   0.101   2.445  0.2929 -1.0115  0.2769
   22MOL   O18011982   8.107   0.043   2.562 -0.0816 -0.7652  0.7828
   22MOL   C18111983   8.216   8.206   2.592  0.6031 -0.3164 -0.1445
   22MOL   C18211984   8.178   8.068   2.542  0.0098  0.5045  0.2413
   22MOL   O18311985   8.159   0.073   2.343 -0.1269 -0.2563 -0.5239
   22MOL   C18411986   7.950   0.255   2.323  0.1904  0.2178  0.0116
   22MOL   C18511987   7.845   0.342   2.318 -0.2714  0.6051 -0.5847
   22MOL   C18611988   7.809   0.386   2.198  0.1966  0.4834  0.2579
   22MOL   C18711989   7.703   0.473   2.180  0.4480 -0.2684  0.6921
   22MOL   H18811990   7.610   0.503   2.507 -1.4778  0.5942 -1.3150
   22MOL   H18911991   7.770   0.368   2.650 -1.9473 -2.5117  0.1859
   22MOL   H19011992   7.954   0.191   2.656 -1.6440 -0.2108  0.3537
   22MOL   H19111993   8.217   8.202   2.701  0.5755  0.3661 -0.1148
   22MOL   H19211994   0.055   8.245   2.542  1.0156 -0.6937  0.2922
   22MOL   H19311995   8.071   8.050   2.531  0.2369  0.1931 -1.5599
   22MOL   H19411996   8.219   8.061   2.441  1.4240 -1.5477  0.9286
   22MOL   H19511997   8.001   0.224   2.233  0.8610 -2.1983  1.1866
   22MOL   H19611998   7.861   0.360   2.106  1.4280  1.9158  0.5354
   22MOL   H19711999   7.671   0.507   2.083 -0.5747  0.3211  1.2318
   22MOL   O19812000   0.180   7.967   2.550  0.9076 -0.1836  0.0855
   22MOL   C19912001   0.089   7.919   2.624 -0.3433  0.0195 -0.5785
   22MOL   O20012002   8.217   7.976   2.638 -0.6547  0.6858 -0.5200
   22MOL   C20112003   0.114   7.799   2.718  0.0070  0.3075  0.4726
   22MOL   C20212004   0.013   7.766   2.815  0.1263 -0.2231 -0.4453
   22MOL   C20312005   0.023   7.660   2.910 -0.9752 -0.3870 -0.0248
   22MOL   C20412006   8.164   7.623   2.993 -0.1706  0.4635 -0.8024
   22MOL   C20512007   8.178   7.512   3.086  0.2436 -0.0610 -0.1010
   22MOL   C20612008   0.049   7.443   3.082 -0.2887  0.2313 -0.4667
   22MOL   C20712009   0.059   7.323   3.175  0.4081 -0.3665 -1.3610
   22MOL   O20812010   8.209   7.312   3.271 -0.0178  0.3136  0.6233
   22MOL   C20912011   8.214   7.201   3.361  0.5565  0.2547 -0.4802
   22MOL   C21012012   8.142   7.235   3.488 -0.6213 -0.5502  0.0152
   22MOL   O21112013   0.160   7.247   3.168  0.0459 -0.4055  0.1009
   22MOL   C21212014   0.159   7.488   3.004 -0.1582  0.5682  1.4149
   22MOL   C21312015   0.144   7.596   2.910 -0.9199  0.2558 -0.6628
   22MOL   C21412016   0.246   7.619   2.816 -0.6446  0.0500  1.0729
   22MOL   C21512017   0.232   7.718   2.711  0.0832 -0.1462 -0.1879
   22MOL   H21612018   8.179   7.835   2.811 -0.6033 -1.1070 -0.7185
   22MOL   H21712019   8.069   7.674   2.984 -0.4213  0.1323  0.0087
   22MOL   H21812020   8.095   7.493   3.152  0.9409  2.1532  1.4681
   22MOL   H21912021   0.069   7.183   3.388  0.6066 -1.9482 -2.0169
   22MOL   H22012022   8.174   7.117   3.304  0.3516 -0.1857  0.3083
   22MOL   H22112023   8.185   7.321   3.538 -0.2091 -0.0568 -1.1833
   22MOL   H22212024   8.034   7.246   3.477 -0.6978 -0.3788  0.9260
   22MOL   H22312025   0.252   7.433   3.005 -2.2472 -3.1184  3.0964
   22MOL   H22412026   0.326   7.546   2.813 -0.5127  0.1293  2.3624
   22MOL   H22512027   0.305   7.721   2.632  0.4386  0.3995  0.1580
   22MOL   O22612028   7.978   7.016   3.499 -0.1086 -0.5343  0.1058
   22MOL   C22712029   8.059   7.030   3.585  0.5373 -0.0313 -0.7948
   22MOL   O22812030   8.143   7.136   3.586  0.2578  0.5680  0.1503
   22MOL   C22912031   8.079   6.925   3.693  0.4604  0.3293 -0.2208
   22MOL   C23012032   8.002   6.804   3.682  0.0595  0.1724 -0.7049
   22MOL   C23112033   8.009   6.709   3.784 -0.8359  0.2584  0.0918
   22MOL   C23212034   7.936   6.585   3.765  0.7499  0.3395 -0.0541
   22MOL   C23312035   7.951   6.482   3.861 -1.0609  0.2289  0.9406
   22MOL   C23412036   8.028   6.507   3.979  0.0982 -0.0233 -0.0035
   22MOL   C23512037   8.034   6.408   4.093  0.4334 -0.3095 -0.1051
   22MOL   O23612038   7.983   6.291   4.064  0.6033  0.4185  0.3818
   22MOL   C23712039   7.991   6.185   4.156 -0.1110  0.1668  0.2851
   22MOL   C23812040   7.878   6.185   4.257 -0.6945  0.4931 -0.3257
   22MOL   O23912041   8.085   6.434   4.202  0.1555  0.3611  0.1255
   22MOL   C24012042   8.097   6.633   3.994 -0.1780 -0.0853 -0.3842
   22MOL   C24112043   8.097   6.731   3.893 -0.4982  0.1484  0.0434
   22MOL   C24212044   8.178   6.848   3.903 -0.0279  0.7244  0.0502
   22MOL   C24312045   8.169   6.941   3.798  0.5919  0.3318 -0.3300
   22MOL   H24412046   7.929   6.792   3.604 -1.0095  0.8730  0.1680
   22MOL   H24512047   7.878   6.571   3.675 -0.3262  0.6996  0.5731
   22MOL   H24612048   7.899   6.389   3.843  1.4870 -0.8088 -1.4827
   22MOL   H24712049   8.091   6.179   4.199 -0.5032  1.0067  1.3566
   22MOL   H24812050   7.977   6.093   4.099  1.0775 -0.1588  0.4999
   22MOL   H24912051   7.794   6.223   4.199 -2.6417 -1.4353  1.1709
   22MOL   H25012052   7.863   6.079   4.278 -0.9716  0.4504 -0.7185
   22MOL   H25112053   8.151   6.652   4.085  1.3107 -0.0862 -1.2587
   22MOL   H25212054   8.244   6.877   3.983  0.8027  0.6594 -0.6038
   22MOL   H25312055   8.230   7.030   3.807  1.4595 -0.3642  0.8669
   22MOL   O25412056   8.077   6.152   4.463  0.6515  0.4590  0.1242
   22MOL   C25512057   7.981   6.233   4.473 -0.4879 -0.0716 -0.3599
   22MOL   O25612058   7.895   6.263   4.372 -0.1862  0.4802 -0.4278
   22MOL   C25712059   7.943   6.297   4.605 -0.0122 -0.2714 -0.4739
   22MOL   C25812060   7.815   6.360   4.623  0.3051  0.1299 -1.3322
   22MOL   C25912061   7.778   6.414   4.745  0.3894  0.0189  0.3700
   22MOL   C26012062   7.651   6.474   4.774  0.3387  0.2404 -0.0742
   22MOL   C26112063   7.598   6.496   4.905 -0.8907 -0.1739 -0.0535
   22MOL   C26212064   7.681   6.468   5.020 -0.1713  0.5208 -1.0457
   22MOL   C26312065   7.624   6.492   5.157  0.1081  0.4725  0.4497
   22MOL   O26412066   7.712   6.533   5.255  1.0655  0.7154  0.2279
   22MOL   C26512067   7.663   6.572   5.386  0.0411  0.7478 -0.0045
   22MOL   C26612068   7.681   6.461   5.491 -0.7559  0.9595  0.4670
   22MOL   O26712069   7.505   6.477   5.183  0.1409 -0.0981 -0.6034
   22MOL   C26812070   7.811   6.423   4.991  0.5924 -0.2229 -0.5099
   22MOL   C26912071   7.856   6.387   4.860 -0.2825  0.5890 -0.4664
   22MOL   C27012072   7.977   6.322   4.846 -0.1246  0.1320  0.6044
   22MOL   C27112073   8.026   6.279   4.717 -0.2122 -0.6195  0.4235
   22MOL   H27212074   7.745   6.373   4.542 -1.3818  1.6173  0.3105
   22MOL   H27312075   7.582   6.491   4.692 -0.1899 -1.6954 -0.0676
   22MOL   H27412076   7.498   6.531   4.927 -1.0671 -0.7183  0.0422
   22MOL   H27512077   7.562   6.613   5.389  0.2596  1.2203  0.9623
   22MOL   H27612078   7.738   6.645   5.416 -0.3543  1.0536  0.2388
   22MOL   H27712079   7.782   6.450   5.529 -0.3348  0.8198 -0.6802
   22MOL   H27812080   7.627   6.494   5.580  0.0270  1.3946  0.7791
   22MOL   H27912081   7.882   6.401   5.069  1.2271 -0.6473 -1.1951
   22MOL   H28012082   8.034   6.294   4.932  1.0905  1.6985  0.3383
   22MOL   H28112083   8.121   6.228   4.710  0.8412  1.0420  2.1411
   22MOL   O28212084   7.796   6.207   5.513 -0.0681  0.3216 -0.3356
   22MOL   C28312085   7.695   6.228   5.444  0.4001 -0.2829 -0.4027
   22MOL   O28412086   7.620   6.341   5.447 -0.1251  0.5541  0.7971
   22MOL   C28512087   7.642   6.121   5.355  0.1106  0.1869 -0.0382
   22MOL   C28612088   7.713   5.994   5.365  0.3388 -0.4450 -0.2792
   22MOL   C28712089   7.657   5.888   5.290 -0.3451  0.1257 -0.0916
   22MOL   C28812090   7.723   5.764   5.297  0.3366 -0.4249  0.0805
   22MOL   C28912091   7.672   5.649   5.231  0.7745 -0.0936 -0.2836
   22MOL   C29012092   7.560   5.663   5.143 -0.1057  0.8835  0.3336
   22MOL   C29112093   7.536   5.552   5.053  0.6548 -0.4474  0.4319
   22MOL   O29212094   7.457   5.589   4.946  0.2433  0.4562 -0.0706
   22MOL   C29312095   7.396   5.502   4.857 -0.0635 -0.6216  0.6499
   22MOL   C29412096   7.493   5.457   4.745  0.1126 -0.1413  0.0454
   22MOL   O29512097   7.569   5.437   5.080  0.1076  0.2229 -0.1060
   22MOL   C29612098   7.494   5.789   5.133 -0.2724  0.5215 -0.3539
   22MOL   C29712099   7.542   5.900   5.203  0.4191 -0.3929  0.7355
   22MOL   C29812100   7.473   6.021   5.204  0.0606 -0.5280 -0.0092
   22MOL   C29912101   7.524   6.131   5.282 -0.2126  0.3049 -0.1377
   22MOL   H30012102   7.803   5.975   5.420 -0.7872  1.2084  2.2386
   22MOL   H30112103   7.803   5.759   5.370  0.2410  2.0400  0.3923
   22MOL   H30212104   7.726   5.558   5.252  2.2329  1.0833  1.2000
   22MOL   H30312105   7.312   5.551   4.807 -1.1498 -1.6675  1.4166
   22MOL   H30412106   7.353   5.418   4.912  0.5920 -0.8746  0.7821
   22MOL   H30512107   7.425   5.421   4.668  0.4572 -0.4964 -0.0937
   22MOL   H30612108   7.560   5.534   4.708  2.6697 -1.8738  0.9279
   22MOL   H30712109   7.409   5.806   5.068 -0.2432 -0.8378 -0.7601
   22MOL   H30812110   7.385   6.030   5.143  0.2572 -2.2968 -0.5740
   22MOL   H30912111   7.463   6.221   5.286 -0.0143  0.4540 -0.4294
   22MOL   O31012112   7.655   5.288   4.596  0.3655  0.5376 -0.0588
   22MOL   C31112113   7.636   5.264   4.715 -0.1594 -0.0630 -0.2809
   22MOL   O31212114   7.563   5.343   4.794 -0.0880  0.0278 -0.8668
   22MOL   C31312115   7.702   5.149   4.782  0.1801 -0.3628 -0.2144
   22MOL   C31412116   7.686   5.128   4.917  0.2305  0.4709  0.0789
   22MOL   C31512117   7.746   5.017   4.985 -0.6021 -0.0613 -0.7307
   22MOL   C31612118   7.715   4.987   5.119 -0.0366  0.4921 -0.0201
   22MOL   C31712119   7.781   4.879   5.184 -0.0207 -0.5157  0.6808
   22MOL   C31812120   7.861   4.787   5.110 -0.2664  0.2525  0.1791
   22MOL   C31912121   7.913   4.664   5.173  0.1978 -0.1102 -0.6316
   22MOL   O32012122   7.910   4.667   5.312 -0.2622 -0.3454 -0.4439
   22MOL   C32112123   7.960   4.553   5.387  0.2093 -0.8702  0.5567
   22MOL   C32212124   7.836   4.464   5.436  0.3826 -0.2036 -0.1987
   22MOL   O32312125   7.959   4.568   5.117  0.0348  0.0903 -0.4478
   22MOL   C32412126   7.881   4.809   4.976 -0.1034 -0.3269 -0.2030
   22MOL   C32512127   7.824   4.925   4.910 -0.1140 -0.0237 -0.0060
   22MOL   C32612128   7.842   4.950   4.774  0.8429 -0.3691 -0.3368
   22MOL   C32712129   7.778   5.057   4.706 -0.1078 -0.6486 -0.1028
   22MOL   H32812130   7.624   5.199   4.970  1.8665 -0.1018  2.8499
   22MOL   H32912131   7.662   5.052   5.187 -0.4000  0.0241  0.1496
   22MOL   H33012132   7.756   4.863   5.287  0.5442 -1.8152  0.6330
   22MOL   H33112133   8.016   4.584   5.475 -0.5212 -1.0371  1.0840
   22MOL   H33212134   8.024   4.484   5.333  0.8597 -1.0752  1.5823
   22MOL   H33312135   7.759   4.449   5.360  1.9514  0.1181 -1.8908
   22MOL   H33412136   7.877   4.365   5.456 -0.2518 -0.2307  1.0044
   22MOL   H33512137   7.925   4.733   4.912  3.0342  0.7503  0.6031
   22MOL   H33612138   7.902   4.887   4.710  1.7609 -0.6302  0.7626
   22MOL   H33712139   7.795   5.067   4.600 -0.0166  1.9214  0.1203
   22MOL   O33812140   7.631   4.644   5.429 -0.0018  0.4981 -0.2363
   22MOL   C33912141   7.682   4.609   5.540  0.0013  0.6518  0.7689
   22MOL   O34012142   7.783   4.525   5.550 -0.3226  0.9720 -0.1593
   22MOL   C34112143   7.639   4.676   5.666  0.0382  0.3878 -0.4728
   22MOL   C34212144   7.534   4.769   5.654 -0.1007  0.3730  0.4099
   22MOL   C34312145   7.492   4.851   5.755 -0.3868 -0.2694 -0.1213
   22MOL   C34412146   7.396   4.950   5.741  0.1747  0.1596 -1.2410
   22MOL   C34512147   7.365   5.035   5.843  0.5618 -1.0745  0.1740
   22MOL   C34612148   7.419   5.022   5.968  0.2090 -0.3302 -0.7523
   22MOL   C34712149   7.386   5.114   6.081  0.0514  0.0784  0.0113
   22MOL   O34812150   7.258   5.166   6.067 -0.0357  0.0019 -0.3617
   22MOL   C34912151   7.219   5.257   6.165 -0.1097 -0.0521  0.2321
   22MOL   C35012152   7.266   5.398   6.137 -0.1264  0.0384 -0.1869
   22MOL   O35112153   7.457   5.139   6.177  0.3255  0.1979  0.3445
   22MOL   C35212154   7.514   4.921   5.996  0.0540  0.3458  0.5114
   22MOL   C35312155   7.552   4.837   5.885 -0.2990 -0.0829  0.4260
   22MOL   C35412156   7.654   4.741   5.898 -0.3422 -0.1128 -0.8563
   22MOL   C35512157   7.696   4.660   5.793 -0.3004  0.5431  0.5855
   22MOL   H35612158   7.476   4.772   5.563 -0.7752  2.0904  0.8763
   22MOL   H35712159   7.348   4.969   5.646  0.5357  1.1594 -1.2254
   22MOL   H35812160   7.297   5.110   5.806  0.4579 -1.8160 -1.2094
   22MOL   H35912161   7.244   5.217   6.264  1.2535 -1.5460 -0.6939
   22MOL   H36012162   7.110   5.256   6.164 -0.1034 -1.1487 -1.3759
   22MOL   H36112163   7.375   5.409   6.136  0.3665 -3.8324  1.3638
   22MOL   H36212164   7.214   5.430   6.047  0.7246  1.3780 -0.2307
   22MOL   H36312165   7.554   4.910   6.095  0.6516 -2.0752  0.0313
   22MOL   H36412166   7.701   4.734   5.994  0.9928  0.5069 -1.4482
   22MOL   H36512167   7.782   4.594   5.797 -2.1432 -1.8916  0.8184
   22MOL   O36612168   7.160   5.651   6.142 -0.0986 -0.0351  0.0922
   22MOL   C36712169   7.165   5.586   6.245  0.5020  0.3141  0.0943
   22MOL   O36812170   7.231   5.469   6.252 -0.2125  0.0266  0.0312
   22MOL   C36912171   7.073   5.604   6.365  0.0417  1.5963 -0.4231
   22MOL   C37012172   6.965   5.697   6.344  0.3786  0.2191 -0.6139
   22MOL   C37112173   6.861   5.707   6.437  0.8269 -0.1087 -0.2515
   22MOL   C37212174   6.761   5.798   6.417  0.3480 -0.1144 -0.0055
   22MOL   C37312175   6.646   5.798   6.503  0.2123  0.4018  0.3029
   22MOL   C37412176   6.636   5.703   6.602 -0.6397 -0.0927 -0.0065
   22MOL   C37512177   6.516   5.689   6.679 -0.2813 -0.4411 -0.4952
   22MOL   O37612178   6.515   5.570   6.750 -0.6496 -0.1935  0.6122
   22MOL   C37712179   6.391   5.518   6.787 -0.3268  0.1358 -1.0797
   22MOL   C37812180   6.417   5.363   6.806  0.7655  0.0375  0.0950
   22MOL   O37912181   6.420   5.775   6.681  0.3938 -0.0960 -0.5867
   22MOL   C38012182   6.748   5.622   6.633 -0.1455 -0.3860  0.9934
   22MOL   C38112183   6.857   5.620   6.548  0.2610  0.5710  0.0583
   22MOL   C38212184   6.963   5.529   6.570  0.0596  0.5906 -0.1922
   22MOL   C38312185   7.069   5.519   6.475 -0.5871 -0.0140 -0.2343
   22MOL   H38412186   6.960   5.756   6.253 -1.5401 -0.4492 -0.9501
   22MOL   H38512187   6.764   5.877   6.343 -0.8697  0.5487  0.6466
   22MOL   H38612188   6.566   5.867   6.482 -1.0260 -1.0903  0.0239
   22MOL   H38712189   6.306   5.537   6.721 -0.1575  1.5656 -0.9098
   22MOL   H38812190   6.353   5.559   6.881  0.2081  0.3163 -0.9423
   22MOL   H38912191   6.455   5.313   6.716 -2.4453 -1.2367 -0.6269
   22MOL   H39012192   6.497   5.356   6.880 -1.1747  2.9600  2.5722
   22MOL   H39112193   6.737   5.548   6.711 -3.3355  0.7214  1.6826
   22MOL   H39212194   6.964   5.461   6.653  2.2341  0.7097 -0.0813
   22MOL   H39312195   7.148   5.446   6.482  1.3410  2.0245 -0.2105
   22MOL   O39412196   6.271   5.387   7.048  1.1010 -0.5889  0.1765
   22MOL   C39512197   6.242   5.304   6.968 -0.3683  0.4701  0.1420
   22MOL   O39612198   6.302   5.283   6.846  0.5477  0.0560 -0.1292
   22MOL   C39712199   6.136   5.205   7.001  0.2140 -0.4936 -0.8085
   22MOL   C39812200   6.106   5.179   7.133  0.0693  0.7668 -0.2285
   22MOL   C39912201   6.002   5.087   7.154  0.3647  0.5445 -0.4142
   22MOL   C40012202   5.956   5.066   7.286  0.2136 -0.0124 -0.0182
   22MOL   C40112203   5.856   4.976   7.311 -0.2909 -0.0517 -0.4125
   22MOL   C40212204   5.786   4.910   7.203  0.5238 -0.1468  0.3021
   22MOL   C40312205   5.682   4.807   7.228 -0.4440 -0.1640 -0.1981
   22MOL   O40412206   5.645   4.808   7.353  0.0264 -0.6724  0.1117
   22MOL   C40512207   5.565   4.710   7.408  0.3635  0.1037  0.0023
   22MOL   C40612208   5.612   4.680   7.550 -1.0884  0.4308 -0.4961
   22MOL   O40712209   5.642   4.729   7.141 -0.6169  0.0727  0.2188
   22MOL   C40812210   5.826   4.937   7.070  0.2694 -0.7489  0.2420
   22MOL   C40912211   5.940   5.017   7.046  0.0932 -0.3037 -0.2808
   22MOL   C41012212   5.975   5.046   6.915  0.6207 -0.0391  0.6339
   22MOL   C41112213   6.073   5.142   6.892  0.4080 -0.3757  0.3231
   22MOL   H41212214   6.168   5.219   7.212 -0.7695  0.8241  0.4120
   22MOL   H41312215   6.006   5.122   7.364 -0.0725  1.2447 -0.7171
   22MOL   H41412216   5.835   4.948   7.413  1.7602  1.9028  0.5915
   22MOL   H41512217   5.575   4.622   7.345 -0.2501  0.2636 -0.3198
   22MOL   H41612218   5.464   4.749   7.411  0.7501  1.5004 -3.2005
   22MOL   H41712219   5.623   4.774   7.605 -1.5232  0.7463 -0.9396
   22MOL   H41812220   5.540   4.616   7.601 -0.3801 -2.3191 -2.8505
   22MOL   H41912221   5.780   4.884   6.988 -0.3113 -0.4086  0.3413
   22MOL   H42012222   5.928   5.004   6.828  0.6096  0.5092  0.3684
   22MOL   H42112223   6.092   5.162   6.788  3.2770  0.6302  1.0114
   22MOL   O42212224   5.631   4.413   7.539  0.6475 -0.1049  0.2978
   22MOL   C42312225   5.741   4.479   7.534 -0.3437 -0.6648 -0.4149
   22MOL   O42412226   5.739   4.613   7.546  0.8284  0.2385 -0.3468
   22MOL   C42512227   5.877   4.428   7.499 -0.2346 -0.6507 -0.4155
   22MOL   C42612228   5.904   4.292   7.501  1.2168  0.4561  0.6153
   22MOL   C42712229   6.032   4.238   7.456 -0.0052  0.0734  0.2275
   22MOL   C42812230   6.052   4.101   7.459 -0.2743  0.6060  0.0201
   22MOL   C42912231   6.180   4.059   7.414  0.4820  0.3982  1.0936
   22MOL   C43012232   6.282   4.142   7.364 -0.2001  0.4293  0.4570
   22MOL   C43112233   6.404   4.082   7.298  0.4169 -0.0513  0.3006
   22MOL   O43212234   6.492   4.175   7.251 -0.2814 -0.3735  0.6538
   22MOL   C43312235   6.594   4.130   7.156  0.5697 -0.3539 -0.5942
   22MOL   C43412236   6.550   4.169   7.021  0.3039  0.1086  0.1116
   22MOL   O43512237   6.409   3.959   7.281  0.4373  0.5979 -0.7295
   22MOL   C43612238   6.257   4.279   7.364  0.2950 -0.0188  0.2477
   22MOL   C43712239   6.137   4.329   7.416  0.1413  0.4352  0.0237
   22MOL   C43812240   6.108   4.467   7.424  0.1892 -0.2540 -0.3970
   22MOL   C43912241   5.977   4.520   7.453  0.5560  0.2426  0.2220
   22MOL   H44012242   5.831   4.222   7.538  0.7148  1.2156  1.0798
   22MOL   H44112243   5.978   4.031   7.494 -0.5857  1.5480  1.2446
   22MOL   H44212244   6.209   3.955   7.404  0.9720  0.3660  2.7231
   22MOL   H44312245   6.611   4.025   7.180 -3.4638 -1.4122 -1.9870
   22MOL   H44412246   6.682   4.186   7.187  1.8091 -2.2005 -0.6830
   22MOL   H44512247   6.547   4.278   7.021  0.1898  0.1451 -2.7428
   22MOL   H44612248   6.615   4.128   6.944 -0.6849  1.4038 -1.4633
   22MOL   H44712249   6.324   4.352   7.321 -1.1644  0.9397 -0.4294
   22MOL   H44812250   6.180   4.542   7.396 -1.2120  0.7869 -1.3028
   22MOL   H44912251   5.961   4.626   7.463  0.5095  0.0359  2.4768
   22MOL   O45012252   6.428   4.170   6.775 -0.6740 -0.0754  0.2666
   22MOL   C45112253   6.368   4.125   6.874 -0.0870  0.4491  0.2704
   22MOL   O45212254   6.419   4.115   7.000  0.2581  0.1061 -0.1178
   22MOL   C45312255   6.233   4.060   6.869  0.3141 -0.3454  0.4392
   22MOL   C45412256   6.149   4.066   6.983 -0.9286  0.2140 -0.1374
   22MOL   C45512257   6.021   4.022   6.980  0.2705 -0.0120  0.6703
   22MOL   C45612258   5.946   4.029   7.095 -0.7564  0.5067  0.2382
   22MOL   C45712259   5.808   3.995   7.081  0.3381  0.4859  0.6152
   22MOL   C45812260   5.752   3.949   6.958  0.0722 -0.3900  0.1385
   22MOL   C45912261   5.614   3.916   6.949  0.6902  0.2143  0.4089
   22MOL   O46012262   5.550   3.921   7.071  0.5952 -0.5901  0.2243
   22MOL   C46112263   5.411   3.916   7.076 -0.4471  0.2435 -0.5011
   22MOL   C46212264   5.367   3.777   7.045  0.1389 -0.3436 -0.5812
   22MOL   O46312265   5.552   3.894   6.844 -1.1075 -0.1697  0.1920
   22MOL   C46412266   5.835   3.937   6.844  0.1702 -0.4901 -0.5075
   22MOL   C46512267   5.972   3.972   6.858 -0.1846  0.7457  0.3957
   22MOL   C46612268   6.054   3.960   6.743 -0.1597  0.2210 -1.0569
   22MOL   C46712269   6.187   4.002   6.747 -0.1800 -0.0207 -0.0483
   22MOL   H46812270   6.181   4.117   7.072 -2.7120  2.5079 -0.7474
   22MOL   H46912271   5.973   4.070   7.191 -1.4642  1.1127  0.1885
   22MOL   H47012272   5.745   4.004   7.168  0.7200 -0.3505  0.9850
   22MOL   H47112273   5.364   3.970   6.994 -2.5642  0.0669  0.5491
   22MOL   H47212274   5.369   3.943   7.173 -1.9976 -1.0860 -0.7679
   22MOL   H47312275   5.260   3.767   7.027  0.2480  1.2014 -2.2700
   22MOL   H47412276   5.410   3.742   6.951 -0.7614 -0.6903 -0.8741
   22MOL   H47512277   5.807   3.906   6.744 -2.5348  0.6369 -0.1562
   22MOL   H47612278   6.013   3.923   6.650  1.9199 -2.4964 -0.9628
   22MOL   H47712279   6.246   3.998   6.656  0.6165  1.5501  0.3786
   22MOL   O47812280   5.270   3.735   7.313  0.3622  0.3044 -0.1933
   22MOL   C47912281   5.355   3.663   7.265  0.0802  0.5902 -0.1573
   22MOL   O48012282   5.400   3.681   7.144 -1.2356 -0.1001 -0.2005
   22MOL   C48112283   5.417   3.547   7.340  0.6850 -0.3206  0.2191
   22MOL   C48212284   5.348   3.509   7.461  0.3200 -0.6503  0.2143
   22MOL   C48312285   5.394   3.396   7.530  0.3920  0.2082 -0.3152
   22MOL   C48412286   5.336   3.362   7.653  0.7621 -1.0880  0.1893
   22MOL   C48512287   5.384   3.255   7.720 -0.2925 -0.1902  0.5694
   22MOL   C48612288   5.499   3.183   7.679 -0.0759  1.1833 -0.3578
   22MOL   C48712289   5.550   3.082   7.773  0.1488 -0.1881  0.0974
   22MOL   O48812290   5.632   2.999   7.714  0.1740  0.2240  0.1264
   22MOL   C48912291   5.708   2.905   7.801  0.1528 -0.3388  0.0816
   22MOL   C49012292   5.624   2.778   7.836  0.6290 -0.5552 -0.1825
   22MOL   O49112293   5.520   3.076   7.889  0.0265  0.1489 -0.4133
   22MOL   C49212294   5.557   3.214   7.557 -0.5226  0.0192 -0.0069
   22MOL   C49312295   5.500   3.316   7.479  0.1600  0.4708  0.1678
   22MOL   C49412296   5.564   3.357   7.363 -0.6960  0.1930  0.5253
   22MOL   C49512297   5.525   3.470   7.292 -0.4566  0.4625 -0.2919
   22MOL   H49612298   5.265   3.566   7.499 -0.4171 -1.4164 -0.2078
   22MOL   H49712299   5.255   3.419   7.696  1.6139  0.7976 -0.6245
   22MOL   H49812300   5.333   3.211   7.804 -0.7371  1.4482  1.1939
   22MOL   H49912301   5.737   2.958   7.891  3.5819 -0.8583 -0.6466
   22MOL   H50012302   5.801   2.884   7.748  0.4176  0.7920  0.0737
   22MOL   H50112303   5.518   2.801   7.850  0.6548  0.4918 -1.5415
   22MOL   H50212304   5.613   2.708   7.753 -1.3771 -0.2190 -0.2321
   22MOL   H50312305   5.642   3.163   7.513 -0.5315  0.1152 -0.1376
   22MOL   H50412306   5.656   3.305   7.344 -1.9772 -1.7228 -0.5952
   22MOL   H50512307   5.582   3.502   7.206  0.8182 -1.7701 -0.3273
   22MOL   O50612308   5.804   2.577   7.840  0.6890  0.0264  0.0921
   22MOL   C50712309   5.747   2.604   7.947 -0.2735  0.1089 -0.5093
   22MOL   O50812310   5.665   2.713   7.960 -0.1043  0.0113 -0.0428
   22MOL   C50912311   5.763   2.519   8.068 -0.0961 -0.0405  0.3181
   22MOL   C51012312   5.850   2.409   8.066 -0.6388 -0.0866 -0.3490
   22MOL   C51112313   5.851   2.330   8.182  0.2992 -0.2403  0.3656
   22MOL   C51212314   5.925   2.206   8.184 -0.0480 -0.0858  0.3434
   22MOL   C51312315   5.920   2.126   0.047  0.0691  0.0623 -0.0132
   22MOL   C51412316   5.840   2.156   0.162 -0.2446 -0.0072  0.1027
   22MOL   C51512317   5.834   2.052   0.278 -0.0370  0.7802 -0.5296
   22MOL   O51612318   5.764   2.099   0.382  0.1690  0.2523  0.7025
   22MOL   C51712319   5.723   2.015   0.486 -0.2605 -0.0234 -0.2932
   22MOL   C51812320   5.695   2.087   0.626 -0.7252 -0.0477  0.3573
   22MOL   O51912321   5.903   1.948   0.273 -0.3541  0.1383 -0.6600
   22MOL   C52012322   5.765   2.276   0.164  0.1336 -0.2382 -0.1997
   22MOL   C52112323   5.773   2.363   0.051 -0.0391  0.2326  0.2834
   22MOL   C52212324   5.710   2.489   0.052 -0.6344 -0.1125 -0.5738
   22MOL   C52312325   5.702   2.567   8.186  0.7319  0.4326  0.5888
   22MOL   H52412326   5.911   2.401   7.977  0.7452 -2.9299  0.7566
   22MOL   H52512327   5.980   2.178   8.096  0.3107  0.6316  0.3353
   22MOL   H52612328   5.961   2.027   0.040 -3.0990 -1.1178 -3.2484
   22MOL   H52712329   5.808   1.953   0.516 -1.3178 -0.6043  1.5554
   22MOL   H52812330   5.638   1.951   0.460 -1.1915 -0.2991  3.2239
   22MOL   H52912331   5.660   2.023   0.706 -1.0027  1.2239  1.2804
   22MOL   H53012332   5.788   2.133   0.659  0.1117  1.1413 -3.3252
   22MOL   H53112333   5.710   2.307   0.252  1.9651  1.1253  0.5020
   22MOL   H53212334   5.643   2.511   0.134 -0.8065  2.2137 -1.3170
   22MOL   H53312335   5.652   2.662   8.179 -2.0119 -1.0455 -0.7733
   22MOL   O53412336   5.741   2.346   0.586  0.1046  0.5016 -0.2973
   22MOL   C53512337   5.626   2.301   0.576  0.1182 -0.2731  0.0378
   22MOL   O53612338   5.594   2.184   0.611 -0.4156  0.4685 -0.1277
   22MOL   C53712339   5.519   2.373   0.497 -0.0462 -0.3313 -0.5489
   22MOL   C53812340   5.547   2.491   0.426 -0.9748 -0.0770  0.2879
   22MOL   C53912341   5.446   2.553   0.349  0.0439  0.3785 -0.1073
   22MOL   C54012342   5.487   2.661   0.274 -0.2576  0.3705 -0.2664
   22MOL   C54112343   5.396   2.732   0.189 -0.2972  0.0460 -0.4998
   22MOL   C54212344   5.273   2.670   0.159 -0.9857  0.4359  0.6182
   22MOL   C54312345   5.179   2.726   0.059 -0.1130 -0.0413 -0.8633
   22MOL   O54412346   5.233   2.814   8.224 -0.5090 -0.1676 -0.4586
   22MOL   C54512347   5.164   2.871   8.120  0.0754  0.1748 -0.0463
   22MOL   C54612348   5.256   2.938   8.014  0.1205  0.5153  0.4565
   22MOL   O54712349   5.056   2.716   0.059  0.5476 -0.7507  0.2013
   22MOL   C54812350   5.235   2.553   0.235 -0.3161  0.9699 -0.5333
   22MOL   C54912351   5.324   2.494   0.329 -1.0118  0.2006  0.4012
   22MOL   C55012352   5.294   2.373   0.405  0.0143  0.8881 -0.5019
   22MOL   C55112353   5.388   2.314   0.493  0.4483  0.2262 -0.0981
   22MOL   H55212354   5.651   2.516   0.407 -0.6854 -0.1118  1.8169
   22MOL   H55312355   5.590   2.694   0.269  0.4570 -1.6310  0.5368
   22MOL   H55412356   5.434   2.821   0.140 -0.2128  2.3744  3.5158
   22MOL   H55512357   5.107   2.957   8.155 -0.2972 -0.5697  1.2094
   22MOL   H55612358   5.107   2.790   8.073  0.6165  0.9937 -2.1705
   22MOL   H55712359   5.299   3.031   8.051 -0.8933  0.9876  0.4849
   22MOL   H55812360   5.188   2.958   7.931  1.3023 -2.0088 -1.1992
   22MOL   H55912361   5.140   2.507   0.212  0.0227  0.8282 -1.7016
   22MOL   H56012362   5.199   2.321   0.402  0.3224  0.2833  0.1434
   22MOL   H56112363   5.358   2.223   0.542 -1.1958  1.4468  1.2435
   22MOL   H56212364   5.334   2.870   7.981 -0.4314  0.6091 -1.1018
   23MOL     O112365   7.680   3.946   0.401  0.2563 -0.1287 -0.0200
   23MOL     C212366   7.593   3.943   0.489 -0.9721 -0.9039  0.2906
   23MOL     O312367   7.466   3.922   0.465  0.6303  0.0976  0.5861
   23MOL     C412368   7.638   3.945   0.632  0.9372  0.0342  0.0690
   23MOL     C512369   7.769   3.907   0.669  0.1132  0.2435  0.1051
   23MOL     C612370   7.815   3.896   0.799  0.1038 -0.0825  0.1144
   23MOL     C712371   7.948   3.864   0.829  0.0271 -0.1703 -0.5255
   23MOL     C812372   7.986   3.857   0.968  0.1409 -0.1131  0.5599
   23MOL     C912373   7.894   3.883   1.067  0.2495  0.3028 -0.2018
   23MOL    C1012374   7.933   3.880   1.206 -0.4985 -0.5694 -0.7518
   23MOL    O1112375   7.852   3.938   1.302 -0.6751 -0.3099  0.2630
   23MOL    C1212376   7.873   3.907   1.439  0.1500 -0.2850 -0.6929
   23MOL    C1312377   7.755   3.946   1.526  0.0431 -0.2012 -0.2848
   23MOL    O1412378   8.036   3.822   1.237 -0.1466  0.4809 -0.4131
   23MOL    C1512379   7.761   3.911   1.036  0.1408  0.0484  0.5928
   23MOL    C1612380   7.719   3.917   0.899  0.5027 -0.1512  0.1461
   23MOL    C1712381   7.586   3.955   0.866 -0.0032  0.1828 -0.1808
   23MOL    C1812382   7.547   3.980   0.733  0.1889  0.4418  0.1905
   23MOL    H1912383   7.836   3.896   0.585  1.4688 -1.2341  1.3657
   23MOL    H2012384   8.024   3.843   0.755  0.7621 -0.4911  0.3137
   23MOL    H2112385   8.087   3.826   0.992  0.6280  0.9110 -0.1331
   23MOL    H2212386   7.873   3.798   1.447 -1.3605 -0.2921 -0.5304
   23MOL    H2312387   7.967   3.953   1.468 -0.2998  0.3783 -0.2638
   23MOL    H2412388   7.658   3.907   1.496  0.1361  0.3714 -1.3730
   23MOL    H2512389   7.754   3.912   1.630  1.7910 -2.0995 -0.8616
   23MOL    H2612390   7.696   3.929   1.120 -1.5511  0.0749 -0.6944
   23MOL    H2712391   7.523   3.980   0.950  1.4498  1.8274  0.4666
   23MOL    H2812392   7.446   4.006   0.706 -0.5849 -0.9135  1.6119
   23MOL    H2912393   7.455   3.852   0.404  1.0667  1.4099 -1.0297
   23MOL    O3012394   7.585   4.112   1.416  0.1705  0.1567 -0.3617
   23MOL    C3112395   7.686   4.158   1.475 -0.0662 -0.2137  1.0401
   23MOL    O3212396   7.774   4.088   1.530 -0.0476 -0.0600  0.2424
   23MOL    C3312397   7.711   4.305   1.462  0.2919 -0.1714  0.3571
   23MOL    C3412398   7.834   4.359   1.502  0.2202  0.3984  0.0265
   23MOL    C3512399   7.861   4.496   1.491 -0.2535  0.0877  0.1991
   23MOL    C3612400   7.988   4.543   1.531  0.0874 -0.1259 -0.2486
   23MOL    C3712401   8.017   4.677   1.525  0.4453  0.0191  0.6898
   23MOL    C3812402   7.919   4.768   1.476  0.1855  0.3951 -0.1954
   23MOL    C3912403   7.944   4.905   1.461  0.2112 -0.1369 -0.0939
   23MOL    O4012404   8.060   4.947   1.454  0.3330  0.4246 -0.1132
   23MOL    C4112405   8.096   5.083   1.413  0.3056 -0.0133  0.1066
   23MOL    C4212406   8.233   5.082   1.335  0.0631  0.3645 -0.1047
   23MOL    O4312407   7.842   4.980   1.445 -0.2612 -0.2379  0.1717
   23MOL    C4412408   7.793   4.723   1.426 -0.1552  0.2218 -1.1350
   23MOL    C4512409   7.764   4.589   1.441 -0.2684  0.1896  0.0442
   23MOL    C4612410   7.637   4.537   1.411 -0.3641  0.0710 -0.2875
   23MOL    C4712411   7.612   4.394   1.415 -0.1907  0.2806 -0.3565
   23MOL    H4812412   7.911   4.289   1.530  0.0299  0.4050  0.5607
   23MOL    H4912413   8.075   4.480   1.547 -1.2268 -2.1810 -0.9782
   23MOL    H5012414   8.109   4.704   1.575 -1.2883  0.5850  3.6860
   23MOL    H5112415   8.106   5.158   1.491 -1.2655 -1.4312  1.7216
   23MOL    H5212416   8.011   5.123   1.357  0.4937  1.7059  1.0423
   23MOL    H5312417   0.002   5.189   1.328  0.0302  0.5208  1.7841
   23MOL    H5412418   0.058   5.044   1.406 -0.0048 -1.7634 -1.1523
   23MOL    H5512419   7.727   4.785   1.367  0.0649  0.0933 -1.5208
   23MOL    H5612420   7.564   4.607   1.372  1.5429  1.7041 -0.9855
   23MOL    H5712421   7.511   4.370   1.385  0.1433 -0.0354 -1.2303
   23MOL    O5812422   0.174   5.097   1.144  0.1985  0.0861 -0.1646
   23MOL    C5912423   0.070   5.026   1.120  0.1531  0.0469 -0.2196
   23MOL    O6012424   8.227   5.008   1.212  0.2889 -0.1535  0.0374
   23MOL    C6112425   0.030   4.965   0.992  0.3130 -0.0067  0.1286
   23MOL    C6212426   8.148   4.931   0.959  0.2530  0.6181 -0.5148
   23MOL    C6312427   8.118   4.863   0.843  0.3061  0.6781 -0.3220
   23MOL    C6412428   7.985   4.834   0.810 -0.2383  0.1020  0.0512
   23MOL    C6512429   7.960   4.773   0.684  0.1582  0.3957 -0.3762
   23MOL    C6612430   8.063   4.744   0.595  0.0774 -0.4874  0.2058
   23MOL    C6712431   8.033   4.678   0.470 -0.4271 -0.9200  0.4081
   23MOL    O6812432   7.913   4.720   0.426 -0.3114  0.3379  0.1105
   23MOL    C6912433   7.856   4.671   0.307 -0.5405  0.0482  0.0526
   23MOL    C7012434   7.899   4.763   0.191  0.0360 -0.6096 -0.3463
   23MOL    O7112435   8.114   4.605   0.410 -0.2046 -0.4429  0.4250
   23MOL    C7212436   8.198   4.771   0.637 -0.3842  1.0422  0.2190
   23MOL    C7312437   8.218   4.830   0.757 -0.7525 -0.3365 -0.0403
   23MOL    C7412438   0.105   4.860   0.784 -0.0832 -0.0667  0.1143
   23MOL    C7512439   0.134   4.929   0.902  0.4821 -0.4743 -0.2856
   23MOL    H7612440   8.064   4.958   1.022 -0.1897  1.3744 -1.4224
   23MOL    H7712441   7.903   4.866   0.871  0.4704  1.5279  0.2847
   23MOL    H7812442   7.856   4.752   0.665  0.1831 -1.5124  1.4313
   23MOL    H7912443   7.747   4.676   0.308 -0.4329  3.6102  0.9996
   23MOL    H8012444   7.893   4.571   0.283  1.2603  0.8042 -0.4600
   23MOL    H8112445   7.993   4.809   0.220 -0.4311  0.9796 -1.3064
   23MOL    H8212446   7.921   4.703   0.102 -1.5001 -1.8817  0.1187
   23MOL    H8312447   0.031   4.748   0.571 -0.6378  1.6010 -0.2970
   23MOL    H8412448   0.183   4.837   0.712 -0.1376 -1.9049  0.6409
   23MOL    H8512449   0.239   4.944   0.922  0.0021  1.8434  0.6799
   23MOL    O8612450   7.940   5.035   0.185  0.2740  0.0637 -0.4010
   23MOL    C8712451   7.827   4.991   0.167 -0.2707  0.6553  0.1156
   23MOL    O8812452   7.791   4.860   0.173  0.0823  0.1377  0.2435
   23MOL    C8912453   7.702   5.074   0.148  0.1105 -0.6313 -0.7971
   23MOL    C9012454   7.723   5.209   0.111  0.2132  0.1652 -0.1713
   23MOL    C9112455   7.614   5.296   0.084 -0.7830  0.8433  0.5162
   23MOL    C9212456   7.645   5.430   0.056 -0.0871 -0.2698 -0.0455
   23MOL    C9312457   7.539   5.516   0.034  0.0304 -1.2686 -0.0521
   23MOL    C9412458   7.403   5.473   0.033 -0.7074 -0.4207 -0.5474
   23MOL    C9512459   7.284   5.561   0.013  0.4181 -0.7125  0.3849
   23MOL    O9612460   7.308   5.689   0.033 -0.0265  0.6745  0.1380
   23MOL    C9712461   7.208   5.792   0.039 -0.2380 -0.2809  0.1939
   23MOL    C9812462   7.185   5.857   8.150  0.0661  0.8208  0.3411
   23MOL    O9912463   7.170   5.520   8.225  0.1405  0.1852 -0.4167
   23MOL   C10012464   7.370   5.335   0.059 -0.1003 -0.3155 -0.1648
   23MOL   C10112465   7.480   5.244   0.092 -0.1025  0.3164 -0.3564
   23MOL   C10212466   7.455   5.105   0.125 -0.6903 -0.6538  0.1189
   23MOL   C10312467   7.569   5.021   0.151 -0.1783  0.0109 -0.6314
   23MOL   H10412468   7.828   5.236   0.108  0.6759 -1.3312  1.4644
   23MOL   H10512469   7.744   5.473   0.054  0.4057 -1.4095 -0.3316
   23MOL   H10612470   7.561   5.622   0.025  1.9942 -1.5385  1.1259
   23MOL   H10712471   7.254   5.870   0.100 -0.4460  1.4112 -1.7549
   23MOL   H10812472   7.116   5.762   0.088 -0.8983  1.4870  0.0621
   23MOL   H10912473   7.129   5.950   8.164 -2.2451 -0.6685  1.4423
   23MOL   H11012474   7.278   5.885   8.102 -0.7622  0.5960 -1.4334
   23MOL   H11112475   7.274   5.287   0.061  1.1382 -2.8124  1.5038
   23MOL   H11212476   7.352   5.073   0.121 -1.7608  2.4108  1.1502
   23MOL   H11312477   7.549   4.916   0.163  0.3150  0.1713  1.9164
   23MOL   O11412478   6.916   5.802   8.160  0.3404 -0.6047 -0.7867
   23MOL   C11512479   6.987   5.764   8.066 -0.0321  0.7819 -0.3163
   23MOL   O11612480   7.120   5.786   8.054  0.8012 -0.2997 -0.2448
   23MOL   C11712481   6.928   5.701   7.941 -0.4843 -0.0797 -0.9829
   23MOL   C11812482   6.789   5.663   7.944  0.0718 -0.4962  0.1262
   23MOL   C11912483   6.718   5.615   7.829  0.1935 -0.9031  0.0035
   23MOL   C12012484   6.584   5.606   7.832  0.8117  0.5824  0.9742
   23MOL   C12112485   6.520   5.556   7.713 -0.5072  0.4003 -0.5219
   23MOL   C12212486   6.595   5.521   7.598  0.8959 -0.6043  0.4260
   23MOL   C12312487   6.534   5.481   7.473  0.0656 -0.1478 -0.2409
   23MOL   O12412488   6.395   5.487   7.475 -0.9254  0.3450  0.1337
   23MOL   C12512489   6.322   5.473   7.359 -0.3844  1.1469  0.7815
   23MOL   C12612490   6.196   5.565   7.363  0.0915 -0.2297 -0.8864
   23MOL   O12712491   6.594   5.439   7.375  0.0192 -0.4348 -0.3855
   23MOL   C12812492   6.730   5.534   7.599 -0.0501 -0.1866  0.3062
   23MOL   C12912493   6.794   5.583   7.714  0.0520 -0.2678 -0.4717
   23MOL   C13012494   6.932   5.613   7.714  0.5291 -0.1715  0.0853
   23MOL   C13112495   6.999   5.674   7.822  0.5973 -0.0330  0.4704
   23MOL   H13212496   6.726   5.679   8.030  0.3590 -0.5045  0.3352
   23MOL   H13312497   6.529   5.639   7.919  1.6032  0.3928  1.5484
   23MOL   H13412498   6.413   5.549   7.721 -0.5514  0.5224 -1.0498
   23MOL   H13512499   6.294   5.369   7.338 -0.0867  0.8567  1.7801
   23MOL   H13612500   6.376   5.508   7.271  1.5175  0.8486  1.7995
   23MOL   H13712501   6.222   5.670   7.359  2.1924 -0.6897  0.2965
   23MOL   H13812502   6.136   5.540   7.275 -0.6970 -2.0231  0.1312
   23MOL   H13912503   6.792   5.494   7.520 -2.1001 -1.2832 -0.7840
   23MOL   H14012504   6.981   5.595   7.620  0.4221  1.1118 -0.2360
   23MOL   H14112505   7.099   5.713   7.809  0.5662  0.1381  0.7474
   23MOL   O14212506   6.017   5.366   7.377 -0.2065  0.6149  0.3544
   23MOL   C14312507   6.041   5.432   7.477  1.0939 -0.2360 -0.6912
   23MOL   O14412508   6.118   5.539   7.477  0.1047 -0.2819 -0.1650
   23MOL   C14512509   6.001   5.391   7.608 -0.0313  0.4704  0.0432
   23MOL   C14612510   5.867   5.339   7.634 -0.7428 -0.3501  0.0861
   23MOL   C14712511   5.829   5.295   7.766  0.4903  0.2140 -0.8374
   23MOL   C14812512   5.705   5.230   7.786 -0.3565 -0.5761 -0.1103
   23MOL   C14912513   5.663   5.198   7.917  0.3594  0.0929 -0.5153
   23MOL   C15012514   5.750   5.230   8.031  0.5441 -0.1222  0.0871
   23MOL   C15112515   5.706   5.207   8.172  0.4016  0.2910 -0.6101
   23MOL   O15212516   5.591   5.134   8.181  0.0335  0.4869  0.0755
   23MOL   C15312517   5.573   5.045   0.040  0.2177  0.8234  0.4914
   23MOL   C15412518   5.649   4.909   0.020 -0.3552  0.8295 -0.0844
   23MOL   O15512519   5.784   5.223   0.019 -0.1749 -0.5653  0.7094
   23MOL   C15612520   5.880   5.286   8.012  0.0601 -0.1221 -0.4024
   23MOL   C15712521   5.912   5.324   7.878 -0.3771 -0.7934  0.2607
   23MOL   C15812522   6.038   5.392   7.856 -0.5023 -0.1648  1.0561
   23MOL   C15912523   6.083   5.411   7.718  0.6902 -0.3185  0.0847
   23MOL   H16012524   5.796   5.328   7.554  0.2519 -2.0008 -0.6129
   23MOL   H16112525   5.650   5.217   7.694 -0.1482  0.1846 -0.3449
   23MOL   H16212526   5.561   5.164   7.931 -1.4442  4.4704 -2.1540
   23MOL   H16312527   5.467   5.020   0.041  0.7338 -1.6118 -0.9034
   23MOL   H16412528   5.597   5.089   0.136  0.4305  0.6772  0.5057
   23MOL   H16512529   5.718   4.908   8.185 -0.4960  0.2224 -0.1906
   23MOL   H16612530   5.713   4.888   0.106  2.1991  2.6826 -1.4649
   23MOL   H16712531   5.941   5.320   8.095 -1.6991 -0.9879  1.2823
   23MOL   H16812532   6.115   5.418   7.927  2.0870  2.7508 -2.6330
   23MOL   H16912533   6.183   5.449   7.699  0.6853 -0.7983 -0.9728
   23MOL   O17012534   5.506   4.905   8.024 -0.4821 -0.2516 -0.6877
   23MOL   C17112535   5.483   4.820   8.113  0.1855 -0.4082  0.1467
   23MOL   O17212536   5.548   4.813   8.232 -0.1656 -0.4217  0.2886
   23MOL   C17312537   5.407   4.698   8.099 -0.2263  0.8550  0.1617
   23MOL   C17412538   5.400   4.642   7.971 -0.3094 -0.4780 -0.0410
   23MOL   C17512539   5.324   4.524   7.954  0.0786  1.0148  1.0195
   23MOL   C17612540   5.308   4.454   7.832 -0.1637  0.0079 -0.3711
   23MOL   C17712541   5.224   4.337   7.822 -1.0245 -0.5739 -0.2207
   23MOL   C17812542   5.154   4.283   7.934 -0.6162 -0.2411 -1.0368
   23MOL   C17912543   5.073   4.162   7.925 -0.0328  0.1542  0.5838
   23MOL   O18012544   5.090   4.096   7.805 -0.2826 -0.7841 -0.6463
   23MOL   C18112545   5.012   3.981   7.772  0.4394 -0.0709 -0.2653
   23MOL   C18212546   5.023   3.953   7.625 -0.2077  0.4709 -0.2013
   23MOL   O18312547   4.990   4.124   8.006 -0.4555  0.3104  0.0599
   23MOL   C18412548   5.169   4.350   8.054 -0.7951 -0.2261  0.3495
   23MOL   C18512549   5.247   4.468   8.066  0.3846  0.6595  0.1545
   23MOL   C18612550   5.259   4.527   8.190  0.2085  0.1504  0.2316
   23MOL   C18712551   5.340   4.642   8.211  0.2246 -0.0924 -0.0406
   23MOL   H18812552   5.449   4.690   7.888  0.7195 -0.5293  0.5221
   23MOL   H18912553   5.371   4.488   7.751  1.8842 -0.2473  1.0598
   23MOL   H19012554   5.221   4.282   7.729 -0.7370 -1.4477  0.2807
   23MOL   H19112555   4.905   4.000   7.783  0.5494  1.4536 -1.7297
   23MOL   H19212556   5.026   3.892   7.834  0.7865 -1.0042 -1.6676
   23MOL   H19312557   4.980   3.855   7.607  0.3780 -0.0582  1.2345
   23MOL   H19412558   4.973   4.031   7.567 -1.4184  0.0997  0.3271
   23MOL   H19512559   5.122   4.306   8.141 -1.1375 -0.7686 -0.0978
   23MOL   H19612560   5.203   4.482   0.022 -1.9639  3.0971  0.4309
   23MOL   H19712561   5.348   4.662   0.068 -1.7599 -1.8258  0.4461
   23MOL   O19812562   5.190   4.119   7.491 -0.4827 -0.0389 -0.4676
   23MOL   C19912563   5.240   4.018   7.543  0.6463  0.1530  0.3446
   23MOL   O20012564   5.156   3.924   7.600  0.0249  0.2097 -0.0595
   23MOL   C20112565   5.377   3.979   7.524 -0.1637 -0.4376  0.1950
   23MOL   C20212566   5.430   3.849   7.569 -0.2714 -0.5954  0.3675
   23MOL   C20312567   5.562   3.823   7.533  0.4224  0.9866  0.4353
   23MOL   C20412568   5.624   3.696   7.560 -0.5405  0.4358 -0.1434
   23MOL   C20512569   5.754   3.660   7.524  0.3468  0.9345 -0.2989
   23MOL   C20612570   5.831   3.757   7.458  0.2189 -0.1940 -0.3488
   23MOL   C20712571   5.961   3.712   7.398 -0.2017 -0.2630  0.1204
   23MOL   O20812572   5.996   3.791   7.298 -0.1313 -0.0530  0.6444
   23MOL   C20912573   6.120   3.782   7.234  0.6285  0.1623 -0.0288
   23MOL   C21012574   6.119   3.692   7.108  0.4911  0.0428  0.8043
   23MOL   O21112575   6.034   3.630   7.447 -0.7569 -0.0957  0.4954
   23MOL   C21212576   5.778   3.882   7.420  0.3371  0.3969  0.1793
   23MOL   C21312577   5.644   3.916   7.461 -0.6507  0.5668  0.3465
   23MOL   C21412578   5.593   4.036   7.418  0.3982  0.2123  0.4072
   23MOL   C21512579   5.458   4.066   7.444 -0.0296 -0.3389 -1.1493
   23MOL   H21612580   5.361   3.784   7.620 -3.7055  2.2435 -0.4182
   23MOL   H21712581   5.564   3.624   7.614 -2.1913 -0.9137 -3.6396
   23MOL   H21812582   5.797   3.566   7.555  2.3940  1.5611 -1.1773
   23MOL   H21912583   6.198   3.747   7.302  0.5258  3.0272  1.6195
   23MOL   H22012584   6.144   3.887   7.222 -1.2258  0.5957 -0.0228
   23MOL   H22112585   6.098   3.588   7.131  0.1965 -0.0938 -0.0683
   23MOL   H22212586   6.037   3.739   7.054 -0.3539  0.0922  2.1038
   23MOL   H22312587   5.837   3.941   7.351  0.7459  0.6403  0.7298
   23MOL   H22412588   5.646   4.108   7.357 -0.6557  1.1138  0.5451
   23MOL   H22512589   5.419   4.158   7.403  0.1197 -0.2683 -1.1343
   23MOL   O22612590   6.368   3.595   7.192  0.3051  0.2025 -0.0211
   23MOL   C22712591   6.365   3.663   7.092 -0.2040 -0.4141 -0.0907
   23MOL   O22812592   6.244   3.718   7.047  0.0976  0.5399 -0.4939
   23MOL   C22912593   6.479   3.698   7.012 -0.2249  0.2176  0.2720
   23MOL   C23012594   6.611   3.641   7.045  0.5308 -0.4641 -0.6997
   23MOL   C23112595   6.728   3.692   6.978 -0.2469 -0.9578  0.0017
   23MOL   C23212596   6.854   3.636   7.009 -0.5189  0.1662  0.2634
   23MOL   C23312597   6.968   3.686   6.939  0.7470  0.6726 -0.7550
   23MOL   C23412598   6.959   3.789   6.852  0.2026  0.1272  0.2341
   23MOL   C23512599   7.080   3.847   6.784  0.0689 -0.0121  0.4915
   23MOL   O23612600   7.056   3.956   6.707  0.2913  0.1771  0.1542
   23MOL   C23712601   7.162   4.026   6.644 -0.0095 -1.2487 -0.0946
   23MOL   C23812602   7.114   4.156   6.578  0.1759  0.0590 -0.9364
   23MOL   O23912603   7.192   3.801   6.802 -0.0577 -0.4901 -0.3601
   23MOL   C24012604   6.835   3.842   6.820 -0.3101 -0.5488 -0.0144
   23MOL   C24112605   6.714   3.795   6.882 -0.1781  0.4479 -0.6716
   23MOL   C24212606   6.589   3.846   6.843  0.2177 -0.1866 -0.4889
   23MOL   C24312607   6.473   3.793   6.906  0.1388 -0.5399  0.4982
   23MOL   H24412608   6.620   3.567   7.123  0.4469 -1.1230 -1.3194
   23MOL   H24512609   6.873   3.559   7.082  0.0791 -1.7919 -1.8976
   23MOL   H24612610   7.063   3.640   6.964 -0.0544 -0.7746 -0.3311
   23MOL   H24712611   7.218   3.978   6.564 -2.1399 -0.1946 -2.2733
   23MOL   H24812612   7.243   4.044   6.714 -0.1745  1.6687 -0.5750
   23MOL   H24912613   7.201   4.218   6.557  1.5790 -1.2925  0.7158
   23MOL   H25012614   7.051   4.132   6.493 -1.6336 -1.1064  0.6961
   23MOL   H25112615   6.826   3.927   6.754  1.4070 -1.0233 -0.8842
   23MOL   H25212616   6.577   3.918   6.764 -0.0674  2.0385  1.4977
   23MOL   H25312617   6.380   3.822   6.858  1.6934  1.1365 -1.5845
   23MOL   O25412618   7.185   4.255   6.830  0.1800 -0.4530  0.6331
   23MOL   C25512619   7.073   4.275   6.786  0.2538  0.0961  0.3100
   23MOL   O25612620   7.030   4.227   6.664  0.8137 -0.1065  0.1763
   23MOL   C25712621   6.962   4.338   6.862  0.2301  0.3405  0.5114
   23MOL   C25812622   6.972   4.363   7.004 -0.2142 -0.4646  0.2690
   23MOL   C25912623   6.869   4.422   7.080  0.4697  0.1997 -0.4573
   23MOL   C26012624   6.888   4.441   7.216 -0.3998  0.0155 -0.0504
   23MOL   C26112625   6.785   4.506   7.290  0.0412 -0.0668 -0.2399
   23MOL   C26212626   6.660   4.545   7.226 -0.4754  0.0057 -0.3510
   23MOL   C26312627   6.549   4.602   7.314 -0.0921 -0.1763 -0.4709
   23MOL   O26412628   6.601   4.638   7.435 -0.6331 -0.4699  0.2918
   23MOL   C26512629   6.527   4.699   7.542  0.4001  0.0795  0.5856
   23MOL   C26612630   6.542   4.625   7.665  0.4274 -0.2808 -0.2187
   23MOL   O26712631   6.435   4.619   7.274  0.2325 -1.1174 -0.4115
   23MOL   C26812632   6.641   4.512   7.088 -0.1823  0.3070 -0.3972
   23MOL   C26912633   6.746   4.451   7.016  0.0656  0.1596  0.4269
   23MOL   C27012634   6.737   4.429   6.882 -0.4710 -0.3765  0.5622
   23MOL   C27112635   6.840   4.374   6.798 -0.1206  0.3861 -1.3282
   23MOL   H27212636   7.063   4.328   7.050  1.7615  1.7663 -1.8011
   23MOL   H27312637   6.979   4.401   7.258 -0.7914 -1.6673 -0.7594
   23MOL   H27412638   6.805   4.535   7.392 -0.6419  0.0292 -0.1307
   23MOL   H27512639   6.421   4.692   7.517  0.5862 -1.1106  0.0895
   23MOL   H27612640   6.575   4.796   7.542  0.5591  0.0027  1.2948
   23MOL   H27712641   6.461   4.655   7.732  1.1758  0.2091  0.4862
   23MOL   H27812642   6.528   4.520   7.642  1.9919 -0.1086 -2.1267
   23MOL   H27912643   6.553   4.548   7.037 -0.4488  0.0613 -0.1177
   23MOL   H28012644   6.644   4.455   6.833 -0.0728  1.7007  0.8555
   23MOL   H28112645   6.826   4.362   6.691 -0.9126 -0.5410 -1.1197
   23MOL   O28212646   6.638   4.858   7.799  0.4080 -0.7244 -0.3275
   23MOL   C28312647   6.694   4.749   7.807  0.3333 -0.1811 -0.0030
   23MOL   O28412648   6.668   4.637   7.729  0.2522 -0.2285  0.4765
   23MOL   C28512649   6.797   4.720   7.910  0.4576 -0.4982 -0.3745
   23MOL   C28612650   6.862   4.826   7.981  1.0325 -0.5498 -0.4394
   23MOL   C28712651   6.967   4.799   8.070  0.3315 -0.2958 -0.2853
   23MOL   C28812652   7.036   4.895   8.142  0.1778  0.1805 -0.5911
   23MOL   C28912653   7.123   4.861   8.248 -0.4969 -0.1372 -0.1340
   23MOL   C29012654   7.141   4.729   0.038  0.3429  0.4887 -0.3912
   23MOL   C29112655   7.217   4.687   0.168 -0.2801  0.1241  0.2916
   23MOL   O29212656   7.280   4.797   0.232  0.4000  0.0420  0.1897
   23MOL   C29312657   7.349   4.782   0.357  0.5653  1.1474  0.0852
   23MOL   C29412658   7.398   4.915   0.414  0.2398 -0.6287  0.4362
   23MOL   O29512659   7.219   4.574   0.213  0.1389 -0.1357  0.4985
   23MOL   C29612660   7.071   4.632   8.218  0.1264  0.4927  0.0294
   23MOL   C29712661   6.988   4.664   8.111  0.2282  0.1402  0.1319
   23MOL   C29812662   6.933   4.563   8.032  0.0871 -0.2438 -0.3252
   23MOL   C29912663   6.834   4.589   7.934  0.7117 -0.1358 -0.2209
   23MOL   H30012664   6.833   4.928   7.961  2.6266  0.1631  0.7058
   23MOL   H30112665   7.018   4.999   8.119  1.7292  1.3235  3.0302
   23MOL   H30212666   7.166   4.948   0.047  0.8706  0.1324 -1.8224
   23MOL   H30312667   7.425   4.705   0.345  0.6525  1.3750 -0.8728
   23MOL   H30412668   7.269   4.749   0.423  1.5729 -2.2789 -0.3552
   23MOL   H30512669   7.494   4.943   0.372 -0.0310  3.0056  2.0003
   23MOL   H30612670   7.332   4.993   0.376  0.0253 -0.3047  1.4487
   23MOL   H30712671   7.070   4.529   0.003  1.9100 -0.0670 -1.5116
   23MOL   H30812672   6.962   4.460   8.047  2.7501  0.0081 -3.3284
   23MOL   H30912673   6.781   4.515   7.876  0.2346 -0.1123  0.1698
   23MOL   O31012674   7.597   4.804   0.548 -0.1265  0.2415 -0.1451
   23MOL   C31112675   7.504   4.850   0.612  0.5906 -0.2145 -0.0949
   23MOL   O31212676   7.401   4.914   0.557 -0.0714 -0.0299 -0.0876
   23MOL   C31312677   7.497   4.843   0.759 -0.2321  0.0951 -0.7141
   23MOL   C31412678   7.425   4.945   0.827 -0.0776  0.0128  0.1962
   23MOL   C31512679   7.406   4.951   0.965 -0.8657 -0.1330  0.0061
   23MOL   C31612680   7.332   5.045   1.036  0.0678  0.1009  0.0235
   23MOL   C31712681   7.308   5.039   1.174 -0.6708  0.2382 -0.2627
   23MOL   C31812682   7.379   4.943   1.247 -0.2083 -0.3629 -0.2608
   23MOL   C31912683   7.384   4.945   1.398 -0.2703  0.8826  0.2400
   23MOL   O32012684   7.449   4.836   1.448 -0.5536 -0.4920 -0.3095
   23MOL   C32112685   7.449   4.821   1.588  0.2047 -0.0385  0.3589
   23MOL   C32212686   7.326   4.743   1.632 -0.0709  0.0185  0.5814
   23MOL   O32312687   7.341   5.029   1.469  0.4123  0.3741  0.1694
   23MOL   C32412688   7.448   4.838   1.180 -0.2184 -0.0545  0.6216
   23MOL   C32512689   7.467   4.851   1.039 -1.1359  0.0824  0.0700
   23MOL   C32612690   7.544   4.749   0.976 -0.1087  0.3387  0.8551
   23MOL   C32712691   7.555   4.743   0.837  0.6145  0.0309 -0.0493
   23MOL   H32812692   7.380   5.023   0.767  1.2368  0.5552 -0.0936
   23MOL   H32912693   7.287   5.127   0.982 -0.3073  0.8305  1.4432
   23MOL   H33012694   7.248   5.110   1.229 -2.4506 -0.9407 -0.6290
   23MOL   H33112695   7.453   4.918   1.636  0.0373  1.5473 -2.7041
   23MOL   H33212696   7.542   4.788   1.633 -0.3225  0.0937  1.5555
   23MOL   H33312697   7.339   4.738   1.740  0.7169 -2.9409  0.3900
   23MOL   H33412698   7.240   4.801   1.598  1.0425  0.3278 -1.7383
   23MOL   H33512699   7.497   4.752   1.224  0.5505  0.1433  0.1701
   23MOL   H33612700   7.592   4.670   1.032 -2.4548 -2.0003 -0.3175
   23MOL   H33712701   7.612   4.666   0.786 -0.9948  0.3365 -2.3902
   23MOL   O33812702   7.129   4.582   1.704  0.4025 -0.2516 -0.1105
   23MOL   C33912703   7.207   4.546   1.618  0.5911  0.1003 -0.5637
   23MOL   O34012704   7.311   4.616   1.571  0.3561 -0.1657 -0.2454
   23MOL   C34112705   7.206   4.413   1.559  0.3527  0.1494  0.4221
   23MOL   C34212706   7.258   4.379   1.433  0.0489  0.4218 -0.5853
   23MOL   C34312707   7.264   4.240   1.396 -0.5675  0.5847  0.0343
   23MOL   C34412708   7.331   4.205   1.280  0.0997  0.4624  0.1408
   23MOL   C34512709   7.339   4.072   1.240 -0.2478 -0.3567  0.1820
   23MOL   C34612710   7.290   3.967   1.320  0.5291 -0.0579 -0.6570
   23MOL   C34712711   7.293   3.830   1.261 -0.5099 -0.0929  0.1548
   23MOL   O34812712   7.237   3.740   1.340 -0.0309  0.8508 -0.1386
   23MOL   C34912713   7.254   3.595   1.307 -0.3026 -0.0815  0.3188
   23MOL   C35012714   7.398   3.551   1.334  0.3426 -0.1788 -0.1809
   23MOL   O35112715   7.350   3.801   1.155  0.1995 -0.8280 -0.3346
   23MOL   C35212716   7.219   4.003   1.442  0.3589  0.2472  0.0393
   23MOL   C35312717   7.214   4.139   1.476 -0.0742 -0.2144  0.0883
   23MOL   C35412718   7.151   4.183   1.595  0.2334 -0.0856  0.2002
   23MOL   C35512719   7.153   4.310   1.637 -0.6560 -0.8788 -0.2368
   23MOL   H35612720   7.299   4.458   1.372 -0.5818  1.6896  0.5939
   23MOL   H35712721   7.383   4.284   1.228  1.6419 -0.6681 -0.0656
   23MOL   H35812722   7.391   4.053   1.146 -3.0586  2.0054 -1.9494
   23MOL   H35912723   7.206   3.562   1.215 -2.3463  0.0079  1.3187
   23MOL   H36012724   7.196   3.540   1.381  1.2234 -0.0396  1.5715
   23MOL   H36112725   7.442   3.625   1.401 -2.1038 -0.7274  2.0864
   23MOL   H36212726   7.406   3.446   1.362 -2.4743 -0.8806 -1.8268
   23MOL   H36312727   7.179   3.924   1.504 -1.7341  1.1430 -0.1469
   23MOL   H36412728   7.116   4.111   1.667 -0.9591 -1.6120 -1.8476
   23MOL   H36512729   7.115   4.323   1.738 -0.3816 -2.8984  0.1520
   23MOL   O36612730   7.669   3.622   1.299 -0.0955  0.1635 -0.6638
   23MOL   C36712731   7.604   3.579   1.202 -0.2132 -0.6694  0.0482
   23MOL   O36812732   7.473   3.539   1.213 -0.0549 -0.6086  0.1899
   23MOL   C36912733   7.655   3.561   1.059  0.5442 -0.1040 -0.2820
   23MOL   C37012734   7.574   3.577   0.946 -0.1313 -0.4040 -0.0759
   23MOL   C37112735   7.626   3.586   0.818  0.0118 -0.8526  0.1691
   23MOL   C37212736   7.539   3.611   0.704  0.0107  0.3407 -0.6944
   23MOL   C37312737   7.604   3.625   0.585  0.5887  0.2281  0.1392
   23MOL   C37412738   7.745   3.604   0.566  0.1553 -0.3603 -0.5232
   23MOL   C37512739   7.809   3.625   0.435 -1.1166 -0.3733  0.4255
   23MOL   O37612740   7.715   3.657   0.341  0.0677 -0.0963 -0.0919
   23MOL   C37712741   7.766   3.681   0.212 -0.3970  0.3005  0.4247
   23MOL   C37812742   7.804   3.561   0.126 -0.4687  0.8336  0.0044
   23MOL   O37912743   7.933   3.618   0.413 -0.3701  0.2486 -0.1989
   23MOL   C38012744   7.825   3.573   0.673  0.7908  0.0918  0.0504
   23MOL   C38112745   7.769   3.567   0.801  0.7187 -0.0666  0.0738
   23MOL   C38212746   7.853   3.549   0.913 -0.2988  0.1367  0.3144
   23MOL   C38312747   7.797   3.550   1.040  0.4586  0.0854  0.1797
   23MOL   H38412748   7.469   3.591   0.970 -0.2667 -0.5803 -0.5536
   23MOL   H38512749   7.431   3.609   0.706  0.0067  0.0489 -1.3707
   23MOL   H38612750   7.535   3.631   0.501  0.8970 -0.4054 -0.1636
   23MOL   H38712751   7.848   3.753   0.217 -0.6467  0.7018 -1.1408
   23MOL   H38812752   7.684   3.735   0.165  1.0064 -0.5719 -3.1981
   23MOL   H38912753   7.858   3.593   0.037  0.4970  1.6611  0.8814
   23MOL   H39012754   7.863   3.492   0.186  1.9778  1.6989 -1.3391
   23MOL   H39112755   7.931   3.562   0.651  1.0062  2.7573 -0.3735
   23MOL   H39212756   7.960   3.538   0.901 -0.2916  2.1953 -1.8297
   23MOL   H39312757   7.866   3.541   1.123  2.3883  0.5282 -1.3370
   23MOL   O39412758   7.804   3.335   8.220  0.4684 -0.2643 -0.2037
   23MOL   C39512759   7.700   3.392   8.248  0.8311  0.2918 -0.0460
   23MOL   O39612760   7.683   3.498   0.079 -0.3144 -0.3342  0.0053
   23MOL   C39712761   7.573   3.337   8.192  0.0370 -0.1496  0.6126
   23MOL   C39812762   7.581   3.224   8.110  0.2849 -0.4051 -0.6428
   23MOL   C39912763   7.469   3.171   8.044  0.0390 -0.4363 -0.3042
   23MOL   C40012764   7.480   3.059   7.954 -0.2357  0.8780  0.5764
   23MOL   C40112765   7.357   3.016   7.898  0.1470  0.1412  0.1248
   23MOL   C40212766   7.236   3.081   7.924  0.6476 -0.1060 -0.2986
   23MOL   C40312767   7.111   3.033   7.863  0.2915 -0.4702  0.7637
   23MOL   O40412768   7.018   3.119   7.858 -0.1482 -0.2001 -0.3254
   23MOL   C40512769   6.883   3.105   7.813 -0.9643  0.1408 -0.5177
   23MOL   C40612770   6.793   3.166   7.914 -0.2909  0.2676 -0.4003
   23MOL   O40712771   7.098   2.919   7.815  0.0378 -1.2187  0.2782
   23MOL   C40812772   7.230   3.191   8.007 -0.0903 -0.8528 -0.8004
   23MOL   C40912773   7.343   3.237   8.070  0.3549  0.1862 -0.1698
   23MOL   C41012774   7.335   3.355   8.150 -0.2963  0.5899 -0.0303
   23MOL   C41112775   7.445   3.403   8.219  0.1266  0.3157 -0.1286
   23MOL   H41212776   7.673   3.180   8.075 -0.0955 -2.2476  0.5898
   23MOL   H41312777   7.574   3.009   7.937 -0.6085  1.3780 -3.2805
   23MOL   H41412778   7.360   2.935   7.826  0.8418  0.3763 -0.1158
   23MOL   H41512779   6.840   3.007   7.793 -0.1799 -0.5122  0.9216
   23MOL   H41612780   6.867   3.166   7.724 -1.2650  3.3053  1.6302
   23MOL   H41712781   6.837   3.263   7.939  1.7372 -0.5780 -0.6182
   23MOL   H41812782   6.695   3.176   7.866 -1.1576  0.6996  1.4049
   23MOL   H41912783   7.145   3.257   8.017  0.7147 -0.0697  1.1152
   23MOL   H42012784   7.243   3.410   8.164  0.0097  0.4498  2.8397
   23MOL   H42112785   7.431   3.490   0.032 -1.8305 -0.4546  0.5552
   23MOL   O42212786   6.642   3.145   8.154  0.3576 -0.3988  0.4932
   23MOL   C42312787   6.723   3.055   8.123 -0.1140  0.5944  0.2583
   23MOL   O42412788   6.795   3.062   8.014 -0.3579 -0.4878  0.0297
   23MOL   C42512789   6.771   2.940   8.212 -0.2404  0.0342  0.0452
   23MOL   C42612790   6.688   2.902   0.069 -0.5328 -0.0045 -0.5045
   23MOL   C42712791   6.742   2.817   0.168  1.0869 -0.2263 -0.8260
   23MOL   C42812792   6.671   2.786   0.287 -0.7038 -0.0033  0.5709
   23MOL   C42912793   6.715   2.687   0.380 -0.0388 -0.2067 -0.6159
   23MOL   C43012794   6.847   2.640   0.363  0.8416 -0.2523  0.5200
   23MOL   C43112795   6.901   2.553   0.465 -0.1995  1.5024 -0.5043
   23MOL   O43212796   7.032   2.554   0.464  0.1632  0.0248 -0.2072
   23MOL   C43312797   7.109   2.456   0.529 -0.0340 -0.1314 -0.6748
   23MOL   C43412798   7.126   2.343   0.431  0.2666 -0.5950  0.2481
   23MOL   O43512799   6.838   2.474   0.543 -0.0004  0.8473  0.0481
   23MOL   C43612800   6.923   2.683   0.252  0.3081  0.0205  0.3638
   23MOL   C43712801   6.871   2.758   0.147  0.2682  0.5475  0.6359
   23MOL   C43812802   6.952   2.786   0.035  0.4225 -0.1573  0.0668
   23MOL   C43912803   6.906   2.884   8.195 -0.1625 -0.4712  0.0563
   23MOL   H44012804   6.585   2.934   0.078 -0.1456  1.3274 -0.6662
   23MOL   H44112805   6.574   2.835   0.297  0.3793  2.2357  0.5194
   23MOL   H44212806   6.651   2.658   0.462  0.1525  0.3439 -0.2750
   23MOL   H44312807   7.055   2.421   0.617  0.4631 -0.8306 -0.6430
   23MOL   H44412808   7.203   2.496   0.564  0.3096 -0.7160 -0.9250
   23MOL   H44512809   7.130   2.245   0.480 -0.5036  0.1053  1.7201
   23MOL   H44612810   7.032   2.330   0.377  0.7508 -0.4221 -0.6531
   23MOL   H44712811   7.023   2.645   0.234  0.1423  0.6139 -1.9627
   23MOL   H44812812   7.042   2.734   0.005 -0.0530 -1.7067  1.3002
   23MOL   H44912813   6.968   2.898   8.108  0.0249 -2.0457 -0.0798
   23MOL   O45012814   7.133   2.450   0.172 -1.0481  0.3361 -0.4606
   23MOL   C45112815   7.237   2.401   0.220 -0.6113  0.7764  0.9913
   23MOL   O45212816   7.240   2.359   0.346 -0.4695  0.8740 -0.0017
   23MOL   C45312817   7.361   2.377   0.143 -0.0580  0.2276  0.0663
   23MOL   C45412818   7.397   2.471   0.036  0.1401  0.8471 -0.1541
   23MOL   C45512819   7.522   2.463   8.222  0.1229  0.2426 -0.2241
   23MOL   C45612820   7.556   2.553   8.120  1.0221 -0.2903 -0.1086
   23MOL   C45712821   7.679   2.546   8.063 -0.3522  0.2394  0.9675
   23MOL   C45812822   7.775   2.450   8.108  0.5582 -0.6012 -0.5123
   23MOL   C45912823   7.915   2.455   8.049  0.4233 -0.3424 -0.1083
   23MOL   O46012824   8.005   2.380   8.119 -0.4127  0.8016 -0.6097
   23MOL   C46112825   8.137   2.371   8.069  0.1446  0.3692 -0.0967
   23MOL   C46212826   8.234   2.487   8.125  0.7578 -0.0097 -0.3930
   23MOL   O46312827   7.944   2.527   7.955 -0.0513  0.1343  0.4574
   23MOL   C46412828   7.739   2.347   8.205 -0.2086 -0.6751 -0.3368
   23MOL   C46512829   7.613   2.357   0.016  0.5421 -1.2871  0.1792
   23MOL   C46612830   7.578   2.283   0.129 -0.0751  0.0486  0.1474
   23MOL   C46712831   7.449   2.282   0.186 -0.0469 -0.1562  0.2758
   23MOL   H46812832   7.334   2.551   8.247  1.8759  1.5391 -1.6073
   23MOL   H46912833   7.481   2.622   8.085  0.2834 -0.1835  1.6343
   23MOL   H47012834   7.707   2.606   7.977  1.9403 -1.0774  0.7426
   23MOL   H47112835   8.129   2.354   7.962  1.0309  0.9237 -0.2515
   23MOL   H47212836   8.165   2.273   8.108  1.7139  0.8865  0.0726
   23MOL   H47312837   8.199   2.588   8.103  1.4719  0.2521 -0.3236
   23MOL   H47412838   8.243   2.481   8.234  2.1889 -0.7453 -0.5481
   23MOL   H47512839   7.809   2.265   8.217  1.0625  0.2948 -1.0138
   23MOL   H47612840   7.646   2.205   0.161 -1.3406 -1.1051  0.0664
   23MOL   H47712841   7.428   2.212   0.264  0.1340  1.8147  2.1347
   23MOL   O47812842   0.247   2.524   8.231 -0.8622  0.6533  0.1193
   23MOL   C47912843   0.233   2.480   8.118  1.0498  0.0395  0.3406
   23MOL   O48012844   0.110   2.452   8.066  0.5141 -0.4509  0.4090
   23MOL   C48112845   0.347   2.450   8.021 -0.2411  0.0496 -0.2148
   23MOL   C48212846   0.312   2.389   7.896 -0.0398  0.4603 -0.9263
   23MOL   C48312847   0.405   2.357   7.795 -0.3311  0.4640 -0.0438
   23MOL   C48412848   0.369   2.290   7.676 -0.2599  0.0180  0.4734
   23MOL   C48512849   0.474   2.264   7.577 -0.0406 -0.1138 -0.5890
   23MOL   C48612850   0.608   2.304   7.599 -0.2301  0.4278 -0.7408
   23MOL   C48712851   0.708   2.264   7.507  0.5154 -0.1824  0.1159
   23MOL   O48812852   0.823   2.329   7.525 -0.0765 -0.5036 -0.7393
   23MOL   C48912853   0.942   2.290   7.451 -0.4152  0.2858  0.8751
   23MOL   C49012854   1.081   2.327   7.516  0.0405 -0.1497  0.0628
   23MOL   O49112855   0.687   2.181   7.421 -0.1624  0.1715  0.6805
   23MOL   C49212856   0.640   2.366   7.723 -0.6777  0.2033  0.5942
   23MOL   C49312857   0.541   2.391   7.824 -0.5848  0.5712  0.1656
   23MOL   C49412858   0.572   2.452   7.946 -0.1240  0.2318  0.1484
   23MOL   C49512859   0.482   2.483   8.049 -0.0478  0.0586  0.4000
   23MOL   H49612860   0.209   2.358   7.884 -0.2454 -0.4251  2.6695
   23MOL   H49712861   0.269   2.258   7.650 -0.6533  1.5775  0.0140
   23MOL   H49812862   0.454   2.207   7.487 -0.1849  0.7620 -1.1191
   23MOL   H49912863   0.938   2.331   7.350  0.8995 -0.9630  0.2994
   23MOL   H50012864   0.937   2.183   7.430 -0.2498  0.5450 -0.4921
   23MOL   H50112865   1.146   2.343   7.430  0.8875  1.7086  1.0209
   23MOL   H50212866   1.087   2.424   7.564  0.1559  0.4006 -1.0499
   23MOL   H50312867   0.741   2.396   7.747 -0.6354  1.3212 -0.8977
   23MOL   H50412868   0.677   2.477   7.957  0.1057 -0.2080 -0.9729
   23MOL   H50512869   0.513   2.529   8.142 -1.3752  2.5457 -0.3566
   23MOL   O50612870   0.978   2.249   7.770  0.3461 -0.2838 -0.2589
   23MOL   C50712871   1.075   2.196   7.731 -0.6164  0.0914  0.0157
   23MOL   O50812872   1.128   2.223   7.605 -0.0384  0.3875  0.2220
   23MOL   C50912873   1.146   2.091   7.813  0.2685 -0.3157 -0.1862
   23MOL   C51012874   1.274   2.041   7.790  0.1238 -0.4051 -0.4968
   23MOL   C51112875   1.345   1.952   7.880  0.3160 -0.5073 -0.1478
   23MOL   C51212876   1.482   1.917   7.861 -0.1757 -0.4422 -0.2709
   23MOL   C51312877   1.543   1.839   7.959 -0.3617  0.1174 -0.0945
   23MOL   C51412878   1.472   1.792   8.077  0.4226  0.3145 -0.3459
   23MOL   C51512879   1.531   1.694   8.180 -0.1039 -0.4987  0.1235
   23MOL   O51612880   1.519   1.736   0.060 -1.1467  0.0393  0.3234
   23MOL   C51712881   1.565   1.659   0.173 -0.2348  0.2853 -0.0772
   23MOL   C51812882   1.601   1.762   0.287  0.0141  0.3540 -0.6069
   23MOL   O51912883   1.583   1.586   8.150  0.0067 -0.2859 -0.3135
   23MOL   C52012884   1.343   1.831   8.095 -0.6298  0.2981  0.1587
   23MOL   C52112885   1.277   1.911   7.998 -0.4810 -0.0324 -0.2825
   23MOL   C52212886   1.151   1.962   8.022 -0.2990 -0.0389  0.0661
   23MOL   C52312887   1.086   2.049   7.936  0.1507 -0.5000 -0.1807
   23MOL   H52412888   1.323   2.065   7.697  2.8721  0.1652  1.0105
   23MOL   H52512889   1.545   1.965   7.788  0.8233 -0.6940  0.4210
   23MOL   H52612890   1.647   1.813   7.951 -0.8636 -2.6161  1.3966
   23MOL   H52712891   1.658   1.603   0.160 -0.6475 -0.2447 -0.7710
   23MOL   H52812892   1.483   1.596   0.209  0.1937 -1.2621 -1.7450
   23MOL   H52912893   1.672   1.724   0.360 -0.1880  1.3977  0.1306
   23MOL   H53012894   1.661   1.841   0.242 -0.0455 -0.8386 -2.8412
   23MOL   H53112895   1.289   1.800   8.183  2.5779 -2.4592  1.2696
   23MOL   H53212896   1.109   1.928   8.115  0.7653 -3.5624 -0.6709
   23MOL   H53312897   0.993   2.088   7.973  0.7689 -2.1561  3.2985
   23MOL   O53412898   1.444   1.648   0.490  0.0495  0.2648  0.0593
   23MOL   C53512899   1.422   1.760   0.453 -0.2361 -0.1577 -0.8398
   23MOL   O53612900   1.491   1.823   0.356 -0.7088 -0.5667 -0.0734
   23MOL   C53712901   1.305   1.848   0.490 -0.0366 -0.0132  0.4586
   23MOL   C53812902   1.319   1.989   0.486  0.2042  0.6573 -0.4924
   23MOL   C53912903   1.203   2.070   0.498  1.1257 -0.1256 -0.0745
   23MOL   C54012904   1.211   2.212   0.488 -0.7327  0.4863  0.4546
   23MOL   C54112905   1.097   2.294   0.515 -0.0181  0.3491  0.4878
   23MOL   C54212906   0.968   2.234   0.524  0.4989  0.7754 -0.4523
   23MOL   C54312907   0.854   2.317   0.535  0.4913 -0.1224 -0.4605
   23MOL   O54412908   0.876   2.440   0.588  0.2073 -0.0253  0.1162
   23MOL   C54512909   0.780   2.544   0.588 -0.1585 -0.1059  0.1075
   23MOL   C54612910   0.830   2.668   0.509  0.2184  0.2225  0.2637
   23MOL   O54712911   0.735   2.273   0.519 -0.5028  0.1147 -0.2814
   23MOL   C54812912   0.956   2.095   0.519 -0.3812  0.2161 -0.4634
   23MOL   C54912913   1.070   2.010   0.515  0.4365  0.0483 -0.0540
   23MOL   C55012914   1.062   1.876   0.540  0.0987  0.0913 -0.2297
   23MOL   C55112915   1.177   1.794   0.528 -0.1284 -0.4071 -0.6148
   23MOL   H55212916   1.418   2.031   0.473  0.3982 -0.3099 -2.2018
   23MOL   H55312917   1.308   2.248   0.459  0.1019 -1.4215  0.7418
   23MOL   H55412918   1.109   2.400   0.504  1.4595  0.0916 -0.6002
   23MOL   H55512919   0.761   2.570   0.692  0.4949  0.3100  0.1220
   23MOL   H55612920   0.685   2.506   0.552 -1.3022  0.1226  2.7714
   23MOL   H55712921   0.917   2.711   0.559  0.2256 -1.3582  1.6410
   23MOL   H55812922   0.744   2.735   0.507 -0.7842 -1.0538  0.6184
   23MOL   H55912923   0.854   2.060   0.509 -0.9963  2.2724 -1.6781
   23MOL   H56012924   0.963   1.835   0.553 -0.4215  1.2958 -0.3676
   23MOL   H56112925   1.173   1.687   0.543  0.8946 -0.2858  0.6580
   23MOL   H56212926   0.855   2.649   0.405  0.6395  0.5588  0.3011
   24MOL     O112927   1.421   1.977   1.715  0.0084 -0.1330  0.2846
   24MOL     C212928   1.330   2.053   1.756 -0.0142 -0.6151 -0.3311
   24MOL     O312929   1.222   2.086   1.679  0.2327 -0.0542  0.5497
   24MOL     C412930   1.327   2.110   1.902 -0.2576 -0.9749 -0.3666
   24MOL     C512931   1.240   2.217   1.921  0.5693 -0.4175 -0.5972
   24MOL     C612932   1.243   2.292   2.043 -0.2433  0.2672  0.7824
   24MOL     C712933   1.165   2.407   2.060  0.2263 -0.0208  0.4408
   24MOL     C812934   1.182   2.495   2.169  0.4240  0.2928 -0.0159
   24MOL     C912935   1.277   2.462   2.268 -0.0254  0.9322 -0.3058
   24MOL    C1012936   1.323   2.564   2.367  0.6904 -0.2906  0.2164
   24MOL    O1112937   1.432   2.528   2.439  0.0454 -0.0725  0.1868
   24MOL    C1212938   1.456   2.602   2.553 -0.5456 -0.0429  0.7337
   24MOL    C1312939   1.540   2.736   2.525  0.7198  0.0281 -0.4228
   24MOL    O1412940   1.275   2.677   2.371 -0.2675 -0.5694  0.0760
   24MOL    C1512941   1.348   2.341   2.258 -0.1095  0.7237  0.5136
   24MOL    C1612942   1.338   2.260   2.144  0.8970  0.6987 -0.6212
   24MOL    C1712943   1.429   2.146   2.127 -0.0414 -0.4197  0.6895
   24MOL    C1812944   1.425   2.079   2.000 -0.0351  0.3692 -0.5340
   24MOL    H1912945   1.167   2.242   1.845  0.2081 -0.6335 -0.3272
   24MOL    H2012946   1.097   2.436   1.981  0.8243 -2.6009 -1.0872
   24MOL    H2112947   1.123   2.586   2.172  1.0022  0.6818 -0.4358
   24MOL    H2212948   1.368   2.624   2.613 -0.5276 -2.4443  1.7037
   24MOL    H2312949   1.525   2.548   2.618 -0.2946  0.6920  1.0868
   24MOL    H2412950   1.624   2.744   2.594  1.3741 -0.9376 -1.1000
   24MOL    H2512951   1.575   2.743   2.422  1.6748 -2.2486 -0.2786
   24MOL    H2612952   1.428   2.319   2.328 -1.7133 -1.5708  1.7342
   24MOL    H2712953   1.503   2.126   2.203  0.3771  1.7731  0.8744
   24MOL    H2812954   1.493   2.001   1.969  0.6586  1.6619 -2.3727
   24MOL    H2912955   1.236   2.057   1.590 -0.3277  0.7702  0.1890
   24MOL    O3012956   1.445   2.838   2.773  0.0742 -0.4304 -0.2027
   24MOL    C3112957   1.412   2.885   2.665  0.0271 -0.5806 -0.5727
   24MOL    O3212958   1.456   2.842   2.541  0.5098  0.3474 -0.5659
   24MOL    C3312959   1.311   2.995   2.662 -0.4301  0.1484  0.6325
   24MOL    C3412960   1.232   3.023   2.551 -0.2909  1.0970  0.3231
   24MOL    C3512961   1.127   3.113   2.554 -0.1924  0.1169  0.3214
   24MOL    C3612962   1.046   3.125   2.435 -0.3357  0.6503 -0.1540
   24MOL    C3712963   0.965   3.241   2.427 -0.6617  0.4796 -0.3915
   24MOL    C3812964   0.941   3.319   2.538 -0.2299 -0.1184 -0.5185
   24MOL    C3912965   0.831   3.428   2.536  0.2748  0.1990  0.1108
   24MOL    O4012966   0.799   3.476   2.663  0.3085  0.2528 -0.0707
   24MOL    C4112967   0.683   3.553   2.687 -0.4847 -0.1785 -0.1242
   24MOL    C4212968   0.731   3.703   2.674 -0.4590  0.1863 -0.0881
   24MOL    O4312969   0.781   3.476   2.432  0.1783  0.1720 -0.0997
   24MOL    C4412970   1.013   3.306   2.662 -0.0284  0.3191  0.6916
   24MOL    C4512971   1.116   3.204   2.667  0.1195 -0.0235 -0.3039
   24MOL    C4612972   1.205   3.189   2.772  0.5424  0.5944  0.0855
   24MOL    C4712973   1.298   3.077   2.779 -0.4418  0.2719  0.3134
   24MOL    H4812974   1.249   2.961   2.465  1.0351  1.6432  0.1817
   24MOL    H4912975   1.057   3.059   2.350  1.1124  0.1888  0.3781
   24MOL    H5012976   0.910   3.274   2.340 -0.9515 -0.5978 -0.6247
   24MOL    H5112977   0.656   3.532   2.790  3.1355  0.1944  0.9639
   24MOL    H5212978   0.600   3.534   2.619  0.3794  1.4278 -1.6696
   24MOL    H5312979   0.662   3.758   2.737  1.4851  2.0949  0.4364
   24MOL    H5412980   0.833   3.705   2.713  0.6302  0.2542 -2.8015
   24MOL    H5512981   0.999   3.375   2.744  1.1360  0.9865  0.3427
   24MOL    H5612982   1.214   3.260   2.853  0.2879  0.1343  0.5156
   24MOL    H5712983   1.364   3.071   2.864  0.5180  0.0167 -0.4305
   24MOL    O5812984   0.707   3.971   2.601 -0.4458 -0.6583  0.0045
   24MOL    C5912985   0.711   3.885   2.509 -0.6321  0.5526  0.1304
   24MOL    O6012986   0.729   3.749   2.539 -0.1935  0.0360  0.8311
   24MOL    C6112987   0.696   3.911   2.357  0.4325  0.6111 -1.0629
   24MOL    C6212988   0.657   4.037   2.309  0.4356  0.6790  0.2905
   24MOL    C6312989   0.644   4.062   2.171  0.4204 -0.3010 -0.0245
   24MOL    C6412990   0.634   4.197   2.130 -0.4097 -0.4608 -0.3690
   24MOL    C6512991   0.602   4.230   1.996 -0.5122 -0.2213  0.6161
   24MOL    C6612992   0.602   4.127   1.899  0.1481  0.0660  0.3548
   24MOL    C6712993   0.574   4.147   1.760  0.6133 -0.0811 -0.4962
   24MOL    O6812994   0.555   4.282   1.721 -0.4484  0.3236  0.1180
   24MOL    C6912995   0.492   4.304   1.598 -1.0094  0.0168  0.4420
   24MOL    C7012996   0.585   4.309   1.481  0.7685 -0.1365  0.0659
   24MOL    O7112997   0.580   4.051   1.681 -0.1775 -0.1068  0.3955
   24MOL    C7212998   0.628   3.995   1.939 -0.6550 -0.1285 -0.4597
   24MOL    C7312999   0.651   3.965   2.072  0.4714  0.1867  0.4530
   24MOL    C7413000   0.685   3.835   2.119 -0.6533 -0.2904  0.6676
   24MOL    C7513001   0.711   3.811   2.255  0.0769  0.3433 -0.2187
   24MOL    H7613002   0.636   4.120   2.375 -1.8513  2.1141 -2.1263
   24MOL    H7713003   0.628   4.280   2.199  2.7471  0.3451 -0.9837
   24MOL    H7813004   0.577   4.332   1.972 -0.3899 -0.3304  0.0207
   24MOL    H7913005   0.441   4.400   1.607 -2.0232 -0.2805 -1.8209
   24MOL    H8013006   0.413   4.234   1.572  0.7261 -2.6223  2.0330
   24MOL    H8113007   0.536   4.354   1.395  1.4727  0.7761  0.1205
   24MOL    H8213008   0.672   4.371   1.503 -0.7374  1.9562  0.2787
   24MOL    H8313009   0.616   3.918   1.864 -1.8270  0.9443 -1.3838
   24MOL    H8413010   0.713   3.752   2.056  0.7879  0.1606  0.6972
   24MOL    H8513011   0.740   3.712   2.286  0.4552  1.0860  1.9151
   24MOL    O8613012   0.442   4.144   1.317 -0.2947 -0.0762 -0.6697
   24MOL    C8713013   0.556   4.111   1.359  0.4555  0.9891 -0.8932
   24MOL    O8813014   0.632   4.184   1.442  0.3066 -0.3332  0.5730
   24MOL    C8913015   0.625   3.980   1.333  0.3539 -0.7839  0.1894
   24MOL    C9013016   0.579   3.898   1.226  0.5855 -0.1582  0.2613
   24MOL    C9113017   0.624   3.765   1.209 -0.4159  0.0396  0.2871
   24MOL    C9213018   0.581   3.692   1.096 -0.0234  0.1486 -0.2805
   24MOL    C9313019   0.638   3.562   1.077  0.8605  0.2281 -0.0662
   24MOL    C9413020   0.724   3.505   1.175 -0.1626 -0.3949 -0.1611
   24MOL    C9513021   0.771   3.368   1.153 -0.2288  0.3136  0.3688
   24MOL    O9613022   0.823   3.313   1.262  0.2940 -0.0951 -0.2981
   24MOL    C9713023   0.863   3.176   1.257  0.3987 -0.2791 -0.6173
   24MOL    C9813024   0.943   3.137   1.380  0.1349 -0.3347  0.0830
   24MOL    O9913025   0.756   3.308   1.044 -0.6714  0.3512 -0.3156
   24MOL   C10013026   0.773   3.592   1.277  0.3760  0.8741  0.2281
   24MOL   C10113027   0.723   3.719   1.300 -0.1071  0.4605 -0.7541
   24MOL   C10213028   0.774   3.800   1.398  0.3182 -0.1575 -0.0710
   24MOL   C10313029   0.731   3.932   1.411  0.3331  0.0194 -0.1330
   24MOL   H10413030   0.507   3.925   1.150  1.1595  0.5271 -0.0355
   24MOL   H10513031   0.509   3.716   1.018  1.2947 -1.1156 -1.9293
   24MOL   H10613032   0.604   3.501   0.994  0.3341  2.9015 -1.9095
   24MOL   H10713033   0.921   3.176   1.164 -1.9753  2.7575 -2.1692
   24MOL   H10813034   0.785   3.102   1.241  1.0766 -1.8167  2.6675
   24MOL   H10913035   1.044   3.179   1.385  0.1418 -0.3334 -0.0512
   24MOL   H11013036   0.891   3.153   1.474  0.9976 -1.0976  0.7043
   24MOL   H11113037   0.852   3.557   1.342  0.9434  1.9479  0.1184
   24MOL   H11213038   0.842   3.761   1.472  0.5720 -2.8273 -1.6464
   24MOL   H11313039   0.759   3.999   1.491 -4.5800  0.6167  1.2613
   24MOL   O11413040   1.107   2.964   1.236  0.1809 -0.5617 -0.6525
   24MOL   C11513041   1.017   2.917   1.300  0.2374  0.2221  0.3868
   24MOL   O11613042   0.946   2.991   1.380 -0.4768  0.2726  0.3938
   24MOL   C11713043   0.965   2.780   1.294 -0.5362 -0.3905 -0.2467
   24MOL   C11813044   1.024   2.690   1.207  0.0841  0.6799 -0.3391
   24MOL   C11913045   0.978   2.554   1.199  0.5873 -0.4312 -0.2030
   24MOL   C12013046   1.037   2.455   1.121 -0.3995 -0.1990 -0.5680
   24MOL   C12113047   0.996   2.322   1.119  0.0018 -0.1462 -1.1994
   24MOL   C12213048   0.906   2.272   1.213 -0.1135  0.1907 -0.4513
   24MOL   C12313049   0.866   2.131   1.205  0.0948 -0.2209 -0.1439
   24MOL   O12413050   0.740   2.106   1.254 -0.2438  0.1361 -0.2877
   24MOL   C12513051   0.687   1.972   1.242  0.3446 -0.0533 -0.3509
   24MOL   C12613052   0.670   1.912   1.382 -0.2559  0.4883 -0.3948
   24MOL   O12713053   0.938   2.040   1.161 -0.5848  0.6829  0.3248
   24MOL   C12813054   0.846   2.372   1.297 -0.2518 -0.0078 -0.5165
   24MOL   C12913055   0.877   2.506   1.287  0.5044 -0.2230  1.2171
   24MOL   C13013056   0.825   2.594   1.383 -0.2172 -0.1695 -0.6622
   24MOL   C13113057   0.866   2.733   1.378  0.4293 -0.4880 -0.0898
   24MOL   H13213058   1.109   2.718   1.146  1.1539  0.6055  1.0865
   24MOL   H13313059   1.120   2.477   1.055 -0.0241 -1.1381 -0.4231
   24MOL   H13413060   1.043   2.261   1.043  1.7604  0.1059 -0.3237
   24MOL   H13513061   0.742   1.917   1.165  0.6085  1.2024 -1.0762
   24MOL   H13613062   0.590   1.984   1.194  1.0055  0.0189 -1.6917
   24MOL   H13713063   0.621   1.979   1.453  0.3887 -1.2583  1.7566
   24MOL   H13813064   0.603   1.827   1.371  1.6706 -1.3653  1.6693
   24MOL   H13913065   0.777   2.327   1.367  1.5189  0.6165  1.6855
   24MOL   H14013066   0.755   2.556   1.456 -0.6877  1.3540 -0.3010
   24MOL   H14113067   0.814   2.800   1.445  0.9374 -0.5384  0.3493
   24MOL   O14213068   0.821   1.686   1.295  0.5257 -0.0244  0.3312
   24MOL   C14313069   0.861   1.759   1.389 -0.5066 -0.3039 -0.5050
   24MOL   O14413070   0.793   1.866   1.441 -0.2519  0.0489 -0.6700
   24MOL   C14513071   0.978   1.722   1.468  0.0058 -0.0332 -0.1683
   24MOL   C14613072   1.054   1.601   1.448 -0.8183 -0.1303  0.0320
   24MOL   C14713073   1.167   1.570   1.532  0.1537 -0.4165 -0.4270
   24MOL   C14813074   1.242   1.455   1.498  0.1192  0.0430  0.1759
   24MOL   C14913075   1.345   1.413   1.586 -0.3073 -0.5967  0.7036
   24MOL   C15013076   1.384   1.484   1.698  0.2511 -0.3152  0.7945
   24MOL   C15113077   1.493   1.446   1.786 -0.1282  0.2279 -0.4314
   24MOL   O15213078   1.574   1.353   1.731 -0.2357 -0.6113 -0.2405
   24MOL   C15313079   1.660   1.271   1.810 -0.6220 -0.1444  0.4506
   24MOL   C15413080   1.596   1.134   1.827  0.1689  0.1264  0.2355
   24MOL   O15513081   1.506   1.491   1.898 -0.6689 -0.1881 -0.2392
   24MOL   C15613082   1.312   1.601   1.730  0.0449  0.1332  0.3989
   24MOL   C15713083   1.198   1.646   1.648  0.0176  0.1368  0.5157
   24MOL   C15813084   1.130   1.769   1.670  0.1670  0.1151  0.9628
   24MOL   C15913085   1.030   1.802   1.577 -0.2479  0.0852  0.2314
   24MOL   H16013086   1.025   1.533   1.369 -0.0946  0.3583 -0.6700
   24MOL   H16113087   1.232   1.414   1.399  0.9960 -1.0373  0.5197
   24MOL   H16213088   1.397   1.325   1.548  1.0265  0.8837 -0.9967
   24MOL   H16313089   1.687   1.325   1.901 -0.5632  0.9792 -0.2372
   24MOL   H16413090   1.761   1.254   1.772 -0.7974 -2.8341  1.0948
   24MOL   H16513091   1.602   1.081   1.732 -2.9169 -1.3421  0.8021
   24MOL   H16613092   1.648   1.070   1.898  2.8918 -0.4822 -2.2152
   24MOL   H16713093   1.337   1.660   1.817 -0.7627  1.8460 -0.5059
   24MOL   H16813094   1.163   1.835   1.749  2.0350  0.9159 -0.4431
   24MOL   H16913095   0.973   1.893   1.591 -2.4048 -1.1396 -0.2895
   24MOL   O17013096   1.450   0.929   1.920  0.5390  0.2725  0.3675
   24MOL   C17113097   1.396   1.038   1.919 -0.3300 -0.0769 -0.0784
   24MOL   O17213098   1.456   1.145   1.867 -0.2213  0.3366 -0.1141
   24MOL   C17313099   1.264   1.062   1.971  0.3579  0.0629  0.0603
   24MOL   C17413100   1.217   1.194   2.007  0.1004 -0.1241 -0.2231
   24MOL   C17513101   1.075   1.227   2.023 -0.7132 -0.2915  0.2202
   24MOL   C17613102   1.027   1.360   2.036  0.4795  0.5838  0.0400
   24MOL   C17713103   0.893   1.387   2.042  0.1862 -0.1180  0.2401
   24MOL   C17813104   0.805   1.277   2.060  0.0495  0.0674  0.4634
   24MOL   C17913105   0.660   1.304   2.060  0.1026  0.5193 -0.0319
   24MOL   O18013106   0.584   1.196   2.087  0.1296  0.1802 -0.6345
   24MOL   C18113107   0.445   1.201   2.077 -0.5206  0.4992 -0.2293
   24MOL   C18213108   0.379   1.064   2.102  0.5957 -0.5198  0.1575
   24MOL   O18313109   0.611   1.406   2.024  0.6087 -0.2940 -0.5072
   24MOL   C18413110   0.852   1.141   2.051  0.0856  0.0016  0.2830
   24MOL   C18513111   0.986   1.119   2.023 -0.2872  0.2303  0.3381
   24MOL   C18613112   1.040   0.984   2.011 -0.0306 -0.0748  0.1237
   24MOL   C18713113   1.172   0.953   1.985 -0.3850  0.2132  0.1880
   24MOL   H18813114   1.291   1.272   2.013 -0.5977  0.4236  1.6597
   24MOL   H18913115   1.101   1.439   2.044 -0.2428  1.1475  1.3614
   24MOL   H19013116   0.854   1.487   2.051 -0.7179 -0.4575  0.1075
   24MOL   H19113117   0.416   1.233   1.977 -0.1390 -0.9694 -0.8197
   24MOL   H19213118   0.397   1.265   2.151 -0.9588  1.3055 -1.1992
   24MOL   H19313119   0.382   1.027   2.204  0.4060 -1.6496 -0.2377
   24MOL   H19413120   0.270   1.064   2.092  0.5485  2.5927  0.1727
   24MOL   H19513121   0.787   1.054   2.054  1.7841 -1.4574 -2.4347
   24MOL   H19613122   0.980   0.895   2.025  0.7674 -0.7179 -0.5047
   24MOL   H19713123   1.206   0.852   1.972 -3.5498 -0.7412 -1.3085
   24MOL   O19813124   0.289   1.005   1.832  0.4414 -0.3947  0.4725
   24MOL   C19913125   0.399   0.966   1.878  0.4959  0.2969  0.7514
   24MOL   O20013126   0.439   0.969   2.016 -0.0515 -0.4076  0.1670
   24MOL   C20113127   0.505   0.903   1.796  0.5071 -0.4173  0.0154
   24MOL   C20213128   0.473   0.869   1.659 -0.3364 -0.1102 -0.1528
   24MOL   C20313129   0.573   0.828   1.566  0.9586 -0.2969  0.0368
   24MOL   C20413130   0.534   0.804   1.432 -0.6774 -0.4806  0.2814
   24MOL   C20513131   0.633   0.748   1.347  0.2335  0.8601 -0.0295
   24MOL   C20613132   0.763   0.724   1.394 -0.4444  0.2477 -0.1847
   24MOL   C20713133   0.873   0.659   1.310 -0.2849  0.2526 -0.3782
   24MOL   O20813134   0.825   0.620   1.192  0.5983  0.8428  0.0017
   24MOL   C20913135   0.927   0.594   1.090  0.3108  0.7692 -0.9624
   24MOL   C21013136   1.010   0.726   1.061  0.1765 -0.3565  0.2747
   24MOL   O21113137   0.986   0.636   1.348  0.4025  0.0688  0.6055
   24MOL   C21213138   0.800   0.757   1.526 -0.2298 -0.2374 -0.3585
   24MOL   C21313139   0.705   0.816   1.607 -0.1354  0.0740  0.6916
   24MOL   C21413140   0.742   0.867   1.736  0.1368  0.5722  0.0392
   24MOL   C21513141   0.641   0.910   1.830  0.6679  0.0478 -0.5397
   24MOL   H21613142   0.369   0.878   1.630 -0.4936 -1.6583 -0.1166
   24MOL   H21713143   0.435   0.828   1.397 -0.5356  0.5028  0.5397
   24MOL   H21813144   0.609   0.714   1.247 -2.3858 -0.6083  1.0390
   24MOL   H21913145   0.878   0.553   1.002 -0.0930 -1.4324  0.2760
   24MOL   H22013146   0.997   0.512   1.108  2.1445  2.1396 -1.5892
   24MOL   H22113147   0.964   0.810   1.008  0.9625 -0.0862  0.0098
   24MOL   H22213148   1.042   0.782   1.148  0.7228 -1.5401  0.8304
   24MOL   H22313149   0.900   0.732   1.557 -0.5642 -0.6849  0.3570
   24MOL   H22413150   0.842   0.871   1.777 -0.1979  2.3535  0.7543
   24MOL   H22513151   0.673   0.949   1.925  2.1242  0.8611 -1.3438
   24MOL   O22613152   1.003   0.682   0.795  0.1838  0.6316 -0.0392
   24MOL   C22713153   1.112   0.677   0.853 -0.4603  0.2314 -0.8122
   24MOL   O22813154   1.126   0.699   0.985 -0.0297 -0.5446  0.6653
   24MOL   C22913155   1.243   0.646   0.787 -0.0261  0.6103  0.0017
   24MOL   C23013156   1.353   0.616   0.866 -0.7032 -0.5603 -0.5166
   24MOL   C23113157   1.473   0.566   0.808  0.1823 -0.6315  0.3083
   24MOL   C23213158   1.583   0.524   0.888  0.5072 -0.8402  0.2452
   24MOL   C23313159   1.698   0.471   0.832 -0.6590  0.1613 -0.1713
   24MOL   C23413160   1.707   0.461   0.691 -0.8225  0.3269  0.3007
   24MOL   C23513161   1.817   0.400   0.617 -0.0726 -0.2594  0.7596
   24MOL   O23613162   1.825   0.438   0.488 -0.3648 -0.1250  0.4900
   24MOL   C23713163   1.930   0.382   0.406  0.5314 -0.4547  0.1502
   24MOL   C23813164   1.879   0.257   0.333  0.5211  0.2774  0.0251
   24MOL   O23913165   1.897   0.320   0.669  0.4380  0.1871 -0.1105
   24MOL   C24013166   1.595   0.501   0.615 -0.2538  0.7639  0.2014
   24MOL   C24113167   1.482   0.560   0.671 -0.3756 -0.0016  0.7062
   24MOL   C24213168   1.373   0.591   0.591 -0.9487  0.4531 -0.8914
   24MOL   C24313169   1.255   0.643   0.647  0.7097  0.0475 -0.5985
   24MOL   H24413170   1.345   0.617   0.974  0.6970 -0.0582 -0.3961
   24MOL   H24513171   1.579   0.534   0.996 -0.6713  0.0215  0.1229
   24MOL   H24613172   1.781   0.428   0.887 -1.4824 -3.8760 -1.9181
   24MOL   H24713173   2.013   0.369   0.476  0.9297 -0.8888 -0.4007
   24MOL   H24813174   1.967   0.450   0.330  0.2867  0.5065  0.8860
   24MOL   H24913175   1.952   0.227   0.257  0.4069 -2.2330  0.8518
   24MOL   H25013176   1.857   0.176   0.402 -1.7458  0.2190 -0.7395
   24MOL   H25113177   1.592   0.479   0.509 -2.0652  0.7282  0.2396
   24MOL   H25213178   1.376   0.564   0.487  1.1009 -1.8180 -0.2706
   24MOL   H25313179   1.168   0.655   0.584  0.1437  0.8059  0.3131
   24MOL   O25413180   1.883   0.356   0.074 -0.7095  0.4561 -0.2160
   24MOL   C25513181   1.775   0.352   0.141 -0.9430  0.6411 -0.5725
   24MOL   O25613182   1.763   0.298   0.263 -0.5788  1.0563 -0.7752
   24MOL   C25713183   1.648   0.419   0.095 -0.3338  0.4248 -0.4621
   24MOL   C25813184   1.648   0.501   8.234 -0.4943  0.4194  0.4011
   24MOL   C25913185   1.542   0.587   8.203  0.2437  0.1178  1.0929
   24MOL   C26013186   1.554   0.682   8.104  0.1737 -0.7727  0.1651
   24MOL   C26113187   1.443   0.762   8.074 -1.0550 -0.5062  0.1657
   24MOL   C26213188   1.325   0.764   8.158 -0.4844 -0.6475  0.3246
   24MOL   C26313189   1.219   0.863   8.127 -0.2741  0.4475 -0.3334
   24MOL   O26413190   1.110   0.862   8.210 -0.3957 -0.1993  0.1055
   24MOL   C26513191   1.026   0.984   8.200 -0.0154 -0.1096 -0.1326
   24MOL   C26613192   1.099   1.100   0.019  0.4512  0.1075  0.7033
   24MOL   O26713193   1.226   0.937   8.027  0.5757  0.3250  0.0351
   24MOL   C26813194   1.310   0.662   0.004  0.2516  0.0719  0.2414
   24MOL   C26913195   1.424   0.580   0.028 -0.4080 -0.0208  0.0800
   24MOL   C27013196   1.423   0.501   0.142  0.6743 -0.7317 -0.2602
   24MOL   C27113197   1.535   0.423   0.177 -0.3944 -0.4226 -1.0895
   24MOL   H27213198   1.745   0.513   8.187 -1.5409  0.4563 -1.7852
   24MOL   H27313199   1.643   0.698   8.044 -1.2590  0.8768 -1.5749
   24MOL   H27413200   1.451   0.845   8.005  1.9142 -0.0422  0.9981
   24MOL   H27513201   0.922   0.971   8.229 -0.1792 -0.0224 -0.6706
   24MOL   H27613202   1.016   1.017   8.097  1.8263  4.1332  0.9352
   24MOL   H27713203   1.102   1.077   0.126  1.6469 -0.9232  0.4571
   24MOL   H27813204   1.202   1.099   8.233  1.1770  1.0633  2.6865
   24MOL   H27913205   1.228   0.663   0.074  0.6393 -1.1382  0.7248
   24MOL   H28013206   1.329   0.500   0.197  0.6720 -0.2965 -0.2554
   24MOL   H28113207   1.529   0.349   0.256 -2.4722  0.0407 -0.7689
   24MOL   O28213208   0.915   1.246   0.170 -0.0441  0.4351 -0.2293
   24MOL   C28313209   0.954   1.286   0.059 -0.7279  0.3222  0.5820
   24MOL   O28413210   1.049   1.232   8.237  0.3334 -0.1249 -0.8675
   24MOL   C28513211   0.893   1.391   8.228 -0.2380 -0.9373  0.1977
   24MOL   C28613212   0.948   1.458   8.114 -0.6574 -0.7926  0.2944
   24MOL   C28713213   0.879   1.570   8.051 -0.6411 -0.2518 -0.8986
   24MOL   C28813214   0.947   1.645   7.951  0.0099  0.3573 -0.3106
   24MOL   C28913215   0.887   1.766   7.901  0.4436  0.2564 -0.4401
   24MOL   C29013216   0.762   1.800   7.950  0.7421  0.4135 -0.3458
   24MOL   C29113217   0.693   1.926   7.901 -0.1222  0.1038  0.8403
   24MOL   O29213218   0.576   1.950   7.958 -0.0679  0.2683  0.0755
   24MOL   C29313219   0.500   2.068   7.929 -0.4309 -0.2325 -0.7715
   24MOL   C29413220   0.358   2.017   7.892  0.0042 -0.0584  0.7015
   24MOL   O29513221   0.738   2.007   7.822 -0.1187  0.1383 -0.0034
   24MOL   C29613222   0.694   1.726   8.052 -0.5688  0.0614  0.6090
   24MOL   C29713223   0.749   1.607   8.102  0.3634  0.2678  0.7174
   24MOL   C29813224   0.694   1.534   8.202  0.2312 -0.1437  0.6696
   24MOL   C29913225   0.757   1.420   0.011 -0.2232 -0.0794 -0.0869
   24MOL   H30013226   1.050   1.440   8.080  0.0228 -3.1435  3.3665
   24MOL   H30113227   1.038   1.606   7.908 -0.4672 -0.8322 -0.2501
   24MOL   H30213228   0.933   1.824   7.822 -1.0049  0.0359 -1.4506
   24MOL   H30313229   0.544   2.117   7.843  2.3157  0.0805  0.7505
   24MOL   H30413230   0.499   2.141   8.010 -0.9029  1.6834 -2.4772
   24MOL   H30513231   0.295   2.106   7.890  0.9195  0.5813 -0.0303
   24MOL   H30613232   0.354   1.973   7.792 -0.5715  0.9853  0.2565
   24MOL   H30713233   0.600   1.757   8.095 -0.0731  2.2977  0.1746
   24MOL   H30813234   0.597   1.565   8.238 -0.1871 -1.8509  1.0689
   24MOL   H30913235   0.710   1.364   0.092  0.1629  0.5011  0.5395
   24MOL   O31013236   0.202   2.059   8.129 -0.8511  0.2432  0.1070
   24MOL   C31113237   0.252   1.948   8.099  0.5347 -0.0514 -0.3262
   24MOL   O31213238   0.315   1.916   7.987 -0.0146  0.5259  0.5902
   24MOL   C31313239   0.268   1.843   8.201  0.1953 -0.1022 -0.0197
   24MOL   C31413240   0.272   1.706   8.167 -0.8404 -0.4985 -0.4950
   24MOL   C31513241   0.298   1.612   0.019 -0.1623  0.7356 -0.3289
   24MOL   C31613242   0.303   1.476   8.230  0.6550 -0.3813 -0.2776
   24MOL   C31713243   0.317   1.375   0.077  0.0608  0.0327  0.3262
   24MOL   C31813244   0.347   1.417   0.211 -0.9114 -0.2585  0.1489
   24MOL   C31913245   0.389   1.315   0.311 -0.1172  0.1648  0.1613
   24MOL   O32013246   0.450   1.366   0.414 -0.6525 -0.4481 -0.2291
   24MOL   C32113247   0.507   1.304   0.527  0.4588 -0.2466 -0.6895
   24MOL   C32213248   0.394   1.303   0.636 -0.2860  0.1522  0.0601
   24MOL   O32313249   0.371   1.194   0.300 -0.4099  0.6228  0.5281
   24MOL   C32413250   0.345   1.555   0.245 -0.4363  0.1273 -0.3818
   24MOL   C32513251   0.298   1.650   0.156 -0.6293  0.1621 -0.3895
   24MOL   C32613252   0.282   1.787   0.193 -1.0296  0.0588  0.0704
   24MOL   C32713253   0.269   1.881   0.091 -0.3439 -0.0402 -0.3617
   24MOL   H32813254   0.257   1.672   8.065 -2.5929 -2.6432  0.4378
   24MOL   H32913255   0.308   1.452   8.125 -0.3106 -1.9056  0.0145
   24MOL   H33013256   0.321   1.272   0.044  1.4568  0.0872  0.3097
   24MOL   H33113257   0.595   1.352   0.569 -0.4079 -0.3352  1.2864
   24MOL   H33213258   0.547   1.204   0.512  0.6545 -0.0390 -1.5698
   24MOL   H33313259   0.320   1.228   0.610  1.2387 -1.7125  0.9368
   24MOL   H33413260   0.433   1.258   0.728  2.3310  2.8929  0.3895
   24MOL   H33513261   0.355   1.592   0.346  1.4542 -0.6468 -0.2573
   24MOL   H33613262   0.275   1.825   0.294 -1.4710  1.3941 -0.4494
   24MOL   H33713263   0.256   1.987   0.110 -1.8224 -0.4103  0.8135
   24MOL   O33813264   0.185   1.346   0.819 -0.2981 -0.5353 -0.3296
   24MOL   C33913265   0.231   1.435   0.751  0.3500  0.3867  0.2794
   24MOL   O34013266   0.330   1.421   0.663 -0.3927  0.1928  0.3472
   24MOL   C34113267   0.176   1.563   0.755  0.4396 -0.0021 -0.0467
   24MOL   C34213268   0.223   1.664   0.667  0.8682 -0.2453  0.7262
   24MOL   C34313269   0.179   1.796   0.684 -0.7324 -0.0087  0.1536
   24MOL   C34413270   0.233   1.891   0.594  0.2099 -0.0589  0.3245
   24MOL   C34513271   0.196   2.031   0.609  0.1622 -0.1496  0.3849
   24MOL   C34613272   0.108   2.066   0.714  0.1374 -0.0688  0.4497
   24MOL   C34713273   0.074   2.206   0.731  0.0578 -0.0677  0.3770
   24MOL   O34813274   0.171   2.282   0.686 -0.5787 -0.3102  0.2847
   24MOL   C34913275   0.183   2.422   0.703 -0.2086  0.4761  0.9354
   24MOL   C35013276   0.248   2.450   0.840 -0.5177  0.5540 -0.2982
   24MOL   O35113277   8.218   2.245   0.784 -0.8388  0.6106  0.1540
   24MOL   C35213278   0.052   1.968   0.798  0.8318 -0.7257  0.0063
   24MOL   C35313279   0.091   1.835   0.787 -0.3778 -0.9108  0.1007
   24MOL   C35413280   0.037   1.735   0.874 -0.1295  0.2298 -0.3667
   24MOL   C35513281   0.078   1.599   0.856 -0.9292  0.2797  0.4379
   24MOL   H35613282   0.297   1.640   0.593  0.1139 -2.7355  0.7335
   24MOL   H35713283   0.311   1.870   0.523 -0.4667 -1.2906 -0.0662
   24MOL   H35813284   0.243   2.102   0.542 -1.0269 -0.6234 -0.9658
   24MOL   H35913285   0.081   2.458   0.688 -0.1519  0.7447  1.2076
   24MOL   H36013286   0.250   2.465   0.629 -2.2550  1.2194 -0.5346
   24MOL   H36113287   0.290   2.551   0.843  1.8184 -0.4487  2.5124
   24MOL   H36213288   0.172   2.436   0.916 -2.6365  0.7618 -2.3290
   24MOL   H36313289   8.234   2.006   0.873  2.9341  1.6132  0.7435
   24MOL   H36413290   8.211   1.771   0.943  1.3921  0.7648  1.0446
   24MOL   H36513291   0.023   1.531   0.920  1.9289 -2.2331  0.3532
   24MOL   O36613292   0.531   2.489   0.778 -0.0353  0.3169 -0.2034
   24MOL   C36713293   0.477   2.385   0.812 -0.2107 -0.0478  0.4117
   24MOL   O36813294   0.354   2.360   0.857  0.2147  0.1406  0.1101
   24MOL   C36913295   0.559   2.257   0.815  0.0460  0.2854  0.0033
   24MOL   C37013296   0.494   2.130   0.818 -0.4636  0.1487  0.7914
   24MOL   C37113297   0.559   2.008   0.806  0.7864  0.3726  0.2212
   24MOL   C37213298   0.492   1.884   0.800  0.4056  0.0474  0.0957
   24MOL   C37313299   0.567   1.768   0.763  0.2077 -0.7004 -0.0248
   24MOL   C37413300   0.711   1.770   0.762  0.4805  0.2049 -0.6620
   24MOL   C37513301   0.788   1.643   0.738 -0.2924 -1.0996 -0.8453
   24MOL   O37613302   0.913   1.655   0.773  0.0620 -0.1069 -0.0035
   24MOL   C37713303   0.993   1.544   0.753 -0.2126 -0.2644 -0.1636
   24MOL   C37813304   1.112   1.544   0.850  0.2525  0.1617  0.0112
   24MOL   O37913305   0.745   1.545   0.686 -0.2274  0.1041  0.1464
   24MOL   C38013306   0.776   1.894   0.785 -0.0077  0.4644  0.9265
   24MOL   C38113307   0.700   2.017   0.802 -0.6369 -0.0738 -0.9580
   24MOL   C38213308   0.771   2.137   0.837  0.1623  0.7033  1.2851
   24MOL   C38313309   0.700   2.256   0.834 -0.0466  0.2466  0.0241
   24MOL   H38413310   0.386   2.130   0.813 -0.3871 -2.0280 -1.8007
   24MOL   H38513311   0.386   1.874   0.814  0.5924 -0.3805  1.2932
   24MOL   H38613312   0.521   1.670   0.760 -1.3625  0.0452 -0.3953
   24MOL   H38713313   1.026   1.542   0.649 -1.1957  1.3014 -0.5070
   24MOL   H38813314   0.943   1.452   0.785  0.6223 -0.0041  1.9352
   24MOL   H38913315   1.076   1.555   0.952 -0.4363 -2.1591  0.0346
   24MOL   H39013316   1.168   1.451   0.844 -1.2785 -0.9009  1.5223
   24MOL   H39113317   0.882   1.915   0.794 -0.0660  2.1980 -1.8628
   24MOL   H39213318   0.878   2.124   0.846 -0.0435 -3.9143 -1.5071
   24MOL   H39313319   0.756   2.347   0.850  1.4893 -0.3570 -1.7813
   24MOL   O39413320   1.082   1.785   0.933  0.1790 -0.4942  0.1935
   24MOL   C39513321   1.183   1.766   0.865  0.5644 -0.3765 -0.0634
   24MOL   O39613322   1.205   1.646   0.810  0.0460  0.1296 -0.1765
   24MOL   C39713323   1.275   1.881   0.832  0.2751  0.3961 -0.5325
   24MOL   C39813324   1.237   2.017   0.861  0.2541  0.0931  0.5908
   24MOL   C39913325   1.338   2.116   0.857  0.4801 -0.7276 -0.6131
   24MOL   C40013326   1.295   2.247   0.873 -0.0252 -0.5834  0.6021
   24MOL   C40113327   1.388   2.353   0.867  0.3041 -0.1515  0.1460
   24MOL   C40213328   1.523   2.326   0.850 -0.3343  0.3184 -0.4510
   24MOL   C40313329   1.623   2.432   0.826  0.8048 -0.1025 -0.0459
   24MOL   O40413330   1.564   2.556   0.835  0.4306 -0.3781  0.6679
   24MOL   C40513331   1.652   2.666   0.857 -0.2687 -0.0487 -0.3348
   24MOL   C40613332   1.579   2.767   0.943  0.6738  0.4462  0.5613
   24MOL   O40713333   1.744   2.409   0.795  0.0322  0.3358 -0.6472
   24MOL   C40813334   1.563   2.194   0.834 -0.5975 -0.5496 -0.7236
   24MOL   C40913335   1.474   2.084   0.830  0.1072  0.1284 -0.0389
   24MOL   C41013336   1.510   1.948   0.802  0.3127 -0.6272 -0.2453
   24MOL   C41113337   1.412   1.851   0.813 -0.3301 -0.0372 -0.1807
   24MOL   H41213338   1.135   2.036   0.891 -0.6986 -0.3822 -2.1949
   24MOL   H41313339   1.188   2.261   0.873 -0.1806 -1.7279  1.2070
   24MOL   H41413340   1.352   2.455   0.862 -0.4240 -0.4588 -0.8392
   24MOL   H41513341   1.690   2.701   0.761 -1.0811 -2.1205 -1.4461
   24MOL   H41613342   1.744   2.633   0.905 -0.7776 -0.4942  0.3330
   24MOL   H41713343   1.641   2.850   0.978 -1.9242  2.4137  0.6203
   24MOL   H41813344   1.490   2.806   0.894  0.2628 -0.5584  0.5031
   24MOL   H41913345   1.666   2.178   0.809 -0.0958  0.1844  0.7772
   24MOL   H42013346   1.614   1.921   0.816  1.6466  3.2880 -1.8126
   24MOL   H42113347   1.439   1.747   0.808  2.7975  0.7135 -0.3430
   24MOL   O42213348   1.488   2.864   1.182 -0.1165 -0.1519 -0.1137
   24MOL   C42313349   1.473   2.743   1.160  0.0454  0.1084  0.2662
   24MOL   O42413350   1.537   2.690   1.057  0.4879  0.1099  0.1958
   24MOL   C42513351   1.404   2.639   1.243  0.0028  0.5503 -0.0072
   24MOL   C42613352   1.329   2.667   1.357 -0.1318 -0.0938  0.3167
   24MOL   C42713353   1.265   2.564   1.421 -0.0943 -0.0150  0.0437
   24MOL   C42813354   1.193   2.597   1.534 -0.1100  0.2589 -1.2656
   24MOL   C42913355   1.105   2.499   1.594 -0.9808 -0.0408 -1.0796
   24MOL   C43013356   1.100   2.368   1.545  0.1253 -0.6670  0.2539
   24MOL   C43113357   0.992   2.275   1.599 -0.8278 -0.1512 -1.0826
   24MOL   O43213358   0.903   2.343   1.688 -0.0230  0.1962 -0.2883
   24MOL   C43313359   0.785   2.273   1.746 -0.0575 -0.6770  0.1096
   24MOL   C43413360   0.692   2.228   1.639  0.0267 -0.2147  0.6513
   24MOL   O43513361   0.965   2.165   1.549 -0.2524 -0.5168 -0.4988
   24MOL   C43613362   1.183   2.334   1.439  0.2663  0.2406  0.0052
   24MOL   C43713363   1.267   2.432   1.383  0.3887  0.2252  0.4448
   24MOL   C43813364   1.345   2.393   1.274  0.4388  0.4956 -0.2994
   24MOL   C43913365   1.407   2.501   1.201  0.7306  0.8161 -0.1734
   24MOL   H44013366   1.318   2.770   1.387  1.2494  0.0033  0.5305
   24MOL   H44113367   1.189   2.697   1.576 -1.5060 -0.9591  1.7089
   24MOL   H44213368   1.041   2.539   1.672  0.4502 -0.7104  0.4702
   24MOL   H44313369   0.736   2.330   1.826  0.2252 -1.6903  1.0222
   24MOL   H44413370   0.819   2.193   1.811  0.2984 -0.4214  0.2410
   24MOL   H44513371   0.739   2.182   1.552  0.8608  0.9430  0.4835
   24MOL   H44613372   0.648   2.143   1.692 -1.6621 -0.2274 -0.7551
   24MOL   H44713373   1.173   2.235   1.398 -1.5141 -0.3682  1.7996
   24MOL   H44813374   1.350   2.292   1.238  0.3593  0.7684 -1.0995
   24MOL   H44913375   1.467   2.471   1.117  0.5276  0.5542 -0.2249
   24MOL   O45013376   0.460   2.287   1.772  0.0834  0.0541  0.5376
   24MOL   C45113377   0.489   2.347   1.671 -0.2475 -0.2456 -0.3366
   24MOL   O45213378   0.597   2.324   1.594  0.5082  0.2906 -0.0965
   24MOL   C45313379   0.410   2.464   1.624  0.3211  0.2565 -1.0150
   24MOL   C45413380   0.446   2.544   1.511  0.3639  0.0013  0.5078
   24MOL   C45513381   0.379   2.668   1.476  0.0001  0.0400 -0.0534
   24MOL   C45613382   0.414   2.747   1.365 -0.0298  0.1114 -0.8943
   24MOL   C45713383   0.340   2.868   1.333  0.6680 -0.4420  0.3969
   24MOL   C45813384   0.223   2.902   1.406  0.4219  0.2463  0.0966
   24MOL   C45913385   0.142   3.020   1.371 -1.2756  0.0766  0.1438
   24MOL   O46013386   0.064   3.059   1.475 -0.4255 -0.7062  0.8271
   24MOL   C46113387   0.005   3.190   1.475  0.0839 -0.2961  0.1271
   24MOL   C46213388   8.110   3.192   1.417  0.5495 -0.2254 -0.8730
   24MOL   O46313389   0.149   3.078   1.262  0.5034 -0.4007  0.3865
   24MOL   C46413390   0.186   2.820   1.516 -0.8525 -0.1751 -0.6086
   24MOL   C46513391   0.263   2.699   1.549 -0.4384 -0.1770 -0.6057
   24MOL   C46613392   0.225   2.619   1.658  0.9047  0.2133 -0.1279
   24MOL   C46713393   0.296   2.504   1.697 -0.7345 -1.0456 -0.1491
   24MOL   H46813394   0.532   2.515   1.452 -0.1327 -1.3843  0.4655
   24MOL   H46913395   0.498   2.718   1.303  1.1984 -0.6778  1.1086
   24MOL   H47013396   0.372   2.934   1.253 -2.7824  0.7587 -0.0494
   24MOL   H47113397   0.079   3.252   1.425  0.1068 -0.9346 -0.6455
   24MOL   H47213398   0.016   3.215   1.580  4.0080 -0.9345 -0.0751
   24MOL   H47313399   8.062   3.099   1.446 -0.4012 -0.2945 -2.6508
   24MOL   H47413400   8.060   3.273   1.471 -0.3442 -0.6514 -1.0601
   24MOL   H47513401   0.090   2.836   1.562 -1.1317  0.3358 -1.3566
   24MOL   H47613402   0.132   2.644   1.707  1.3952  2.4259 -0.2969
   24MOL   H47713403   0.264   2.449   1.784  0.3263 -1.3279  0.0649
   24MOL   O47813404   8.221   3.405   1.267  0.1699 -0.6933 -0.1473
   24MOL   C47913405   8.157   3.316   1.218 -0.5665 -0.1747 -0.0646
   24MOL   O48013406   8.093   3.214   1.282 -0.2515 -0.4233 -0.2236
   24MOL   C48113407   8.131   3.303   1.073 -0.0580 -0.3331  1.0734
   24MOL   C48213408   8.194   3.385   0.983  0.1315 -0.1787 -0.3077
   24MOL   C48313409   8.171   3.375   0.842  0.0182  0.4527  0.3608
   24MOL   C48413410   8.243   3.450   0.750 -0.0039  0.0092 -0.5832
   24MOL   C48513411   8.224   3.437   0.609 -0.1889  0.1932  0.1102
   24MOL   C48613412   8.129   3.337   0.559 -0.3422 -0.0848 -0.0715
   24MOL   C48713413   8.112   3.315   0.412 -0.3121 -0.4106 -0.2872
   24MOL   O48813414   8.224   3.345   0.348 -0.3085 -0.1345  0.4931
   24MOL   C48913415   8.227   3.327   0.206  0.5981 -0.6152  0.3599
   24MOL   C49013416   0.073   3.428   0.151 -0.2842  0.0716 -0.0383
   24MOL   O49113417   8.022   3.255   0.360 -0.3022  0.1185  0.2638
   24MOL   C49213418   8.053   3.264   0.653  0.4585 -0.1788  0.4791
   24MOL   C49313419   8.078   3.278   0.792  0.1328  0.0192  0.4579
   24MOL   C49413420   8.016   3.187   0.882 -0.6174  1.0809 -0.8004
   24MOL   C49513421   8.039   3.202   1.023  0.4634 -0.0309 -0.4825
   24MOL   H49613422   8.249   3.471   1.020 -0.8258  0.1998  0.2591
   24MOL   H49713423   0.069   3.521   0.782 -0.6097 -0.6165  2.3561
   24MOL   H49813424   0.042   3.489   0.542  1.5143 -2.2628 -0.1707
   24MOL   H49913425   8.130   3.337   0.158  0.9389  0.6765 -0.0655
   24MOL   H50013426   0.017   3.226   0.190  1.8983  0.1753 -1.6851
   24MOL   H50113427   0.173   3.421   0.192  0.3067  2.2895 -0.9882
   24MOL   H50213428   0.095   3.408   0.046 -2.0783  1.8220 -0.7889
   24MOL   H50313429   7.978   3.192   0.624 -2.2484  1.7055  2.5400
   24MOL   H50413430   7.951   3.109   0.846 -0.3204  0.2162  0.4859
   24MOL   H50513431   7.979   3.143   1.091  3.0772 -1.7164  0.4802
   24MOL   O50613432   0.159   3.604   0.336  0.7648 -0.5682  0.7465
   24MOL   C50713433   0.058   3.629   0.274  0.6313 -0.6634  0.8338
   24MOL   O50813434   0.015   3.551   0.174  0.1992 -0.5183 -0.0392
   24MOL   C50913435   8.223   3.756   0.297 -0.2602 -0.0923  0.1590
   24MOL   C51013436   8.229   3.833   0.416 -0.5496  0.3838 -0.8843
   24MOL   C51113437   8.146   3.948   0.435 -0.2696 -0.1807 -0.1697
   24MOL   C51213438   8.147   4.017   0.563  0.5495  0.2324  0.3681
   24MOL   C51313439   8.044   4.112   0.582 -0.8619  0.0962  0.8213
   24MOL   C51413440   7.947   4.138   0.479  0.4349 -0.1938 -0.0693
   24MOL   C51513441   7.840   4.241   0.497  0.3271  0.3515 -0.2739
   24MOL   O51613442   7.823   4.261   0.628 -0.8848 -0.5359 -0.2211
   24MOL   C51713443   7.733   4.358   0.687  0.5067  0.3253  0.7655
   24MOL   C51813444   7.696   4.311   0.825 -0.1302 -0.3171  0.5890
   24MOL   O51913445   7.787   4.307   0.404 -0.5545 -0.5692  0.0759
   24MOL   C52013446   7.944   4.080   0.352  0.5383 -0.5944  0.0952
   24MOL   C52113447   8.053   3.981   0.330 -0.1041 -0.1633  0.0672
   24MOL   C52213448   8.049   3.904   0.208 -0.0232 -0.2531  0.2626
   24MOL   C52313449   8.130   3.792   0.198 -0.4103 -0.4034  0.0897
   24MOL   H52413450   0.046   3.796   0.494 -0.2435  0.3203 -1.1762
   24MOL   H52513451   8.212   3.984   0.643  2.4108 -1.0607 -1.6268
   24MOL   H52613452   8.036   4.157   0.680 -0.9001 -1.8231  1.7231
   24MOL   H52713453   7.650   4.364   0.617  1.5962 -0.7370 -0.6673
   24MOL   H52813454   7.786   4.453   0.680 -3.1332  2.2548 -1.7499
   24MOL   H52913455   7.610   4.369   0.858 -0.6997  0.4379 -2.1624
   24MOL   H53013456   7.650   4.213   0.823  1.3284 -1.0012 -0.4454
   24MOL   H53113457   7.860   4.099   0.287 -0.6861  1.7346  2.2468
   24MOL   H53213458   7.981   3.912   0.125 -0.7069 -0.1447  0.8355
   24MOL   H53313459   8.129   3.733   0.108 -0.2202 -0.9734  0.4596
   24MOL   O53413460   7.721   4.212   1.080 -0.0677  0.1215 -0.2243
   24MOL   C53513461   7.799   4.297   1.040  0.1207 -0.1959  0.2573
   24MOL   O53613462   7.788   4.354   0.920 -0.6279  0.0689 -0.1634
   24MOL   C53713463   7.918   4.346   1.113 -0.3841 -0.1217  0.1310
   24MOL   C53813464   7.988   4.465   1.079  0.2850 -0.1831  0.4363
   24MOL   C53913465   8.108   4.500   1.151  0.1287 -0.2059  0.5506
   24MOL   C54013466   8.179   4.614   1.118 -1.0892  0.2200 -0.2473
   24MOL   C54113467   0.042   4.644   1.187 -0.1132 -0.6799  0.2932
   24MOL   C54213468   0.088   4.564   1.286  0.3639 -0.3464  0.5886
   24MOL   C54313469   0.205   4.603   1.369  0.4396 -0.3200 -0.8043
   24MOL   O54413470   0.238   4.739   1.345  0.3358  0.6508  0.1356
   24MOL   C54513471   0.338   4.808   1.414 -0.3487  0.6333  0.2682
   24MOL   C54613472   0.281   4.847   1.550 -0.3418  0.3606  0.7710
   24MOL   O54713473   0.271   4.527   1.441  0.0420  0.2138  0.0793
   24MOL   C54813474   0.017   4.446   1.320 -0.1881 -0.4885 -0.4479
   24MOL   C54913475   8.148   4.416   1.254 -0.1127  0.4899 -0.3665
   24MOL   C55013476   8.076   4.297   1.289 -0.2487  0.2581 -0.1935
   24MOL   C55113477   7.961   4.265   1.222  1.0327  0.0047 -0.5977
   24MOL   H55213478   7.949   4.521   0.995  1.4061  1.6088  1.0929
   24MOL   H55313479   8.138   4.674   1.039  0.7518  1.8113 -0.0494
   24MOL   H55413480   0.085   4.737   1.156 -0.1091 -1.3451 -1.7739
   24MOL   H55513481   0.372   4.896   1.360  2.4578  1.0023  2.4802
   24MOL   H55613482   0.436   4.759   1.421 -1.0895 -0.9942 -0.4342
   24MOL   H55713483   0.243   4.766   1.613  1.2479 -0.2267  0.9874
   24MOL   H55813484   0.196   4.914   1.537 -0.8450 -0.5004 -0.6251
   24MOL   H55913485   0.060   4.380   1.394  0.8365 -2.0887 -2.4379
   24MOL   H56013486   8.107   4.241   1.376  0.0321 -0.7077 -0.9104
   24MOL   H56113487   7.900   4.180   1.249  3.3423 -2.1007 -1.7867
   24MOL   H56213488   0.354   4.907   1.604 -0.5794  1.4442 -0.0866
   25MOL     O113489   4.005   2.497   4.757 -0.2201  0.1866  0.0231
   25MOL     C213490   4.065   2.395   4.725 -0.1591 -0.3443 -0.4012
   25MOL     O313491   4.199   2.396   4.694 -0.1573  0.0972 -0.2910
   25MOL     C413492   3.992   2.264   4.732  0.0859  0.6404 -0.0225
   25MOL     C513493   3.855   2.263   4.763 -0.2327 -0.7959 -0.1557
   25MOL     C613494   3.775   2.143   4.745  0.5040 -0.2960 -0.5762
   25MOL     C713495   3.636   2.149   4.770 -0.3693 -0.7539 -0.5662
   25MOL     C813496   3.558   2.031   4.744  0.1737  0.6425  0.7135
   25MOL     C913497   3.620   1.915   4.688  0.5357  0.4493 -0.0188
   25MOL    C1013498   3.538   1.797   4.661 -0.0054 -0.0549  0.6266
   25MOL    O1113499   3.614   1.700   4.625 -0.6757  0.0808  0.4860
   25MOL    C1213500   3.556   1.578   4.594 -0.0636 -0.0621  0.3068
   25MOL    C1313501   3.658   1.488   4.522 -0.2836 -0.2689 -0.5992
   25MOL    O1413502   3.415   1.789   4.666  0.0001 -0.5880  0.3310
   25MOL    C1513503   3.758   1.910   4.671  0.2017  0.2074 -0.1664
   25MOL    C1613504   3.836   2.022   4.706 -0.3448 -0.5841 -0.2265
   25MOL    C1713505   3.974   2.022   4.688  0.4668 -0.1946  0.0255
   25MOL    C1813506   4.047   2.143   4.690 -0.2084  0.8691 -1.3332
   25MOL    H1913507   3.800   2.350   4.796 -2.1336 -1.6422 -0.9898
   25MOL    H2013508   3.587   2.239   4.803 -1.6710 -1.4950 -0.4801
   25MOL    H2113509   3.454   2.028   4.775 -0.0625 -0.3498 -0.1493
   25MOL    H2213510   3.520   1.530   4.685  0.4558 -1.1012 -0.0248
   25MOL    H2313511   3.482   1.588   4.515 -0.5285  0.4257  0.8019
   25MOL    H2413512   3.607   1.400   4.481 -0.3779 -1.4671  1.9967
   25MOL    H2513513   3.699   1.549   4.441 -1.9403  1.3071 -0.2784
   25MOL    H2613514   3.813   1.828   4.626 -0.3253 -0.8818  1.1468
   25MOL    H2713515   4.029   1.937   4.652 -0.5916 -1.2139  0.7640
   25MOL    H2813516   4.151   2.146   4.660 -0.1546  2.0834 -1.0494
   25MOL    H2913517   4.238   2.465   4.746  2.5218 -1.7733  0.2956
   25MOL    O3013518   3.664   1.267   4.686 -0.1064  0.5245 -0.5291
   25MOL    C3113519   3.760   1.348   4.691  0.4345  0.8797  0.0946
   25MOL    O3213520   3.756   1.460   4.625 -0.4820 -0.8321  0.0424
   25MOL    C3313521   3.879   1.343   4.779 -0.2075 -0.9362 -0.0231
   25MOL    C3413522   3.976   1.451   4.783 -0.2954 -0.6080 -0.0261
   25MOL    C3513523   4.081   1.442   4.877 -0.0716 -0.6564 -0.0196
   25MOL    C3613524   4.182   1.545   4.888  0.2785  0.2532  0.1060
   25MOL    C3713525   4.279   1.537   4.988  0.0011 -0.4506 -0.4216
   25MOL    C3813526   4.284   1.422   5.075 -0.2465  0.0620  0.3362
   25MOL    C3913527   4.386   1.427   5.177 -0.2650  0.0041  0.1461
   25MOL    O4013528   4.385   1.319   5.261 -0.1437  0.4721  0.2870
   25MOL    C4113529   4.475   1.318   5.373 -0.9080  0.2312  0.2246
   25MOL    C4213530   4.422   1.231   5.492 -1.0513 -0.4194  0.1005
   25MOL    O4313531   4.466   1.521   5.192  0.1567  0.4773  0.2062
   25MOL    C4413532   4.190   1.323   5.063 -0.2315  0.2574  0.4040
   25MOL    C4513533   4.088   1.329   4.964 -0.0480  0.1982 -0.3912
   25MOL    C4613534   3.992   1.225   4.964  0.8430 -0.0924 -0.0070
   25MOL    C4713535   3.892   1.236   4.864  0.9671 -0.0968 -0.2527
   25MOL    H4813536   3.955   1.542   4.729  0.1023 -0.3103  0.3218
   25MOL    H4913537   4.173   1.640   4.837  0.2748  0.7785  1.0770
   25MOL    H5013538   4.349   1.615   5.013 -0.1673 -0.0705 -1.1191
   25MOL    H5113539   4.490   1.418   5.412 -0.3274 -0.9053  3.0470
   25MOL    H5213540   4.571   1.281   5.337 -1.0411  0.6900 -0.6008
   25MOL    H5313541   4.456   1.278   5.585  1.1480 -0.5154 -0.6210
   25MOL    H5413542   4.315   1.215   5.495 -1.3547  1.0019 -1.8103
   25MOL    H5513543   4.194   1.233   5.123 -1.4214 -0.8525 -1.1631
   25MOL    H5613544   3.999   1.140   5.030  0.8882  0.4743  0.7326
   25MOL    H5713545   3.828   1.149   4.859 -0.1287  0.6884  0.0360
   25MOL    O5813546   4.393   1.032   5.312 -0.0450  0.1504  0.3885
   25MOL    C5913547   4.458   1.012   5.415 -0.6517 -0.4358  0.1072
   25MOL    O6013548   4.486   1.111   5.504 -0.5930  0.1505 -0.5179
   25MOL    C6113549   4.501   0.877   5.453  0.2637 -0.5458 -0.3825
   25MOL    C6213550   4.462   0.771   5.367 -0.2201 -0.0207 -0.3475
   25MOL    C6313551   4.488   0.637   5.409  0.2492 -0.0664 -0.1871
   25MOL    C6413552   4.444   0.534   5.335 -0.4021  0.8886  0.2392
   25MOL    C6513553   4.487   0.395   5.359  0.2367 -0.5466 -1.2015
   25MOL    C6613554   4.581   0.371   5.462  0.4700 -0.0567  1.2293
   25MOL    C6713555   4.634   0.234   5.485 -0.4647 -0.9155 -0.5151
   25MOL    O6813556   4.616   0.150   5.377  0.1023  0.5914 -0.2583
   25MOL    C6913557   4.680   0.019   5.378  0.2218 -0.1439 -0.1359
   25MOL    C7013558   4.570   8.166   5.360  0.0971  0.1648  0.0316
   25MOL    O7113559   4.698   0.208   5.585 -0.3344  0.6163 -0.5661
   25MOL    C7213560   4.618   0.478   5.548 -0.1867 -0.0669 -0.3566
   25MOL    C7313561   4.573   0.611   5.521  0.2803 -0.0070  0.2267
   25MOL    C7413562   4.622   0.718   5.597  0.0775 -0.9488  0.5368
   25MOL    C7513563   4.580   0.853   5.567  0.3491 -0.3579 -0.3409
   25MOL    H7613564   4.399   0.776   5.280  1.0957  0.4534 -1.2818
   25MOL    H7713565   4.383   0.566   5.251  1.2034 -0.7595 -1.6237
   25MOL    H7813566   4.444   0.320   5.296  0.2541  0.3947 -2.3479
   25MOL    H7913567   4.717   8.247   5.479 -0.7644 -2.7066 -0.2967
   25MOL    H8013568   4.756   0.011   5.301 -1.0195  0.0537 -1.3931
   25MOL    H8113569   4.569   8.104   5.449  1.6947  0.9314  0.6019
   25MOL    H8213570   4.470   8.208   5.349 -0.0380 -0.5053 -1.4712
   25MOL    H8313571   4.683   0.454   5.631  0.4597  3.2574  0.1827
   25MOL    H8413572   4.686   0.711   5.684  0.5240 -1.9860  0.1343
   25MOL    H8513573   4.611   0.924   5.642  0.7918 -1.2445  0.3253
   25MOL    O8613574   4.491   8.244   5.112 -0.0787 -0.0741 -0.0110
   25MOL    C8713575   4.543   8.132   5.126  0.2075  0.1784  0.2321
   25MOL    O8813576   4.589   8.091   5.245  0.1590  0.2295 -0.2947
   25MOL    C8913577   4.578   8.043   5.010 -0.1714 -0.3259  0.4218
   25MOL    C9013578   4.536   8.078   4.883  0.0224  0.8727  0.6169
   25MOL    C9113579   4.572   7.996   4.771  0.3405 -0.3785 -1.1522
   25MOL    C9213580   4.531   8.043   4.645  0.0044  1.0261  0.1364
   25MOL    C9313581   4.576   7.973   4.530 -0.6215 -0.4863  0.4177
   25MOL    C9413582   4.671   7.869   4.548  0.3754  0.5960  1.1130
   25MOL    C9513583   4.744   7.820   4.436  0.2144 -0.5478  0.9221
   25MOL    O9613584   4.687   7.840   4.317  0.3620 -0.1453  0.1883
   25MOL    C9713585   4.738   7.765   4.213  0.3179 -0.1154 -0.2570
   25MOL    C9813586   4.853   7.837   4.152  0.4091 -0.2373 -0.4932
   25MOL    O9913587   4.851   7.765   4.441 -0.2801 -0.3000 -0.3745
   25MOL   C10013588   4.712   7.825   4.677  0.3794  0.5201  0.0385
   25MOL   C10113589   4.654   7.887   4.794 -0.3390  0.3305 -0.0861
   25MOL   C10213590   4.700   7.852   4.922  0.8160 -0.3221  0.4223
   25MOL   C10313591   4.658   7.930   5.031  0.4244 -0.7997 -0.3482
   25MOL   H10413592   4.473   8.165   4.872  2.5164  2.6667 -0.1109
   25MOL   H10513593   4.457   8.121   4.643 -1.3065 -0.2066 -2.1563
   25MOL   H10613594   4.549   8.022   4.438  0.7274  2.4933  1.5484
   25MOL   H10713595   4.652   7.756   4.147 -0.8835 -0.7154  1.3745
   25MOL   H10813596   4.768   7.663   4.236 -0.6607 -0.4238 -0.3313
   25MOL   H10913597   4.868   7.939   4.186  1.1735 -0.5892  0.2538
   25MOL   H11013598   4.946   7.784   4.173  1.1663  0.8939 -0.9481
   25MOL   H11113599   4.788   7.750   4.692 -0.0715  0.0744  0.0987
   25MOL   H11213600   4.761   7.764   4.933 -1.2617 -1.9751 -0.8610
   25MOL   H11313601   4.693   7.896   5.128  1.0879 -1.5346 -0.8294
   25MOL   O11413602   4.723   8.013   4.016  0.2001 -0.7518  0.4126
   25MOL   C11513603   4.770   7.916   3.952  0.0457 -1.1175  0.6393
   25MOL   O11613604   4.835   7.825   4.013  0.4154 -0.2944  0.8919
   25MOL   C11713605   4.759   7.902   3.799  0.4975 -0.3180  0.3100
   25MOL   C11813606   4.667   7.979   3.730  0.1236 -0.3817 -0.4143
   25MOL   C11913607   4.659   7.986   3.589 -0.5649  0.2539 -0.0512
   25MOL   C12013608   4.558   8.056   3.521 -0.2732 -0.3797  0.3247
   25MOL   C12113609   4.557   8.060   3.383  0.0757  0.4946  0.2401
   25MOL   C12213610   4.656   7.996   3.309 -0.3521 -0.6787 -0.2894
   25MOL   C12313611   4.651   8.003   3.163 -0.0009 -0.3289 -0.3405
   25MOL   O12413612   4.671   7.902   3.091  0.1637  0.1139  0.4601
   25MOL   C12513613   4.641   7.903   2.947  0.0596  0.2073 -0.3497
   25MOL   C12613614   4.739   7.983   2.871  0.0102 -0.2222 -0.6638
   25MOL   O12713615   4.610   8.109   3.113  0.6593 -0.3495  0.3802
   25MOL   C12813616   4.753   7.919   3.373  0.2764  0.0892  0.4547
   25MOL   C12913617   4.755   7.913   3.515 -0.9643 -0.1100 -0.0601
   25MOL   C13013618   4.839   7.821   3.583 -0.6204  0.6495 -0.4137
   25MOL   C13113619   4.846   7.817   3.726 -0.1741  0.0649 -0.3098
   25MOL   H13213620   4.598   8.025   3.799  0.6318  0.0934 -0.2127
   25MOL   H13313621   4.489   8.106   3.587 -0.2520 -1.0112  0.8376
   25MOL   H13413622   4.475   8.106   3.330  0.1988 -0.3290 -0.6544
   25MOL   H13513623   4.550   7.960   2.931 -0.1453 -0.4363 -1.5263
   25MOL   H13613624   4.631   7.801   2.911 -1.0463  0.5823 -1.1195
   25MOL   H13713625   4.709   8.086   2.892  1.1587 -0.0945  0.3774
   25MOL   H13813626   4.843   7.962   2.894  0.4054  0.8681 -1.4209
   25MOL   H13913627   4.818   7.854   3.315 -0.4127 -1.4124  1.3329
   25MOL   H14013628   4.897   7.749   3.527 -0.9694 -0.4601  0.6374
   25MOL   H14113629   4.907   7.747   3.781 -2.1552 -1.9129 -0.5826
   25MOL   O14213630   4.880   8.101   2.664 -0.2758  0.3018 -0.3544
   25MOL   C14313631   4.803   8.010   2.641  0.2340  0.1249  0.8350
   25MOL   O14413632   4.725   7.945   2.731  0.0781 -0.4730 -0.4244
   25MOL   C14513633   4.783   7.959   2.504  0.0347  0.2346  0.8371
   25MOL   C14613634   4.669   7.882   2.468  0.4389  0.2616  0.2527
   25MOL   C14713635   4.645   7.844   2.336  0.1173 -0.2397  0.3209
   25MOL   C14813636   4.536   7.761   2.304  0.1974  0.6091 -0.8325
   25MOL   C14913637   4.517   7.724   2.173 -0.0725 -0.2104  0.7384
   25MOL   C15013638   4.612   7.753   2.072  0.6670 -0.4300 -0.1130
   25MOL   C15113639   4.589   7.719   1.934  0.6612 -0.0437  0.3899
   25MOL   O15213640   4.687   7.749   1.848  0.5010  0.2419  0.2494
   25MOL   C15313641   4.685   7.692   1.714 -0.1740 -0.2826  0.1382
   25MOL   C15413642   4.778   7.563   1.715  0.2224  1.0257 -0.1897
   25MOL   O15513643   4.487   7.651   1.899  0.0065  0.3261  0.2603
   25MOL   C15613644   4.716   7.841   2.107  0.2541 -0.0465 -0.3343
   25MOL   C15713645   4.742   7.880   2.240 -0.0948  0.4172  0.1364
   25MOL   C15813646   4.859   7.948   2.272  0.8989  0.3626  0.3452
   25MOL   C15913647   4.876   7.997   2.403  0.1297  0.7898 -0.1726
   25MOL   H16013648   4.590   7.861   2.539  0.8051  1.5526  1.0570
   25MOL   H16113649   4.466   7.747   2.386  2.9552  0.4719  1.5786
   25MOL   H16213650   4.433   7.660   2.148 -0.3798  0.7897 -0.8193
   25MOL   H16313651   4.703   7.766   1.637 -0.1358 -0.2007  0.2258
   25MOL   H16413652   4.580   7.670   1.692  0.3604 -0.8451 -1.8738
   25MOL   H16513653   4.801   7.536   1.818 -0.1922  3.2367  0.5018
   25MOL   H16613654   4.727   7.486   1.657  1.8941 -0.8325  0.7548
   25MOL   H16713655   4.787   7.868   2.030 -0.4324  1.0364 -0.6039
   25MOL   H16813656   4.937   7.963   2.199 -1.4057  3.9826 -1.5737
   25MOL   H16913657   4.967   8.047   2.433  1.3719 -0.6446 -1.4541
   25MOL   O17013658   5.002   7.659   1.829 -0.4518  0.4525 -0.1257
   25MOL   C17113659   5.008   7.649   1.713  0.0777 -0.1668  0.1717
   25MOL   O17213660   4.905   7.588   1.647 -0.1358  0.3556 -0.0298
   25MOL   C17313661   5.110   7.703   1.625  0.0237 -0.5678  0.3261
   25MOL   C17413662   5.084   7.695   1.485  0.6415  0.1350  0.4252
   25MOL   C17513663   5.185   7.743   1.394  0.0642  0.0720 -0.2620
   25MOL   C17613664   5.155   7.740   1.254 -0.0035  0.4178 -0.8695
   25MOL   C17713665   5.259   7.777   1.162  0.0679 -0.2451 -0.0218
   25MOL   C17813666   5.387   7.821   1.207 -0.3411  0.0304  0.0914
   25MOL   C17913667   5.498   7.851   1.111 -0.3662 -0.4124 -0.5292
   25MOL   O18013668   5.484   7.790   1.004 -0.2187  0.3481 -0.2396
   25MOL   C18113669   5.577   7.794   0.899  0.0882  0.1021  0.1337
   25MOL   C18213670   5.569   7.938   0.825  0.0737 -0.1168  0.8266
   25MOL   O18313671   5.594   7.918   1.138 -0.3586  0.1682 -0.0178
   25MOL   C18413672   5.406   7.828   1.343  0.2411  0.1065 -0.6206
   25MOL   C18513673   5.310   7.792   1.437 -0.3359 -0.2220  0.7248
   25MOL   C18613674   5.327   7.795   1.573 -0.2804 -0.1070  0.3482
   25MOL   C18713675   5.237   7.749   1.667 -0.4378 -0.5007 -0.5638
   25MOL   H18813676   4.989   7.671   1.440  0.4307 -1.1326  1.5018
   25MOL   H18913677   5.055   7.717   1.222 -0.6321  0.3754  1.0803
   25MOL   H19013678   5.238   7.759   1.058 -0.2544  0.9716 -0.1699
   25MOL   H19113679   5.564   7.701   0.844 -2.6569  1.1074 -1.0179
   25MOL   H19213680   5.682   7.784   0.927  0.8262 -1.3570 -2.9658
   25MOL   H19313681   5.523   7.952   0.727  0.0178  0.7342  0.9693
   25MOL   H19413682   5.496   8.003   0.873  0.2665  1.8835 -1.5429
   25MOL   H19513683   5.508   7.839   1.378  0.2232  0.1655 -0.5886
   25MOL   H19613684   5.423   7.834   1.605 -0.3606  0.8966 -0.5838
   25MOL   H19713685   5.267   7.748   1.771  1.7133 -0.3540 -1.1581
   25MOL   O19813686   5.752   7.836   0.656  0.0866  0.5281 -0.0041
   25MOL   C19913687   5.778   7.930   0.735 -0.1868 -0.4946  0.0893
   25MOL   O20013688   5.700   7.990   0.830  0.2188  0.0757  0.1700
   25MOL   C20113689   5.920   7.989   0.729 -0.0569 -1.2552 -0.2785
   25MOL   C20213690   5.945   8.087   0.832  0.1974  0.0215  0.3046
   25MOL   C20313691   6.067   8.158   0.819  0.5194 -0.5334  0.1673
   25MOL   C20413692   6.099   0.005   0.917  1.0041  0.0625  0.6259
   25MOL   C20513693   6.210   0.094   0.895  0.4227  0.2942 -0.5938
   25MOL   C20613694   6.299   0.066   0.785 -0.1821 -0.7324 -0.5074
   25MOL   C20713695   6.413   0.154   0.745  0.1784  0.2728 -0.6714
   25MOL   O20813696   6.408   0.285   0.784  0.2269  0.4256  0.3525
   25MOL   C20913697   6.510   0.372   0.740  0.1532 -0.5217  0.0462
   25MOL   C21013698   6.460   0.439   0.611 -0.1040 -0.2233  0.5899
   25MOL   O21113699   6.505   0.103   0.683 -0.6346  0.0055 -0.2430
   25MOL   C21213700   6.257   8.222   0.691 -0.9211  0.4304  0.6756
   25MOL   C21313701   6.150   8.138   0.703  0.0748  0.2815 -0.3766
   25MOL   C21413702   6.131   8.033   0.617  0.2427  0.2515  0.2796
   25MOL   C21513703   6.012   7.958   0.625  0.8774 -0.3736  0.1234
   25MOL   H21613704   5.881   8.103   0.917 -0.0481  0.0544  0.1138
   25MOL   H21713705   6.037   0.021   1.004 -0.7413  1.1484 -0.7763
   25MOL   H21813706   6.226   0.178   0.961  1.7931  1.9866 -3.0407
   25MOL   H21913707   6.605   0.319   0.737  1.4977  1.8733 -1.6795
   25MOL   H22013708   6.533   0.438   0.824  1.1673 -1.1216  0.2499
   25MOL   H22113709   6.467   0.367   0.530 -1.4597  1.1176 -0.7292
   25MOL   H22213710   6.354   0.460   0.614 -0.2420 -0.9381  0.8963
   25MOL   H22313711   6.319   8.221   0.602  1.4644  2.0120  2.2200
   25MOL   H22413712   6.196   8.018   0.532 -0.9264  1.4452 -0.8392
   25MOL   H22513713   5.994   7.877   0.555  0.4914  1.5266 -2.0350
   25MOL   O22613714   6.570   0.536   0.384 -0.1402 -0.6607  0.0333
   25MOL   C22713715   6.574   0.603   0.488  0.5663 -0.2185 -0.1849
   25MOL   O22813716   6.526   0.565   0.606 -0.1840  0.2548 -0.1899
   25MOL   C22913717   6.651   0.728   0.487  0.9097  0.1924  0.1096
   25MOL   C23013718   6.641   0.818   0.598  0.1910  0.1429 -0.2298
   25MOL   C23113719   6.705   0.946   0.595  0.3295  0.0333  0.0781
   25MOL   C23213720   6.713   1.028   0.707  0.0019  0.5021  0.1048
   25MOL   C23313721   6.770   1.160   0.710 -0.0942  0.0571  0.7628
   25MOL   C23413722   6.816   1.209   0.584 -0.1374 -0.0639  0.2446
   25MOL   C23513723   6.864   1.351   0.565  0.4896  1.2222  0.4803
   25MOL   O23613724   6.816   1.437   0.658 -0.4077  0.4591 -0.2376
   25MOL   C23713725   6.845   1.572   0.667 -0.5229 -0.1291  0.7202
   25MOL   C23813726   6.953   1.608   0.764 -0.5544 -0.1564  0.8758
   25MOL   O23913727   6.938   1.377   0.475 -0.3399  0.2298 -0.0695
   25MOL   C24013728   6.813   1.126   0.466 -0.1456  0.1845  0.4128
   25MOL   C24113729   6.764   0.994   0.474  0.2525  0.0582  0.2125
   25MOL   C24213730   6.772   0.906   0.365 -0.4534 -0.2155 -0.1467
   25MOL   C24313731   6.717   0.773   0.366  0.2328  0.2736  0.7785
   25MOL   H24413732   6.595   0.780   0.688  2.2373  1.3198  1.3531
   25MOL   H24513733   6.672   0.994   0.801 -1.1348  1.2596 -0.1108
   25MOL   H24613734   6.783   1.214   0.803 -0.2556 -1.1270  1.4895
   25MOL   H24713735   6.755   1.624   0.700  0.0561  1.4661 -0.1640
   25MOL   H24813736   6.868   1.607   0.566 -1.9522 -0.3121  0.3268
   25MOL   H24913737   7.027   1.530   0.753 -2.2127 -1.4091 -1.9506
   25MOL   H25013738   6.992   1.706   0.737  0.9567 -1.3302 -1.2852
   25MOL   H25113739   6.867   1.154   0.377 -0.9943 -0.7098 -0.3867
   25MOL   H25213740   6.826   0.934   0.276 -0.5563 -1.7184 -0.6910
   25MOL   H25313741   6.737   0.714   0.278  1.3476  1.7282  0.0367
   25MOL   O25413742   6.885   1.403   0.945 -0.0223  0.5877 -0.0674
   25MOL   C25513743   6.865   1.522   0.975 -0.2183 -0.7972  0.0722
   25MOL   O25613744   6.898   1.630   0.894  0.0684  0.4080  0.0183
   25MOL   C25713745   6.810   1.561   1.116  0.2517 -0.4084  0.2203
   25MOL   C25813746   6.787   1.696   1.155  0.0778 -0.0697 -0.2251
   25MOL   C25913747   6.729   1.720   1.279 -0.2700 -0.3499 -1.0347
   25MOL   C26013748   6.700   1.853   1.312  0.1862 -0.5307 -0.1342
   25MOL   C26113749   6.637   1.884   1.436 -0.1597 -0.1635  0.1279
   25MOL   C26213750   6.607   1.779   1.528  0.3101  0.9838 -0.9040
   25MOL   C26313751   6.525   1.806   1.648  0.7861 -0.3980  0.7105
   25MOL   O26413752   6.478   1.690   1.713  0.5262 -0.0574  0.0035
   25MOL   C26513753   6.413   1.710   1.835  0.4100  0.6400  0.5335
   25MOL   C26613754   6.379   1.574   1.886 -0.3467  0.5691 -0.1391
   25MOL   O26713755   6.501   1.918   1.690  0.4631 -0.3837  0.2669
   25MOL   C26813756   6.642   1.644   1.494 -0.4368 -0.1613  0.3359
   25MOL   C26913757   6.698   1.613   1.370  0.3247 -0.3889  0.9051
   25MOL   C27013758   6.732   1.485   1.338 -1.0724  0.1405  0.5515
   25MOL   C27113759   6.783   1.458   1.209 -0.6173  0.9160  0.3799
   25MOL   H27213760   6.801   1.777   1.085  0.3398  0.6860  0.6987
   25MOL   H27313761   6.719   1.930   1.240  0.9166 -0.6662 -0.0873
   25MOL   H27413762   6.604   1.985   1.453 -0.3193 -0.4307  1.4508
   25MOL   H27513763   6.326   1.773   1.817 -0.0326 -0.0179  0.3665
   25MOL   H27613764   6.481   1.760   1.904 -0.4791  0.4662  1.5533
   25MOL   H27713765   6.465   1.508   1.876 -1.6154 -0.9817 -0.9285
   25MOL   H27813766   6.352   1.558   1.990 -0.0337 -0.1344 -0.1702
   25MOL   H27913767   6.622   1.561   1.561 -0.6556 -0.3974 -0.0189
   25MOL   H28013768   6.704   1.403   1.402  0.2807 -1.6394 -1.1068
   25MOL   H28113769   6.801   1.359   1.171 -1.1728  0.9584 -0.0015
   25MOL   O28213770   6.121   1.650   1.925  0.2161  0.2149  0.2446
   25MOL   C28313771   6.143   1.559   1.844  0.0884 -0.4349 -0.2021
   25MOL   O28413772   6.265   1.516   1.817 -0.4464 -0.1987 -0.4010
   25MOL   C28513773   6.033   1.498   1.758  0.5220  0.0183 -0.0083
   25MOL   C28613774   6.056   1.404   1.663 -0.0293 -0.1162  0.7889
   25MOL   C28713775   5.947   1.346   1.593  0.6531  0.1158 -0.6021
   25MOL   C28813776   5.976   1.252   1.491  0.0774 -0.2340 -0.2987
   25MOL   C28913777   5.869   1.199   1.421  0.4390  0.2777 -0.7987
   25MOL   C29013778   5.739   1.214   1.464 -0.1936  0.8936 -0.0013
   25MOL   C29113779   5.625   1.135   1.419 -0.6764 -0.0231 -0.1024
   25MOL   O29213780   5.646   1.064   1.305  0.0597 -0.0559  0.1253
   25MOL   C29313781   5.546   0.980   1.248  0.1924  0.0525  0.2642
   25MOL   C29413782   5.574   0.846   1.320 -0.3355 -0.5189  0.0228
   25MOL   O29513783   5.515   1.128   1.478  0.1522 -0.3049  0.1038
   25MOL   C29613784   5.712   1.313   1.565  0.3880 -0.0021  1.8469
   25MOL   C29713785   5.816   1.385   1.619  0.8610 -0.8848 -0.4393
   25MOL   C29813786   5.795   1.486   1.717  0.3028  0.1008 -0.6308
   25MOL   C29913787   5.906   1.543   1.787  0.0279  0.4712 -0.1745
   25MOL   H30013788   6.154   1.377   1.625 -0.6145  1.8534 -2.2675
   25MOL   H30113789   6.077   1.229   1.460  1.1511  1.5631  1.7658
   25MOL   H30213790   5.897   1.123   1.350  1.0524  0.2159 -0.4893
   25MOL   H30313791   5.554   0.965   1.140  0.0502 -0.3660  0.3104
   25MOL   H30413792   5.447   1.018   1.273 -1.0082 -3.6107  1.3625
   25MOL   H30513793   5.672   0.821   1.279  0.9968  3.5262  0.5387
   25MOL   H30613794   5.583   0.859   1.428 -0.2667  1.8417 -0.2562
   25MOL   H30713795   5.613   1.334   1.602 -0.6114  0.1427 -0.8161
   25MOL   H30813796   5.695   1.524   1.733 -0.2741 -0.7387 -2.1205
   25MOL   H30913797   5.890   1.615   1.866 -0.0206 -2.0253  2.1695
   25MOL   O31013798   5.330   0.838   1.431  0.5301 -0.5214  0.3651
   25MOL   C31113799   5.361   0.751   1.352  0.3182  0.4234  0.0671
   25MOL   O31213800   5.480   0.746   1.295  0.3199  0.2675 -0.2835
   25MOL   C31313801   5.279   0.628   1.318 -0.1519 -0.1052 -0.1212
   25MOL   C31413802   5.331   0.539   1.219 -0.1820  0.7849  0.5264
   25MOL   C31513803   5.257   0.427   1.176  0.2890 -0.0153  0.4633
   25MOL   C31613804   5.298   0.339   1.071  0.3986 -0.0750  0.3821
   25MOL   C31713805   5.212   0.234   1.025  0.0819 -0.6533 -0.6513
   25MOL   C31813806   5.087   0.213   1.089  0.3724  0.1766 -0.2856
   25MOL   C31913807   5.010   0.098   1.042 -0.2239  0.0519  0.0839
   25MOL   O32013808   4.894   0.088   1.113  0.3149  0.0580 -0.7966
   25MOL   C32113809   4.833   8.213   1.135  0.1809 -0.5848  0.3460
   25MOL   C32213810   4.752   8.223   1.265  1.3219  0.2470  0.8145
   25MOL   O32313811   5.045   0.026   0.948  0.0342 -0.7757 -0.0324
   25MOL   C32413812   5.039   0.301   1.187 -0.3879 -0.2589 -0.4472
   25MOL   C32513813   5.124   0.410   1.224  0.2701  0.3314 -0.4987
   25MOL   C32613814   5.075   0.500   1.328 -0.4524 -0.5689  0.4859
   25MOL   C32713815   5.154   0.609   1.371 -0.0141 -0.0368 -0.8877
   25MOL   H32813816   5.432   0.541   1.179 -0.3018 -1.2687  0.0387
   25MOL   H32913817   5.397   0.344   1.028  0.5435  0.8411  0.8190
   25MOL   H33013818   5.246   0.173   0.942 -0.3399 -0.6494 -0.8285
   25MOL   H33113819   4.917   8.144   1.140  0.4109 -0.6037 -2.6657
   25MOL   H33213820   4.765   8.191   1.053 -0.3739 -1.5208  1.0374
   25MOL   H33313821   4.722   8.120   1.286  0.5743  0.3793  0.4348
   25MOL   H33413822   4.807   0.008   1.352 -1.2544 -0.1968  2.6912
   25MOL   H33513823   4.944   0.289   1.235 -0.5963 -1.8946 -1.2440
   25MOL   H33613824   4.970   0.490   1.350 -0.7792  0.4285 -0.5499
   25MOL   H33713825   5.115   0.683   1.439  0.2398 -0.3721 -0.3685
   25MOL   O33813826   4.487   8.145   1.262 -0.5056 -0.1078 -0.0447
   25MOL   C33913827   4.519   0.001   1.213 -0.3944  0.1026  0.1412
   25MOL   O34013828   4.642   0.060   1.229  0.3807  0.0627  0.0164
   25MOL   C34113829   4.422   0.094   1.153 -0.5450 -0.2046 -0.3679
   25MOL   C34213830   4.463   0.224   1.101 -0.4068  0.5941  0.1098
   25MOL   C34313831   4.374   0.307   1.033  0.0042  0.5782 -0.2045
   25MOL   C34413832   4.417   0.429   0.971  0.0248  0.2583  0.7662
   25MOL   C34513833   4.313   0.519   0.923 -0.7891  0.4261 -0.3234
   25MOL   C34613834   4.180   0.477   0.906 -0.0083  0.2025  0.1380
   25MOL   C34713835   4.078   0.558   0.845 -0.9028 -1.1509 -0.2336
   25MOL   O34813836   4.134   0.674   0.789 -0.3541  0.2515 -0.3234
   25MOL   C34913837   4.048   0.764   0.724  0.4430 -0.1159 -0.0879
   25MOL   C35013838   4.106   0.906   0.755 -0.3023 -0.1616 -0.1707
   25MOL   O35113839   3.960   0.529   0.839 -0.7125 -0.2761  0.2172
   25MOL   C35213840   4.149   0.356   0.964 -0.1743  0.1601 -0.0220
   25MOL   C35313841   4.239   0.271   1.035  0.4187 -0.4616 -0.3907
   25MOL   C35413842   4.195   0.153   1.088 -0.4467 -0.4230 -0.5598
   25MOL   C35513843   4.285   0.060   1.146  0.7077  0.3535 -0.2697
   25MOL   H35613844   4.564   0.262   1.097  1.0610 -3.1457 -0.6827
   25MOL   H35713845   4.523   0.449   0.967  0.3376 -1.6812 -2.3163
   25MOL   H35813846   4.352   0.605   0.871  2.2837 -1.7321 -1.7583
   25MOL   H35913847   3.944   0.756   0.754  0.0305 -1.9742 -1.9253
   25MOL   H36013848   4.033   0.750   0.617 -2.9929 -3.7790  0.7599
   25MOL   H36113849   4.077   0.931   0.857  2.4092 -0.4936  0.7264
   25MOL   H36213850   4.215   0.904   0.758 -0.3269 -0.0446  1.0628
   25MOL   H36313851   4.049   0.316   0.958  0.5281 -1.8105  1.1515
   25MOL   H36413852   4.087   0.151   1.098 -0.7253  1.9845 -2.5690
   25MOL   H36513853   4.259   8.211   1.183 -1.3320  0.6450 -0.8659
   25MOL   O36613854   4.144   0.904   0.486 -0.0453 -0.5302 -0.3233
   25MOL   C36713855   4.099   1.004   0.538  0.0574 -0.0566  0.7322
   25MOL   O36813856   4.069   1.008   0.668  0.2486 -0.5893 -0.2174
   25MOL   C36913857   4.066   1.131   0.469  0.5781  0.0036 -0.1458
   25MOL   C37013858   4.024   1.246   0.536  0.3257  0.5441  0.5779
   25MOL   C37113859   3.997   1.363   0.465  0.3753 -0.4521 -0.7586
   25MOL   C37213860   3.958   1.479   0.534 -0.3111  0.4087 -0.0571
   25MOL   C37313861   3.940   1.598   0.468 -0.0598 -0.7526 -0.4887
   25MOL   C37413862   3.937   1.606   0.326 -0.2879  0.4867  0.3721
   25MOL   C37513863   3.918   1.731   0.249  0.2501 -0.5037  0.4361
   25MOL   O37613864   3.903   1.830   0.328 -0.5915 -0.9932 -0.4877
   25MOL   C37713865   3.883   1.962   0.277  0.3878 -0.0836 -0.3229
   25MOL   C37813866   3.916   2.079   0.375  0.8334 -0.6627 -0.1078
   25MOL   O37913867   3.917   1.739   0.126  0.1447 -0.0154 -0.0296
   25MOL   C38013868   3.963   1.486   0.258 -0.0750  0.1211 -0.1902
   25MOL   C38113869   3.995   1.364   0.322  0.3366 -0.1743  0.1489
   25MOL   C38213870   4.039   1.252   0.261 -0.1446 -0.3788  0.6632
   25MOL   C38313871   4.068   1.134   0.329  0.4716  0.1856 -0.3387
   25MOL   H38413872   4.025   1.246   0.644  1.1771  0.4906  0.5731
   25MOL   H38513873   3.929   1.471   0.637  0.1426 -0.9441 -0.0340
   25MOL   H38613874   3.927   1.689   0.525  0.1681 -1.1297  0.1730
   25MOL   H38713875   3.778   1.978   0.253  0.1863 -1.0228 -0.1029
   25MOL   H38813876   3.933   1.969   0.180 -2.4504  2.4619 -1.6652
   25MOL   H38913877   4.023   2.102   0.377  0.6804  0.0191  0.3745
   25MOL   H39013878   3.874   2.173   0.338 -0.0136 -1.4249 -1.1003
   25MOL   H39113879   3.958   1.492   0.150 -0.8844 -0.8144 -0.2172
   25MOL   H39213880   4.061   1.259   0.155 -3.2765 -1.2429 -0.0781
   25MOL   H39313881   4.112   1.047   0.283  0.1770 -0.2278  0.1525
   25MOL   O39413882   4.050   1.963   0.578  0.9790  0.5234  0.0373
   25MOL   C39513883   3.937   1.998   0.591  0.1693  0.1843 -1.0112
   25MOL   O39613884   3.861   2.037   0.494  0.2001 -0.2097  0.3127
   25MOL   C39713885   3.880   2.023   0.722  0.0800  0.2977 -0.3723
   25MOL   C39813886   3.954   1.986   0.839  0.1062 -0.2068 -0.6236
   25MOL   C39913887   3.894   1.999   0.967 -0.2598 -0.2602 -0.9392
   25MOL   C40013888   3.960   1.951   1.087 -0.2583 -0.2841  0.2786
   25MOL   C40113889   3.907   1.978   1.210 -0.5994  0.6519 -0.2988
   25MOL   C40213890   3.777   2.034   1.221  0.1079 -0.1586 -0.4700
   25MOL   C40313891   3.716   2.052   1.359  0.2072  0.0416  0.1319
   25MOL   O40413892   3.588   2.039   1.352  0.3614 -0.2187 -0.1875
   25MOL   C40513893   3.495   2.049   1.456 -0.4265 -0.1458 -0.8479
   25MOL   C40613894   3.510   1.944   1.575 -0.2952 -0.0111  0.2236
   25MOL   O40713895   3.775   2.092   1.460 -0.1222 -0.1535 -0.7547
   25MOL   C40813896   3.705   2.063   1.103 -1.0619 -0.1302  0.3051
   25MOL   C40913897   3.767   2.047   0.979  0.1182 -0.1673 -0.4623
   25MOL   C41013898   3.691   2.079   0.865 -0.3036  0.2624 -0.1544
   25MOL   C41113899   3.745   2.062   0.735  0.2327  0.3927 -0.2211
   25MOL   H41213900   4.052   1.942   0.828 -0.0604 -0.6095 -0.5067
   25MOL   H41313901   4.051   1.895   1.078  1.1381  1.9664  0.0128
   25MOL   H41413902   3.957   1.953   1.302 -1.3213 -0.3336 -0.1601
   25MOL   H41513903   3.404   2.014   1.406 -1.0888 -2.3949  1.7708
   25MOL   H41613904   3.480   2.149   1.496 -1.0869  0.0368 -1.5363
   25MOL   H41713905   3.525   1.840   1.544  0.7187  1.0607 -3.0206
   25MOL   H41813906   3.592   1.980   1.638  0.8933  0.5003 -1.5787
   25MOL   H41913907   3.606   2.108   1.103 -0.7511  0.5716 -0.7722
   25MOL   H42013908   3.590   2.118   0.872 -0.6929 -0.6440 -0.6396
   25MOL   H42113909   3.674   2.084   0.657  0.1796 -0.2450 -0.3605
   25MOL   O42213910   3.298   1.775   1.536  0.2311 -0.3979 -0.1654
   25MOL   C42313911   3.286   1.868   1.616 -0.0583  0.1955 -0.5429
   25MOL   O42413912   3.388   1.947   1.650 -0.0182 -0.5316 -0.2643
   25MOL   C42513913   3.170   1.885   1.707  0.1278 -0.5803 -0.2002
   25MOL   C42613914   3.177   1.947   1.838  0.2636  0.2266 -0.0038
   25MOL   C42713915   3.072   1.942   1.929  0.3338  0.3670 -0.5418
   25MOL   C42813916   3.077   2.003   2.054  0.2698  0.3204 -0.0676
   25MOL   C42913917   2.964   2.004   2.138  0.4844  0.2143  0.0082
   25MOL   C43013918   2.842   1.938   2.092 -0.0657  0.3048 -0.3073
   25MOL   C43113919   2.724   1.946   2.182 -0.7205  0.0376 -0.2452
   25MOL   O43213920   2.612   1.928   2.115  0.2935  0.3144 -0.1237
   25MOL   C43313921   2.489   1.914   2.178 -0.2518 -0.1076 -0.1743
   25MOL   C43413922   2.424   2.053   2.172  0.6542 -0.1263  0.3612
   25MOL   O43513923   2.735   1.952   2.304  0.0949 -0.0972  0.5094
   25MOL   C43613924   2.839   1.871   1.975 -0.5021  0.4937 -0.3717
   25MOL   C43713925   2.951   1.875   1.889 -0.4003 -0.4340 -0.1407
   25MOL   C43813926   2.940   1.816   1.762 -0.6620  0.0634 -0.0312
   25MOL   C43913927   3.050   1.817   1.678  0.2161  0.0814  0.0261
   25MOL   H44013928   3.267   2.004   1.857 -0.7419  1.7358  0.3682
   25MOL   H44113929   3.168   2.053   2.084  0.2120 -0.1998  0.9837
   25MOL   H44213930   2.962   2.059   2.231  0.6279  0.9423 -0.4080
   25MOL   H44313931   2.499   1.878   2.281  0.2065  0.1690 -0.1162
   25MOL   H44413932   2.434   1.835   2.127  0.5036  0.9313 -2.7043
   25MOL   H44513933   2.465   2.111   2.089 -0.5526  0.5296  0.2141
   25MOL   H44613934   2.319   2.039   2.146  0.5205  0.3522  0.6405
   25MOL   H44713935   2.750   1.816   1.949 -1.8187  2.5242 -0.2152
   25MOL   H44813936   2.853   1.753   1.746 -0.9640  0.9576 -1.9611
   25MOL   H44913937   3.026   1.774   1.582 -0.2699  0.0417  0.1647
   25MOL   O45013938   2.216   2.086   2.341 -0.1195  0.2047  0.3361
   25MOL   C45113939   2.332   2.109   2.382  0.2342 -0.1115  0.0030
   25MOL   O45213940   2.441   2.118   2.302 -0.0074 -0.2116  0.5233
   25MOL   C45313941   2.368   2.093   2.526 -0.2433  0.4058  0.6917
   25MOL   C45413942   2.266   2.110   2.624  0.2232 -0.8810  0.1610
   25MOL   C45513943   2.296   2.113   2.761 -0.3178 -0.1127 -0.2837
   25MOL   C45613944   2.200   2.132   2.859  0.3275 -0.0423  0.2037
   25MOL   C45713945   2.227   2.128   2.996 -0.5002 -0.1498 -0.2191
   25MOL   C45813946   2.361   2.125   3.035  0.4881 -0.5975 -0.6661
   25MOL   C45913947   2.392   2.133   3.182  0.2804  0.4651 -0.2809
   25MOL   O46013948   2.289   2.119   3.272 -0.4598  0.4067  0.0080
   25MOL   C46113949   2.303   2.110   3.410 -1.1124 -0.2395 -0.1734
   25MOL   C46213950   2.169   2.055   3.456 -0.3166  0.6695 -0.7921
   25MOL   O46313951   2.506   2.157   3.224  0.5036 -0.1631 -0.3567
   25MOL   C46413952   2.465   2.119   2.940 -0.0389 -0.0431  0.2756
   25MOL   C46513953   2.433   2.097   2.802 -0.3923 -0.6080  0.0129
   25MOL   C46613954   2.533   2.072   2.704  0.3263 -0.0068  0.1043
   25MOL   C46713955   2.497   2.067   2.568 -0.2387 -0.2417  0.8289
   25MOL   H46813956   2.162   2.115   2.594  0.3196  1.0532  0.0492
   25MOL   H46913957   2.097   2.137   2.824  0.1738  1.7301  0.8325
   25MOL   H47013958   2.149   2.126   3.070  2.5594  1.1789  3.2000
   25MOL   H47113959   2.317   2.216   3.435  0.9096 -1.1330  2.6953
   25MOL   H47213960   2.392   2.059   3.447 -2.1282 -1.5213  0.5211
   25MOL   H47313961   2.086   2.108   3.411 -1.1694  0.5713  0.6455
   25MOL   H47413962   2.165   1.949   3.430  0.7584 -0.6511  3.8763
   25MOL   H47513963   2.567   2.126   2.973  0.6277 -1.9737 -1.3083
   25MOL   H47613964   2.633   2.057   2.742  0.0475 -1.5587  0.2550
   25MOL   H47713965   2.579   2.055   2.498  0.2639 -1.5370  1.6147
   25MOL   O47813966   2.166   2.288   3.610 -0.0826  0.0525 -0.0713
   25MOL   C47913967   2.165   2.178   3.665  0.2385 -0.8683  0.4752
   25MOL   O48013968   2.158   2.059   3.595  0.7451 -0.3892  0.0943
   25MOL   C48113969   2.177   2.156   3.814 -0.3972  0.2114  0.1012
   25MOL   C48213970   2.121   2.038   3.876 -0.5970 -0.8235  0.4316
   25MOL   C48313971   2.113   2.026   4.016 -0.0834  0.4490 -0.3142
   25MOL   C48413972   2.063   1.907   4.072  0.3184 -0.3118 -0.1489
   25MOL   C48513973   2.071   1.888   4.208 -0.3893 -0.1407  0.2376
   25MOL   C48613974   2.130   1.980   4.294 -0.1161 -0.4148  0.0212
   25MOL   C48713975   2.127   1.959   4.444  0.3656  0.2260 -0.4011
   25MOL   O48813976   2.056   1.850   4.490  0.0708  0.2978  0.0225
   25MOL   C48913977   2.046   1.809   4.627 -0.6320  0.3215  0.1945
   25MOL   C49013978   1.891   1.818   4.655 -0.0134  0.1504  0.2575
   25MOL   O49113979   2.173   2.041   4.523 -0.4792  0.5115 -0.1181
   25MOL   C49213980   2.182   2.099   4.240 -0.7208  0.0900  0.2008
   25MOL   C49313981   2.176   2.121   4.099  0.5996  0.0768  0.7583
   25MOL   C49413982   2.228   2.238   4.047 -0.3752 -0.5939  0.6536
   25MOL   C49513983   2.232   2.248   3.904 -0.2081 -0.8377  0.6868
   25MOL   H49613984   2.078   1.957   3.820 -0.9355  0.2475 -0.8779
   25MOL   H49713985   2.014   1.833   4.012 -0.8348 -1.9357  2.6899
   25MOL   H49813986   2.040   1.793   4.249  0.8928  0.1375  1.8786
   25MOL   H49913987   2.107   1.877   4.687 -0.0127  0.6843 -0.8136
   25MOL   H50013988   2.074   1.706   4.652  0.7029  0.5156 -0.4199
   25MOL   H50113989   1.872   1.789   4.759 -0.3425  0.7850  0.3791
   25MOL   H50213990   1.863   1.923   4.654  0.6460  0.3376  0.7853
   25MOL   H50313991   2.218   2.177   4.306 -0.4986 -0.5416  0.8472
   25MOL   H50413992   2.276   2.314   4.108  0.8256 -1.0932  0.3494
   25MOL   H50513993   2.278   2.338   3.864 -1.5031 -0.3904  0.1775
   25MOL   O50613994   1.867   1.546   4.634 -0.5252 -0.1401 -0.1972
   25MOL   C50713995   1.823   1.621   4.545 -0.0960  0.3855  0.2284
   25MOL   O50813996   1.816   1.748   4.550  0.3449  0.8168 -0.2879
   25MOL   C50913997   1.761   1.559   4.417  0.1934  0.1699 -0.1064
   25MOL   C51013998   1.733   1.420   4.414  0.0262 -0.2323  0.1276
   25MOL   C51113999   1.677   1.364   4.298 -0.9088 -0.0685  0.5017
   25MOL   C51214000   1.647   1.228   4.281 -0.2629 -0.5633  0.2876
   25MOL   C51314001   1.583   1.180   4.163  0.0031  0.2293  0.4268
   25MOL   C51414002   1.562   1.266   4.052  0.3254  0.3550 -0.3478
   25MOL   C51514003   1.512   1.215   3.919 -0.9186  0.0195 -0.3393
   25MOL   O51614004   1.542   1.076   3.897 -0.0321  0.6824  0.0028
   25MOL   C51714005   1.518   1.020   3.773  0.7333  1.0266  0.0308
   25MOL   C51814006   1.374   0.979   3.762 -0.3564  0.3330  0.1200
   25MOL   O51914007   1.453   1.279   3.831 -0.4582  0.1021 -0.1419
   25MOL   C52014008   1.602   1.402   4.065  0.5097  0.1040 -0.3486
   25MOL   C52114009   1.651   1.453   4.185 -0.2817  0.3739 -0.7724
   25MOL   C52214010   1.691   1.585   4.189  0.0077  0.1723 -0.3015
   25MOL   C52314011   1.749   1.638   4.302 -1.1409 -0.3496 -0.7887
   25MOL   H52414012   1.755   1.364   4.503  0.9486  1.0780  0.7533
   25MOL   H52514013   1.678   1.168   4.365  0.4965 -1.9004 -0.9144
   25MOL   H52614014   1.573   1.074   4.145  0.6459  0.3085 -0.4421
   25MOL   H52714015   1.574   0.932   3.744  0.0826  0.8827 -0.8106
   25MOL   H52814016   1.524   1.103   3.703 -1.8691  1.3433  0.1303
   25MOL   H52914017   1.314   1.038   3.832  0.2514  0.7130  0.3187
   25MOL   H53014018   1.348   1.005   3.659 -1.6383  0.5732  0.4951
   25MOL   H53114019   1.574   1.469   3.985 -0.3377  0.1864  0.0106
   25MOL   H53214020   1.681   1.644   4.099 -1.1908 -0.1712 -0.4070
   25MOL   H53314021   1.783   1.740   4.303  1.9764 -1.3522 -1.1476
   25MOL   O53414022   1.347   0.800   3.553  0.5143 -0.5450 -0.8592
   25MOL   C53514023   1.341   0.764   3.672 -0.6883 -0.6439  0.2769
   25MOL   O53614024   1.358   0.841   3.775 -0.3465 -0.3308  0.1222
   25MOL   C53714025   1.314   0.621   3.709 -0.5707  0.0820  0.2537
   25MOL   C53814026   1.284   0.526   3.608 -0.0701  0.2614 -0.6991
   25MOL   C53914027   1.254   0.391   3.643  0.1156 -0.2001 -0.0583
   25MOL   C54014028   1.217   0.294   3.549 -0.0728 -0.4760 -0.7853
   25MOL   C54114029   1.184   0.166   3.590 -0.4718  0.1449 -0.1637
   25MOL   C54214030   1.187   0.132   3.728 -0.5122  0.4162  0.2382
   25MOL   C54314031   1.172   8.236   3.768 -0.0169 -0.1549 -0.5020
   25MOL   O54414032   1.175   8.220   3.899  0.1189  0.0169  0.2628
   25MOL   C54514033   1.168   8.084   3.943 -0.3177  0.1103 -0.1874
   25MOL   C54614034   1.225   8.063   4.081  0.5374 -0.5129 -0.1614
   25MOL   O54714035   1.150   8.147   3.687 -0.0635 -0.1429  0.2225
   25MOL   C54814036   1.220   0.232   3.821 -0.5037 -0.5158 -0.4131
   25MOL   C54914037   1.255   0.363   3.778 -0.2847  0.8069 -0.1933
   25MOL   C55014038   1.285   0.454   3.878 -0.1826  0.4974  0.6696
   25MOL   C55114039   1.322   0.584   3.845 -0.0470 -0.1664  0.2636
   25MOL   H55214040   1.277   0.552   3.503  1.0943 -2.4715 -1.5036
   25MOL   H55314041   1.212   0.326   3.446  2.0299  2.9099  0.0864
   25MOL   H55414042   1.140   0.094   3.522  1.1010 -1.8937  0.9088
   25MOL   H55514043   1.225   8.037   3.862 -0.3915 -0.5811  0.1576
   25MOL   H55614044   1.064   8.051   3.938 -0.5042  0.5575  0.6332
   25MOL   H55714045   1.157   8.092   4.161  1.3887 -0.8859  0.7106
   25MOL   H55814046   1.316   8.119   4.102  0.2533 -0.3195  0.5398
   25MOL   H55914047   1.243   0.210   3.924  1.7200  0.5994 -0.6350
   25MOL   H56014048   1.286   0.418   3.980  0.4189 -2.8563 -0.4396
   25MOL   H56114049   1.351   0.644   3.930 -1.8603  0.3585  0.5457
   25MOL   H56214050   1.251   7.959   4.103 -1.2612 -0.5340  2.0345
   26MOL     O114051   0.594   5.586   6.270  0.7419  0.0046  0.0438
   26MOL     C214052   0.502   5.507   6.237 -0.7989  0.1897 -0.2168
   26MOL     O314053   0.409   5.542   6.141  0.2057 -0.2053  0.0655
   26MOL     C414054   0.504   5.360   6.268  0.5432 -0.0119 -0.0865
   26MOL     C514055   0.621   5.288   6.293  0.0937  0.6903 -0.2219
   26MOL     C614056   0.612   5.155   6.342 -0.3654  0.5882  0.8769
   26MOL     C714057   0.735   5.088   6.363 -0.6378  0.4082 -0.5474
   26MOL     C814058   0.731   4.951   6.386 -0.0920  0.6939 -0.4655
   26MOL     C914059   0.610   4.884   6.413 -0.0252  0.5495 -0.1792
   26MOL    C1014060   0.604   4.745   6.454  0.8415 -0.4054  0.0578
   26MOL    O1114061   0.706   4.707   6.538  0.6933  0.6307  0.1858
   26MOL    C1214062   0.718   4.572   6.578 -0.2129  0.7456 -1.2790
   26MOL    C1314063   0.862   4.525   6.569  0.7423 -0.0375 -0.0731
   26MOL    O1414064   0.511   4.669   6.413 -0.1067 -0.4581  0.5188
   26MOL    C1514065   0.489   4.953   6.392 -0.2651  0.3372 -0.1945
   26MOL    C1614066   0.491   5.083   6.340  0.2139  0.0657 -0.1696
   26MOL    C1714067   0.374   5.154   6.318  0.7605 -0.3466  0.2209
   26MOL    C1814068   0.385   5.291   6.282  0.4895  0.0324  0.0730
   26MOL    H1914069   0.712   5.343   6.279 -0.5722  1.9388  0.2444
   26MOL    H2014070   0.827   5.145   6.362 -0.1883 -0.3068  0.0210
   26MOL    H2114071   0.830   4.917   6.410 -0.9774 -0.8190  1.1877
   26MOL    H2214072   0.681   4.558   6.679 -3.2441  0.7801 -2.3481
   26MOL    H2314073   0.669   4.501   6.512 -1.8852 -0.4580  1.1908
   26MOL    H2414074   0.930   4.602   6.607 -0.9835  1.4635  0.0103
   26MOL    H2514075   0.874   4.433   6.625 -2.5479 -0.4138  0.0761
   26MOL    H2614076   0.397   4.904   6.419  0.1852 -1.2337 -1.4344
   26MOL    H2714077   0.274   5.118   6.336 -0.0108  1.4702 -0.3553
   26MOL    H2814078   0.302   5.350   6.246  0.1967  0.5276  1.5387
   26MOL    H2914079   0.435   5.616   6.087  0.4354 -0.8803 -0.7588
   26MOL    O3014080   0.990   4.694   6.379  0.7187  0.1865 -0.2181
   26MOL    C3114081   0.979   4.574   6.364 -0.4323 -0.1124 -0.2959
   26MOL    O3214082   0.891   4.495   6.429 -0.6580 -0.1278  1.2450
   26MOL    C3314083   1.063   4.503   6.259  0.0291 -0.2565 -0.3500
   26MOL    C3414084   1.147   4.572   6.172 -0.0606 -0.8304  0.7310
   26MOL    C3514085   1.218   4.506   6.072 -0.2804 -0.6801 -0.1390
   26MOL    C3614086   1.295   4.587   5.988 -0.1162  0.2160  0.2538
   26MOL    C3714087   1.378   4.518   5.891  0.5111 -0.1879 -0.3593
   26MOL    C3814088   1.376   4.378   5.879 -0.4946 -0.1948 -0.7443
   26MOL    C3914089   1.474   4.310   5.785 -0.5223 -0.0017  0.1392
   26MOL    O4014090   1.441   4.185   5.765 -0.0933  0.4372  0.7346
   26MOL    C4114091   1.518   4.107   5.674 -0.9420 -0.4677 -0.4957
   26MOL    C4214092   1.480   3.960   5.658 -0.3851 -1.0593 -0.7179
   26MOL    O4314093   1.566   4.370   5.725 -0.0416  0.0431 -0.7627
   26MOL    C4414094   1.282   4.306   5.956  0.3491 -0.8474  0.2491
   26MOL    C4514095   1.203   4.367   6.052 -0.5416 -0.0401 -0.0806
   26MOL    C4614096   1.118   4.290   6.133  0.2343  0.3554  0.4071
   26MOL    C4714097   1.049   4.364   6.234 -0.1921 -0.0130 -0.0669
   26MOL    H4814098   1.155   4.680   6.173  0.2500 -0.8307 -1.1674
   26MOL    H4914099   1.320   4.689   6.008  0.1032  0.3341 -0.5806
   26MOL    H5014100   1.442   4.578   5.828  0.3889  0.4890  0.1521
   26MOL    H5114101   1.619   4.094   5.713 -0.6827 -0.6210 -1.2042
   26MOL    H5214102   1.515   4.157   5.577 -0.5974 -0.1969 -0.3697
   26MOL    H5314103   1.562   3.898   5.693 -0.7903 -0.7675  0.7874
   26MOL    H5414104   1.387   3.932   5.709  0.4178 -2.8201 -0.1886
   26MOL    H5514105   1.273   4.200   5.939  0.6658 -0.7804 -0.3746
   26MOL    H5614106   1.106   4.183   6.120  0.4515  0.5161 -1.1633
   26MOL    H5714107   0.980   4.304   6.291 -1.3744 -1.1785 -2.6286
   26MOL    O5814108   1.230   3.970   5.526  0.1438  0.5468  0.4544
   26MOL    C5914109   1.326   3.931   5.466  0.3966  0.5218 -0.2960
   26MOL    O6014110   1.452   3.929   5.515 -0.6517  0.3216 -0.1641
   26MOL    C6114111   1.317   3.849   5.337 -0.0208 -0.3396 -0.3329
   26MOL    C6214112   1.193   3.829   5.272  0.0286  0.5730 -0.3850
   26MOL    C6314113   1.186   3.766   5.148 -0.2277  0.3426 -0.2451
   26MOL    C6414114   1.067   3.754   5.086  0.3880  0.1358 -0.3234
   26MOL    C6514115   1.068   3.706   4.954 -0.0479  0.4138 -0.2359
   26MOL    C6614116   1.178   3.658   4.887  0.5994 -0.5345 -0.3749
   26MOL    C6714117   1.181   3.613   4.748  0.9969 -0.0625  0.2522
   26MOL    O6814118   1.307   3.605   4.701 -0.2915  0.6224 -0.9056
   26MOL    C6914119   1.327   3.558   4.573 -0.2959 -0.4247  0.1260
   26MOL    C7014120   1.355   3.400   4.574 -0.2639 -0.0847  0.2355
   26MOL    O7114121   1.082   3.583   4.675  0.1994  0.0396 -0.4157
   26MOL    C7214122   1.302   3.662   4.962 -0.4920 -0.4121  0.3190
   26MOL    C7314123   1.305   3.724   5.086 -0.2949 -0.3456 -0.6973
   26MOL    C7414124   1.423   3.724   5.162  0.2299  0.0926 -0.0701
   26MOL    C7514125   1.430   3.787   5.288 -0.4016 -0.0873 -0.1429
   26MOL    H7614126   1.100   3.858   5.320  0.5446 -0.4993  1.3158
   26MOL    H7714127   0.980   3.782   5.143  1.6266  0.7970  1.2746
   26MOL    H7814128   0.969   3.702   4.911  0.5628  1.3204 -1.7754
   26MOL    H7914129   1.408   3.614   4.524  1.3532 -2.1178  0.8543
   26MOL    H8014130   1.240   3.578   4.510 -0.5742  0.2672  0.7329
   26MOL    H8114131   1.279   3.348   4.634 -1.4358  2.1570  0.7537
   26MOL    H8214132   1.344   3.352   4.477  0.6787  1.8213 -0.8309
   26MOL    H8314133   1.390   3.610   4.924 -1.7136 -0.8782 -1.9739
   26MOL    H8414134   1.509   3.670   5.126  1.2152 -0.5319  3.0785
   26MOL    H8514135   1.525   3.793   5.339 -1.5960  0.6732  2.0822
   26MOL    O8614136   1.416   3.349   4.840 -0.0970 -0.2564  0.1297
   26MOL    C8714137   1.507   3.358   4.754 -0.0498 -0.0533 -0.1188
   26MOL    O8814138   1.480   3.384   4.621  0.3844  0.0897  0.0950
   26MOL    C8914139   1.656   3.337   4.778  0.2576  0.0221  0.6169
   26MOL    C9014140   1.751   3.413   4.698  0.1367  0.8223 -0.1238
   26MOL    C9114141   1.886   3.398   4.728  0.1669  0.1381  0.1432
   26MOL    C9214142   1.980   3.456   4.637 -0.4675 -0.2308 -0.0549
   26MOL    C9314143   2.114   3.477   4.676  0.3199  0.0602  0.4304
   26MOL    C9414144   2.162   3.413   4.790  0.1703  0.2980  0.0377
   26MOL    C9514145   2.302   3.418   4.828  0.4664 -0.2539 -0.2420
   26MOL    O9614146   2.336   3.363   4.944  0.2531  0.0965 -0.2059
   26MOL    C9714147   2.458   3.407   4.999  0.0096  0.3745  0.7004
   26MOL    C9814148   2.510   3.287   5.074  0.3128 -0.1373  0.5519
   26MOL    O9914149   2.377   3.485   4.756 -0.0950 -0.5702  0.3406
   26MOL   C10014150   2.071   3.342   4.876  0.6556  0.1136 -0.4328
   26MOL   C10114151   1.932   3.329   4.844 -0.4800  0.5146  0.1644
   26MOL   C10214152   1.839   3.256   4.923 -0.1679  0.4841 -0.0668
   26MOL   C10314153   1.702   3.254   4.882  0.8161 -0.5886 -1.1766
   26MOL   H10414154   1.712   3.468   4.614  1.0028  2.2268  0.3802
   26MOL   H10514155   1.951   3.499   4.542  1.6634  3.2711  0.8175
   26MOL   H10614156   2.188   3.531   4.618  0.9615 -0.3838  0.8277
   26MOL   H10714157   2.436   3.489   5.068  0.6101  0.5349  0.7037
   26MOL   H10814158   2.526   3.450   4.926 -0.9697 -0.3588 -0.6615
   26MOL   H10914159   2.524   3.198   5.012  1.3106 -1.5313  2.7103
   26MOL   H11014160   2.608   3.308   5.118  0.1188  2.2160 -0.0733
   26MOL   H11114161   2.105   3.280   4.958 -0.7785 -0.4018 -0.2104
   26MOL   H11214162   1.875   3.193   5.003 -0.0142  0.0110 -0.5079
   26MOL   H11314163   1.632   3.207   4.950  0.1213  0.8536 -0.8816
   26MOL   O11414164   2.486   3.373   5.342  0.4833  0.1325 -0.2667
   26MOL   C11514165   2.401   3.301   5.288  0.3021  0.8384  0.3518
   26MOL   O11614166   2.413   3.247   5.169 -0.4417 -0.2152 -0.2594
   26MOL   C11714167   2.267   3.264   5.350  0.9634  0.5402  0.2061
   26MOL   C11814168   2.237   3.308   5.483 -0.7067  0.7029 -0.0871
   26MOL   C11914169   2.120   3.269   5.551 -0.1921  0.0154 -0.1202
   26MOL   C12014170   2.092   3.311   5.680  0.2357 -0.6917 -0.2769
   26MOL   C12114171   1.968   3.280   5.738  0.2260  0.7944 -0.4647
   26MOL   C12214172   1.874   3.199   5.671  0.2690  0.6543 -0.1573
   26MOL   C12314173   1.749   3.158   5.742 -1.1260  0.6843  0.3666
   26MOL   O12414174   1.656   3.087   5.664 -0.1251  0.3369 -0.2551
   26MOL   C12514175   1.526   3.042   5.708 -0.2895 -0.1416  0.1954
   26MOL   C12614176   1.418   3.148   5.735  0.0646 -0.5683 -0.8815
   26MOL   O12714177   1.720   3.206   5.847  0.4758  0.6169  0.4145
   26MOL   C12814178   1.905   3.152   5.543 -0.5861 -0.4495  0.2502
   26MOL   C12914179   2.022   3.192   5.480 -0.5826  0.2542  0.2472
   26MOL   C13014180   2.047   3.150   5.350  0.0650 -0.7556  0.9287
   26MOL   C13114181   2.166   3.189   5.284  0.6062  0.6064  0.4316
   26MOL   H13214182   2.314   3.355   5.543 -0.2361 -0.1529 -0.0103
   26MOL   H13314183   2.165   3.372   5.731 -1.1268  0.0045  0.8842
   26MOL   H13414184   1.947   3.319   5.836 -0.4868  1.1359 -0.7531
   26MOL   H13514185   1.542   2.981   5.797  0.4524 -0.7077 -0.3149
   26MOL   H13614186   1.483   2.983   5.628  0.2618  1.6180 -1.4434
   26MOL   H13714187   1.404   3.214   5.649 -1.2449  0.4456  0.0915
   26MOL   H13814188   1.324   3.094   5.739  1.1248 -2.3434  0.7718
   26MOL   H13914189   1.840   3.085   5.489 -0.1704 -0.0196 -0.8016
   26MOL   H14014190   1.977   3.091   5.292 -0.7447  0.7451  0.3750
   26MOL   H14114191   2.169   3.163   5.179 -1.2045 -2.0575  0.9693
   26MOL   O14214192   1.200   3.246   5.882 -0.0940  0.4430 -0.1759
   26MOL   C14314193   1.318   3.259   5.923 -0.1731  0.5422 -0.3287
   26MOL   O14414194   1.422   3.206   5.867 -0.1761 -0.1172  0.0376
   26MOL   C14514195   1.354   3.336   6.053  0.4218  0.1567 -0.5284
   26MOL   C14614196   1.255   3.407   6.120 -0.4637  0.0309  0.2952
   26MOL   C14714197   1.286   3.493   6.226  0.0282 -0.3186  0.4832
   26MOL   C14814198   1.179   3.566   6.283 -0.1146  0.2122  0.6009
   26MOL   C14914199   1.206   3.655   6.391  0.3402 -0.2341  0.2047
   26MOL   C15014200   1.336   3.665   6.443  0.1669  0.4473  0.5625
   26MOL   C15114201   1.363   3.741   6.563  0.5232 -0.2725  0.4153
   26MOL   O15214202   1.257   3.786   6.620 -0.6371  0.2108  0.0943
   26MOL   C15314203   1.261   3.894   6.715  0.1122  0.8232  0.0561
   26MOL   C15414204   1.263   3.835   6.859  0.2112  0.0732  0.2854
   26MOL   O15514205   1.475   3.759   6.609  0.8705 -0.2586 -0.0684
   26MOL   C15614206   1.440   3.590   6.384 -0.4878 -0.7396 -0.7895
   26MOL   C15714207   1.419   3.496   6.279 -0.7194  0.5837 -0.0414
   26MOL   C15814208   1.524   3.427   6.209 -0.8340  0.3985  0.3085
   26MOL   C15914209   1.487   3.345   6.098 -1.1931  0.1469  0.0308
   26MOL   H16014210   1.154   3.398   6.082  0.3020 -0.6785 -1.6224
   26MOL   H16114211   1.075   3.553   6.254  0.4732  2.7167 -2.9078
   26MOL   H16214212   1.127   3.707   6.443  1.2506  0.8590  0.5034
   26MOL   H16314213   1.171   3.956   6.706  1.5217  2.6321 -1.9421
   26MOL   H16414214   1.349   3.955   6.698  1.8838 -1.7791 -0.4094
   26MOL   H16514215   1.168   3.811   6.908 -0.2014 -1.3587 -1.1605
   26MOL   H16614216   1.315   3.739   6.858 -0.1118 -0.0958 -0.9758
   26MOL   H16714217   1.540   3.603   6.424 -1.0789  0.2102  0.3734
   26MOL   H16814218   1.627   3.420   6.241 -1.4469 -3.5957  1.7803
   26MOL   H16914219   1.562   3.300   6.035 -0.4911  0.7800  0.4140
   26MOL   O17014220   1.526   3.859   6.884  0.3361  0.0558 -0.3310
   26MOL   C17114221   1.456   3.933   6.951  0.6055  0.5571  0.1985
   26MOL   O17214222   1.321   3.926   6.950  0.0133 -0.5484  0.2645
   26MOL   C17314223   1.502   4.042   7.040 -0.0405  0.2439  0.8842
   26MOL   C17414224   1.638   4.083   7.040 -0.7222  0.3114 -0.1457
   26MOL   C17514225   1.686   4.184   7.122 -0.1460 -0.6305 -0.9353
   26MOL   C17614226   1.818   4.217   7.124 -0.1232  0.1112  0.4114
   26MOL   C17714227   1.867   4.317   7.213  0.8279 -0.1412  0.1961
   26MOL   C17814228   1.777   4.386   7.297 -0.0957  0.1418 -0.0290
   26MOL   C17914229   1.821   4.499   7.389  0.3686  0.2834 -0.0152
   26MOL   O18014230   1.939   4.549   7.349  0.2421 -0.1314  0.0582
   26MOL   C18114231   1.990   4.668   7.411  0.5448 -0.0472 -0.0164
   26MOL   C18214232   1.936   4.801   7.340 -0.1652 -0.3488 -0.0781
   26MOL   O18314233   1.768   4.528   7.493  0.3776  0.6358 -0.0843
   26MOL   C18414234   1.641   4.350   7.298 -0.3989  0.8557  0.0361
   26MOL   C18514235   1.594   4.249   7.210 -0.1344  0.4078 -0.1660
   26MOL   C18614236   1.454   4.222   7.207 -0.1450  0.3194  0.1897
   26MOL   C18714237   1.409   4.117   7.122 -0.7321 -0.8577 -0.2236
   26MOL   H18814238   1.705   4.035   6.970  1.5039  0.7182  1.6474
   26MOL   H18914239   1.883   4.154   7.065 -1.7509 -0.3080 -0.9564
   26MOL   H19014240   1.972   4.341   7.210  1.0182 -1.0613 -1.0367
   26MOL   H19114241   2.099   4.661   7.406  0.4197 -1.2242 -1.7197
   26MOL   H19214242   1.963   4.667   7.516  0.6478 -1.0367  0.0115
   26MOL   H19314243   2.008   4.882   7.346  0.6166 -1.2211  3.4819
   26MOL   H19414244   1.904   4.795   7.236 -0.0527  2.3627 -0.2841
   26MOL   H19514245   1.572   4.397   7.367 -0.0260 -0.9906  1.7243
   26MOL   H19614246   1.373   4.260   7.267  1.1521  0.1178  2.1223
   26MOL   H19714247   1.305   4.090   7.132 -0.4419 -0.9612  2.7485
   26MOL   O19814248   1.913   4.988   7.547  0.0966  0.6625 -0.5380
   26MOL   C19914249   1.811   4.946   7.491  0.1145  0.3573 -0.3146
   26MOL   O20014250   1.814   4.851   7.394  0.2429  0.1229 -0.8037
   26MOL   C20114251   1.673   5.000   7.506 -0.5225  0.6235 -0.0106
   26MOL   C20214252   1.647   5.104   7.602 -0.5250  0.1519  0.2723
   26MOL   C20314253   1.518   5.161   7.618  0.9872 -0.3353 -0.3781
   26MOL   C20414254   1.484   5.269   7.709 -0.7351 -0.2318  0.4196
   26MOL   C20514255   1.353   5.325   7.706 -0.1825  0.3905  0.4160
   26MOL   C20614256   1.250   5.270   7.630  0.0428 -0.9296  0.1667
   26MOL   C20714257   1.112   5.317   7.663 -0.2087 -0.6700 -0.1499
   26MOL   O20814258   1.016   5.244   7.600 -0.4983 -0.7154 -0.5013
   26MOL   C20914259   0.881   5.298   7.594  0.1077  0.6673  0.0624
   26MOL   C21014260   0.808   5.255   7.465  0.2714 -0.9674  0.0399
   26MOL   O21114261   1.100   5.412   7.743  0.6508  0.3363 -0.2290
   26MOL   C21214262   1.279   5.157   7.546 -0.5263 -0.1283 -0.5846
   26MOL   C21314263   1.412   5.107   7.538  0.0507 -0.0054 -0.0268
   26MOL   C21414264   1.438   5.009   7.445  0.4411  0.2119  0.6240
   26MOL   C21514265   1.565   4.959   7.424  0.0737 -0.2388 -0.5028
   26MOL   H21614266   1.733   5.122   7.665 -2.9505  3.3624  2.8575
   26MOL   H21714267   1.559   5.316   7.771 -0.9914 -0.2803  0.7625
   26MOL   H21814268   1.335   5.404   7.777 -2.2302 -1.8895  2.5272
   26MOL   H21914269   0.883   5.407   7.606  3.2188  0.6281  0.3472
   26MOL   H22014270   0.808   5.255   7.662 -0.5418 -2.0698 -2.2807
   26MOL   H22114271   0.758   5.159   7.479 -3.0471  0.8303  1.1647
   26MOL   H22214272   0.723   5.324   7.463 -0.3843 -1.7703 -0.1536
   26MOL   H22314273   1.198   5.107   7.496 -1.9304  0.1385  1.3915
   26MOL   H22414274   1.356   4.965   7.389  0.2773  0.4273  0.6927
   26MOL   H22514275   1.569   4.890   7.341 -0.6258 -2.3330  1.1826
   26MOL   O22614276   0.936   5.033   7.362  1.0034 -0.4080 -0.4449
   26MOL   C22714277   0.955   5.145   7.315 -0.3251  0.4472  0.4401
   26MOL   O22814278   0.893   5.261   7.351 -0.2102 -0.1949 -0.2477
   26MOL   C22914279   1.043   5.173   7.195  0.1270 -1.2247 -1.1057
   26MOL   C23014280   1.134   5.070   7.162  1.0319 -0.0778 -0.2816
   26MOL   C23114281   1.238   5.090   7.060 -0.0218  0.5602  0.0907
   26MOL   C23214282   1.345   4.995   7.045  0.5262  0.5000  0.1065
   26MOL   C23314283   1.446   5.026   6.952  0.6424  0.0166  0.3136
   26MOL   C23414284   1.434   5.141   6.875 -0.7592  0.4749 -0.0574
   26MOL   C23514285   1.534   5.171   6.767  0.6250  0.3724 -0.3591
   26MOL   O23614286   1.634   5.074   6.772 -0.1826  0.0571 -0.7179
   26MOL   C23714287   1.715   5.051   6.664  0.4693  0.4656  0.2992
   26MOL   C23814288   1.738   4.899   6.660  0.8515 -0.0316  0.4100
   26MOL   O23914289   1.524   5.258   6.683 -0.1317  0.4161  0.4501
   26MOL   C24014290   1.327   5.228   6.886  0.3731  0.1652 -0.2422
   26MOL   C24114291   1.235   5.211   6.991  0.7386  0.5265  0.3706
   26MOL   C24214292   1.141   5.306   7.021 -0.8216  0.6947 -0.5216
   26MOL   C24314293   1.043   5.293   7.124 -0.5588  0.1439  0.3212
   26MOL   H24414294   1.132   4.981   7.223 -1.3682 -0.2326 -0.5430
   26MOL   H24514295   1.342   4.904   7.104  1.3875  1.4151  1.6132
   26MOL   H24614296   1.534   4.964   6.943  1.0727  0.7189 -0.4453
   26MOL   H24714297   1.809   5.104   6.681  1.7428 -1.1835 -1.3846
   26MOL   H24814298   1.664   5.073   6.570 -1.0660  0.0638  1.0213
   26MOL   H24914299   1.800   4.875   6.747 -2.5881 -1.2832  2.6470
   26MOL   H25014300   1.642   4.847   6.667  0.3741  0.9143  1.1246
   26MOL   H25114301   1.332   5.318   6.828 -1.7625 -0.3389 -1.2569
   26MOL   H25214302   1.147   5.399   6.967 -0.3784 -0.5204 -2.6212
   26MOL   H25314303   0.979   5.379   7.140 -0.1870  0.6346 -0.7243
   26MOL   O25414304   1.709   4.661   6.549 -0.1824 -0.3355  0.1588
   26MOL   C25514305   1.774   4.747   6.488 -0.4023  0.5132 -0.1384
   26MOL   O25614306   1.798   4.863   6.541  0.0328  0.7813 -0.5213
   26MOL   C25714307   1.840   4.729   6.356 -0.3394 -0.3118 -0.2355
   26MOL   C25814308   1.902   4.836   6.295 -0.1894  0.0279  0.1250
   26MOL   C25914309   1.980   4.819   6.174 -0.3100 -0.6049 -0.3136
   26MOL   C26014310   2.058   4.929   6.129 -0.4670 -0.4645  0.5684
   26MOL   C26114311   2.135   4.906   6.012  0.2407  0.4264 -0.1605
   26MOL   C26214312   2.164   4.773   5.964  0.7522  0.5442 -0.0303
   26MOL   C26314313   2.259   4.766   5.856 -0.1046  0.4910  0.1350
   26MOL   O26414314   2.250   4.652   5.794 -0.0800 -0.2423  0.0390
   26MOL   C26514315   2.341   4.627   5.690  0.1352  0.2360  0.4384
   26MOL   C26614316   2.294   4.483   5.638  0.1373  0.2656 -0.2656
   26MOL   O26714317   2.338   4.855   5.826 -0.1034  0.1062  0.3680
   26MOL   C26814318   2.088   4.666   6.012 -0.8843  0.6205  0.3614
   26MOL   C26914319   1.995   4.693   6.112  0.7083  0.5423 -0.2361
   26MOL   C27014320   1.918   4.588   6.169 -0.1226  0.2603 -0.4977
   26MOL   C27114321   1.847   4.601   6.291 -0.4896 -0.3858 -0.1416
   26MOL   H27214322   1.891   4.940   6.321  1.9948  0.7347 -1.5904
   26MOL   H27314323   2.042   5.024   6.176 -1.1195 -0.9059  1.2445
   26MOL   H27414324   2.192   4.988   5.969  0.2759  1.3411  1.6086
   26MOL   H27514325   2.434   4.621   5.747 -0.0119  0.7480  0.7313
   26MOL   H27614326   2.341   4.710   5.620  0.3577  0.2033  0.3991
   26MOL   H27714327   2.378   4.438   5.585 -0.0710  0.0556 -0.4188
   26MOL   H27814328   2.279   4.415   5.722 -0.2183  0.6478 -0.0156
   26MOL   H27914329   2.106   4.565   5.977 -0.5195  0.0398  2.1687
   26MOL   H28014330   1.926   4.494   6.116 -0.0860  1.5357 -2.8292
   26MOL   H28114331   1.799   4.517   6.339 -0.8605  0.0677  0.2779
   26MOL   O28214332   2.015   4.563   5.703 -0.0728 -0.0522  0.7376
   26MOL   C28314333   2.061   4.541   5.589 -0.4739 -0.4069  0.2881
   26MOL   O28414334   2.187   4.500   5.551  0.4377  0.3621 -0.1032
   26MOL   C28514335   1.969   4.556   5.468 -0.3745 -0.1183 -0.0807
   26MOL   C28614336   1.833   4.580   5.490  0.2351  0.7453 -0.3412
   26MOL   C28714337   1.741   4.577   5.387 -0.7014 -0.5098  0.1486
   26MOL   C28814338   1.605   4.600   5.424  0.4622  0.3816  0.4891
   26MOL   C28914339   1.513   4.615   5.322  0.4873 -0.9121  0.2883
   26MOL   C29014340   1.552   4.595   5.185 -0.2585 -0.3889 -0.2551
   26MOL   C29114341   1.442   4.597   5.077  0.0452  0.4050 -0.4735
   26MOL   O29214342   1.315   4.629   5.129  0.1331  0.2949 -0.5295
   26MOL   C29314343   1.205   4.619   5.048  0.1649 -0.2254 -0.1642
   26MOL   C29414344   1.175   4.474   4.995 -0.3031 -0.0583 -0.2423
   26MOL   O29514345   1.466   4.574   4.960  0.1753 -0.0960  0.4525
   26MOL   C29614346   1.687   4.565   5.154  0.0806 -1.1640 -0.5847
   26MOL   C29714347   1.788   4.565   5.256  0.3715 -0.3352  0.8499
   26MOL   C29814348   1.928   4.555   5.231 -0.4707 -0.7716  0.8494
   26MOL   C29914349   2.017   4.544   5.339  0.2245 -0.8179 -0.9878
   26MOL   H30014350   1.787   4.585   5.588  0.9117  1.2407 -0.0535
   26MOL   H30114351   1.577   4.622   5.525  0.0565 -0.1425  0.4979
   26MOL   H30214352   1.409   4.631   5.349  0.3590 -1.9166  0.3896
   26MOL   H30314353   1.236   4.681   4.964 -0.0224  0.6638  0.4194
   26MOL   H30414354   1.116   4.662   5.095  2.3798  0.2297  3.8545
   26MOL   H30514355   1.270   4.429   4.964 -0.0553 -0.3086  0.8574
   26MOL   H30614356   1.139   4.420   5.083  0.5640 -1.2133 -0.5693
   26MOL   H30714357   1.718   4.548   5.052  0.4346  0.8720 -0.8316
   26MOL   H30814358   1.961   4.557   5.128  0.3723 -2.5081  1.0700
   26MOL   H30914359   2.123   4.539   5.321  0.0323 -1.3221 -2.0690
   26MOL   O31014360   1.201   4.558   4.742  0.0000  0.0140 -0.0361
   26MOL   C31114361   1.104   4.490   4.772 -0.5767 -0.2323 -0.3343
   26MOL   O31214362   1.078   4.462   4.899 -0.4202  0.0222  0.4794
   26MOL   C31314363   0.993   4.449   4.681 -0.0708  0.1821  0.9164
   26MOL   C31414364   0.999   4.494   4.551  0.3766 -0.1242  0.2038
   26MOL   C31514365   0.902   4.463   4.455  0.1976  0.0342 -0.4797
   26MOL   C31614366   0.914   4.515   4.327 -0.2788  0.0544 -0.1020
   26MOL   C31714367   0.806   4.491   4.234  0.4134 -0.0042  0.5854
   26MOL   C31814368   0.696   4.413   4.275 -0.3819  0.6558 -0.0722
   26MOL   C31914369   0.583   4.395   4.179  0.1355  0.0447 -0.3712
   26MOL   O32014370   0.625   4.404   4.061 -0.2764 -0.1518  0.1669
   26MOL   C32114371   0.548   4.360   3.956  0.0910 -0.9027  0.1587
   26MOL   C32214372   0.574   4.463   3.844 -0.6875  0.0457 -0.0058
   26MOL   O32314373   0.470   4.374   4.217  0.2469  0.0858 -0.4945
   26MOL   C32414374   0.686   4.362   4.406 -0.5574  0.4311 -0.6719
   26MOL   C32514375   0.786   4.392   4.495  0.4665 -0.0191  0.2931
   26MOL   C32614376   0.776   4.352   4.633 -0.6852 -0.1193 -0.0891
   26MOL   C32714377   0.881   4.371   4.723  0.1159 -0.7743  0.3531
   26MOL   H32814378   1.082   4.551   4.512  0.4472  0.6057  1.3741
   26MOL   H32914379   0.993   4.573   4.280 -1.2297  2.6210  1.3926
   26MOL   H33014380   0.802   4.528   4.132 -2.4715  1.9473  1.3289
   26MOL   H33114381   0.440   4.363   3.971  0.1197  1.4008  0.2167
   26MOL   H33214382   0.579   4.260   3.929 -0.4919 -0.9261 -0.4593
   26MOL   H33314383   0.522   4.436   3.752 -0.2197 -3.3532  0.6700
   26MOL   H33414384   0.537   4.563   3.869 -0.0114  1.0554 -2.8578
   26MOL   H33514385   0.603   4.310   4.452 -2.0396  2.0828 -1.4737
   26MOL   H33614386   0.693   4.297   4.675  1.1595 -1.6462  1.6705
   26MOL   H33714387   0.864   4.338   4.824  2.3330  0.9675  1.3504
   26MOL   O33814388   0.710   4.508   3.604 -0.2979  0.0961 -0.0562
   26MOL   C33914389   0.774   4.479   3.709  0.1523 -0.3084  0.0084
   26MOL   O34014390   0.712   4.481   3.825  0.8874  0.4046 -0.1976
   26MOL   C34114391   0.922   4.459   3.717  0.1157  0.7029 -0.2418
   26MOL   C34214392   0.994   4.441   3.601  0.3374 -0.7659  1.0930
   26MOL   C34314393   1.133   4.416   3.605  0.4165  0.1283 -0.3189
   26MOL   C34414394   1.195   4.400   3.481  0.4210 -0.0392  0.1206
   26MOL   C34514395   1.330   4.370   3.480  0.2154  0.5403 -0.9518
   26MOL   C34614396   1.401   4.366   3.603 -0.3898 -0.1789  0.4044
   26MOL   C34714397   1.548   4.347   3.593  0.5132  0.0706  0.3509
   26MOL   O34814398   1.611   4.335   3.714  0.1639  0.1880 -0.0701
   26MOL   C34914399   1.738   4.269   3.718  0.3790 -0.1713  0.2198
   26MOL   C35014400   1.775   4.263   3.867  0.0526  0.5054  0.3976
   26MOL   O35114401   1.605   4.328   3.487 -0.4572  0.1066  0.3890
   26MOL   C35214402   1.344   4.396   3.729  0.9898  0.2858 -0.0555
   26MOL   C35314403   1.203   4.420   3.730 -0.1460 -0.2705 -0.0851
   26MOL   C35414404   1.139   4.453   3.848 -0.3449  0.0267  0.1774
   26MOL   C35514405   0.991   4.461   3.842 -0.2012  0.0161  0.5432
   26MOL   H35614406   0.937   4.445   3.509 -0.3936  2.2480  1.6042
   26MOL   H35714407   1.144   4.396   3.386 -3.0314 -1.1682  1.9372
   26MOL   H35814408   1.384   4.347   3.389  0.5573 -1.9540 -0.1575
   26MOL   H35914409   1.811   4.322   3.657 -0.6013 -0.9268 -1.6314
   26MOL   H36014410   1.716   4.169   3.682 -0.5331  0.4876 -1.0688
   26MOL   H36114411   1.867   4.205   3.873  1.0050  1.9958  0.6118
   26MOL   H36214412   1.789   4.363   3.910 -0.9454  0.3482  1.1103
   26MOL   H36314413   1.399   4.404   3.822 -0.4638  0.9978  0.7699
   26MOL   H36414414   1.187   4.461   3.944 -1.8846  1.1530  0.8755
   26MOL   H36514415   0.937   4.484   3.933  2.5056  1.9515  1.7077
   26MOL   O36614416   1.670   4.335   4.106 -0.2433  0.2054  0.0631
   26MOL   C36714417   1.612   4.247   4.046 -0.4367 -0.0603  0.1904
   26MOL   O36814418   1.673   4.190   3.937  0.5487 -0.4939 -0.1476
   26MOL   C36914419   1.473   4.192   4.076 -0.3025  0.8065  0.2586
   26MOL   C37014420   1.401   4.244   4.184 -0.8074  0.0086  0.2476
   26MOL   C37114421   1.281   4.190   4.226 -0.1790  0.5218 -0.0578
   26MOL   C37214422   1.204   4.244   4.331  0.6174  0.0811 -0.3667
   26MOL   C37314423   1.085   4.187   4.382 -0.3148 -0.4169  0.7977
   26MOL   C37414424   1.038   4.070   4.315 -0.2401 -0.7252  0.0553
   26MOL   C37514425   0.920   3.993   4.364 -0.2578 -0.1714 -0.3053
   26MOL   O37614426   0.854   4.044   4.471 -0.0532 -0.3762 -0.5732
   26MOL   C37714427   0.736   3.983   4.514  0.6838  0.4076 -0.5328
   26MOL   C37814428   0.767   3.900   4.640  0.3987  0.2194  0.6437
   26MOL   O37914429   0.873   3.891   4.310 -0.5124 -0.4641  0.6117
   26MOL   C38014430   1.112   4.015   4.208 -0.2617  0.1798 -0.4069
   26MOL   C38114431   1.228   4.078   4.158 -0.3453 -0.0580 -0.4918
   26MOL   C38214432   1.286   4.029   4.041 -0.5209  0.1656  0.6356
   26MOL   C38314433   1.409   4.086   3.999  0.1746 -0.4512  0.1270
   26MOL   H38414434   1.445   4.334   4.224 -0.7013  0.8091 -1.6685
   26MOL   H38514435   1.232   4.346   4.354 -0.5769  0.0954  1.1047
   26MOL   H38614436   1.039   4.234   4.468  0.8979 -0.5150  1.5225
   26MOL   H38714437   0.684   3.916   4.445  0.7379 -1.1474  0.9039
   26MOL   H38814438   0.666   4.058   4.551  0.0745 -1.0324  1.3227
   26MOL   H38914439   0.668   3.862   4.667  0.1766 -0.3172 -0.8605
   26MOL   H39014440   0.837   3.821   4.612  0.0517 -0.2485  1.0856
   26MOL   H39114441   1.071   3.930   4.156 -0.1453 -0.3711  0.4051
   26MOL   H39214442   1.238   3.949   3.987  1.8374  0.6478 -2.3257
   26MOL   H39314443   1.453   4.049   3.908 -0.1562  1.6025 -0.8857
   26MOL   O39414444   1.036   3.947   4.702  0.3667 -0.7258  0.0378
   26MOL   C39514445   0.950   3.989   4.774  0.1935 -0.0123 -0.3567
   26MOL   O39614446   0.816   3.979   4.754 -0.1619  0.6481 -0.4831
   26MOL   C39714447   0.980   4.053   4.904  0.1679  0.0566  0.5869
   26MOL   C39814448   1.112   4.071   4.939  0.2866 -0.1061  0.6129
   26MOL   C39914449   1.145   4.139   5.057 -0.6428 -0.3394  0.2253
   26MOL   C40014450   1.277   4.161   5.094 -0.1896  0.3213  1.0237
   26MOL   C40114451   1.312   4.224   5.222  0.3263 -0.5495 -0.1886
   26MOL   C40214452   1.208   4.270   5.305 -0.4142  0.3855  0.4181
   26MOL   C40314453   1.250   4.334   5.434 -0.4227  0.3317  0.7679
   26MOL   O40414454   1.142   4.394   5.494 -0.2207  0.4727  0.5133
   26MOL   C40514455   1.169   4.473   5.604 -0.1699  0.1144 -0.2567
   26MOL   C40614456   1.214   4.615   5.564  0.3766 -0.2316  0.3184
   26MOL   O40714457   1.365   4.336   5.480 -0.6075 -0.7411 -0.1653
   26MOL   C40814458   1.074   4.252   5.265 -0.2771 -0.3693  0.0069
   26MOL   C40914459   1.044   4.178   5.146 -0.5613  0.4331  0.0853
   26MOL   C41014460   0.910   4.148   5.116 -0.0084 -0.3095 -0.3717
   26MOL   C41114461   0.878   4.086   4.997 -0.4103  0.0736  0.3283
   26MOL   H41214462   1.185   4.034   4.869  0.5393 -1.9162  1.7826
   26MOL   H41314463   1.349   4.111   5.031 -2.0738 -0.0694 -0.8930
   26MOL   H41414464   1.416   4.235   5.247 -0.1105  2.3649  0.6146
   26MOL   H41514465   1.253   4.438   5.664  0.0696  0.4761 -0.3863
   26MOL   H41614466   1.077   4.475   5.664  0.5745  2.3874  0.8471
   26MOL   H41714467   1.232   4.689   5.642 -1.5316  2.0208 -1.2957
   26MOL   H41814468   1.307   4.592   5.512  2.0770  0.7407  2.8719
   26MOL   H41914469   0.994   4.301   5.318  1.9349  2.0203  1.2799
   26MOL   H42014470   0.823   4.176   5.173  0.2583  1.3420 -0.7398
   26MOL   H42114471   0.776   4.080   4.964 -0.6168 -0.0104  0.9926
   26MOL   O42214472   0.990   4.730   5.650  0.1821  0.2911  0.4827
   26MOL   C42314473   0.998   4.704   5.525  0.8052  1.3338 -0.3378
   26MOL   O42414474   1.113   4.663   5.474 -0.1053 -0.6624  0.0568
   26MOL   C42514475   0.891   4.712   5.426  0.2117  0.2074 -0.1454
   26MOL   C42614476   0.887   4.635   5.310  0.3466  0.2863  0.6529
   26MOL   C42714477   0.792   4.659   5.211  0.2218 -0.7973  0.2824
   26MOL   C42814478   0.787   4.571   5.100  0.0499  0.1231  0.2720
   26MOL   C42914479   0.688   4.597   5.002  0.4562 -0.1337  0.3295
   26MOL   C43014480   0.596   4.701   5.015 -0.2229  1.1977  0.4539
   26MOL   C43114481   0.500   4.737   4.907 -0.3923  0.8734 -0.3222
   26MOL   O43214482   0.485   4.646   4.809 -0.0542  0.2622 -0.1726
   26MOL   C43314483   0.403   4.661   4.694 -0.0180  0.1706  0.4295
   26MOL   C43414484   0.471   4.577   4.583  0.1151  0.3120 -0.1981
   26MOL   O43514485   0.436   4.847   4.918 -0.0471 -0.4144 -0.5713
   26MOL   C43614486   0.605   4.780   5.132 -0.4079  0.2899 -1.0143
   26MOL   C43714487   0.705   4.765   5.230 -0.3282 -0.5638  0.4039
   26MOL   C43814488   0.697   4.843   5.346 -0.5883 -0.3536 -0.0709
   26MOL   C43914489   0.793   4.820   5.444 -0.1555  0.5255 -0.9762
   26MOL   H44014490   0.953   4.553   5.291 -1.4369 -1.1363  0.4167
   26MOL   H44114491   0.850   4.484   5.088  0.5316  0.3199  1.2470
   26MOL   H44214492   0.671   4.531   4.917  0.8475 -1.0063  0.9167
   26MOL   H44314493   0.407   4.766   4.666 -2.1981  0.8860  2.6387
   26MOL   H44414494   0.297   4.650   4.716 -0.0104 -0.6066  0.0908
   26MOL   H44514495   0.445   4.598   4.480  0.6789  0.4251 -0.3178
   26MOL   H44614496   0.580   4.571   4.580  0.0365 -0.1278 -2.5483
   26MOL   H44714497   0.529   4.853   5.157 -1.6036 -1.4986  0.7183
   26MOL   H44814498   0.615   4.909   5.369 -1.5492 -1.9716  1.2957
   26MOL   H44914499   0.797   4.880   5.533  2.1606 -0.9325 -0.0356
   26MOL   O45014500   0.218   4.478   4.515 -0.4556 -0.5199 -0.5914
   26MOL   C45114501   0.309   4.399   4.542  0.8290 -0.5151 -0.2560
   26MOL   O45214502   0.433   4.440   4.589 -0.2125 -0.0064 -0.1530
   26MOL   C45314503   0.301   4.254   4.545  0.2718 -0.7216 -0.9696
   26MOL   C45414504   0.195   4.186   4.488  0.9485  0.2730  0.0371
   26MOL   C45514505   0.191   4.046   4.485  0.3125 -0.2558  1.1503
   26MOL   C45614506   0.093   3.983   4.406  0.7652 -0.1086 -1.0271
   26MOL   C45714507   0.083   3.843   4.408 -0.2237 -0.7310 -0.2809
   26MOL   C45814508   0.155   3.770   4.505  0.1803  0.3458  0.4784
   26MOL   C45914509   0.119   3.626   4.530 -0.4614 -0.3247 -0.1125
   26MOL   O46014510   0.000   3.589   4.478 -0.8756  0.2240 -0.3193
   26MOL   C46114511   8.213   3.448   4.484  0.4773 -0.1138  0.3750
   26MOL   C46214512   8.226   3.399   4.343  0.4363 -0.1734  0.1222
   26MOL   O46314513   0.193   3.548   4.591 -0.0902  0.0881  0.6277
   26MOL   C46414514   0.254   3.831   4.579  0.1929  0.2740  0.1174
   26MOL   C46514515   0.279   3.971   4.566  0.3028  0.3909 -0.1005
   26MOL   C46614516   0.378   4.041   4.632  0.1041  0.1646  0.2001
   26MOL   C46714517   0.396   4.184   4.621 -0.3620  0.3404  0.8096
   26MOL   H46814518   0.115   4.243   4.442  0.4292 -0.9338 -0.5746
   26MOL   H46914519   0.028   4.032   4.335 -1.7663 -0.2730  1.1089
   26MOL   H47014520   8.249   3.810   4.348 -0.3658 -0.5229 -0.1981
   26MOL   H47114521   8.113   3.440   4.527 -0.6208  0.6745 -1.9313
   26MOL   H47214522   0.027   3.382   4.543  1.4198 -0.9757 -1.5383
   26MOL   H47314523   8.176   3.302   4.335 -0.5223  0.2094  1.4544
   26MOL   H47414524   8.182   3.453   4.260  3.2892  0.9623 -0.7169
   26MOL   H47514525   0.317   3.772   4.644  1.5491  2.2118  0.6033
   26MOL   H47614526   0.447   3.982   4.691  1.0422  1.5364  0.4977
   26MOL   H47714527   0.482   4.221   4.674 -1.7354  2.7546  1.3833
   26MOL   O47814528   0.118   3.483   4.119  0.3337  0.7006 -0.1958
   26MOL   C47914529   0.175   3.419   4.206 -0.5835 -0.2974 -0.0576
   26MOL   O48014530   0.114   3.378   4.319  0.3218  0.6776  0.0312
   26MOL   C48114531   0.313   3.371   4.205 -0.1425  0.1941  0.6327
   26MOL   C48214532   0.376   3.326   4.319 -1.0639 -0.5770 -0.1724
   26MOL   C48314533   0.506   3.268   4.314 -0.1433  0.0005  0.1883
   26MOL   C48414534   0.562   3.216   4.431  0.6993 -0.3875 -0.2655
   26MOL   C48514535   0.685   3.144   4.422  0.5791 -0.1898 -0.9249
   26MOL   C48614536   0.754   3.132   4.301 -0.6241  0.1384 -0.4386
   26MOL   C48714537   0.889   3.059   4.295 -0.0306 -0.2449  0.3561
   26MOL   O48814538   0.949   3.061   4.174  0.6519 -0.4700  0.4143
   26MOL   C48914539   1.081   3.006   4.151  0.1730 -0.3554  0.1037
   26MOL   C49014540   1.083   2.873   4.068 -0.4840  0.9541  1.2205
   26MOL   O49114541   0.942   3.009   4.396  0.3328  0.1626  0.0061
   26MOL   C49214542   0.696   3.192   4.185 -0.5433 -0.4444  0.4569
   26MOL   C49314543   0.571   3.255   4.189 -0.0147 -1.2257  0.0104
   26MOL   C49414544   0.511   3.306   4.074 -0.9712 -0.2542 -0.4592
   26MOL   C49514545   0.383   3.368   4.080 -0.2120 -0.7647  1.0262
   26MOL   H49614546   0.331   3.328   4.418  0.5731  1.8505  0.5416
   26MOL   H49714547   0.505   3.215   4.523  0.4074  1.2943 -0.4103
   26MOL   H49814548   0.713   3.094   4.514  0.9407 -1.6653 -1.8229
   26MOL   H49914549   1.132   3.001   4.247 -0.4484 -0.6647  0.4191
   26MOL   H50014550   1.143   3.081   4.102  0.5037 -0.5062  0.2935
   26MOL   H50114551   1.021   2.877   3.978  0.3288  1.1176  0.6594
   26MOL   H50214552   1.182   2.838   4.040 -2.3132 -1.7858 -2.2528
   26MOL   H50314553   0.755   3.182   4.096 -0.0870  0.8738  0.6107
   26MOL   H50414554   0.558   3.290   3.978 -1.1108 -1.8291 -0.2746
   26MOL   H50514555   0.352   3.423   3.993 -0.3762  0.9851  2.1660
   26MOL   O50614556   1.064   2.618   3.972  0.6381 -0.5160 -0.3084
   26MOL   C50714557   1.006   2.655   4.078 -0.1966  0.2243 -0.2598
   26MOL   O50814558   1.022   2.771   4.138  0.6297 -0.2377  0.2054
   26MOL   C50914559   0.920   2.569   4.157 -0.1864  0.3119  0.3222
   26MOL   C51014560   0.925   2.430   4.123 -0.7125  0.1870  0.0837
   26MOL   C51114561   0.846   2.335   4.194 -1.3266 -0.1976 -0.3046
   26MOL   C51214562   0.869   2.195   4.180  0.0209 -0.3522 -0.0066
   26MOL   C51314563   0.797   2.102   4.260 -0.5087  0.9064 -0.2468
   26MOL   C51414564   0.695   2.142   4.345  0.3020  0.3548  0.8351
   26MOL   C51514565   0.617   2.040   4.419  0.2474 -0.1322 -0.4749
   26MOL   O51614566   0.645   1.912   4.395 -0.1792 -0.4643 -0.0395
   26MOL   C51714567   0.574   1.805   4.461  0.5831  0.3929 -0.0734
   26MOL   C51814568   0.444   1.763   4.385  0.4700 -0.5632  0.4802
   26MOL   O51914569   0.525   2.073   4.492  0.1907 -0.0639 -0.3142
   26MOL   C52014570   0.683   2.283   4.374 -0.3173 -0.2302  0.0576
   26MOL   C52114571   0.763   2.378   4.303  0.1289 -0.0526 -0.5097
   26MOL   C52214572   0.754   2.515   4.336  0.0948  0.1234 -0.1713
   26MOL   C52314573   0.834   2.610   4.265  0.6089  0.1261  0.5591
   26MOL   H52414574   0.989   2.392   4.044  0.3276 -1.8411  1.8443
   26MOL   H52514575   0.954   2.158   4.125 -1.4068 -3.0576 -0.4777
   26MOL   H52614576   0.823   1.998   4.258  1.2174  1.1068  4.6938
   26MOL   H52714577   0.568   1.833   4.566 -1.5775 -2.7871  0.7357
   26MOL   H52814578   0.632   1.713   4.472 -0.0812 -0.0365 -0.1298
   26MOL   H52914579   0.371   1.706   4.442 -1.4638  0.6088 -0.7517
   26MOL   H53014580   0.388   1.853   4.358  1.1005 -0.3825 -0.2581
   26MOL   H53114581   0.610   2.328   4.440 -1.4420 -0.0662 -1.2758
   26MOL   H53214582   0.705   2.544   4.428  1.3745  0.3735  0.4446
   26MOL   H53314583   0.831   2.714   4.292  2.6687 -0.0531  1.6254
   26MOL   O53414584   0.263   1.676   4.206  0.2446  0.1890  0.1616
   26MOL   C53514585   0.381   1.645   4.189  0.0736  0.0866  0.0458
   26MOL   O53614586   0.480   1.696   4.264  0.0597 -0.1491  0.0893
   26MOL   C53714587   0.432   1.561   4.080 -0.0121  0.4027 -0.5333
   26MOL   C53814588   0.337   1.510   3.987  0.0179 -0.2804 -0.9369
   26MOL   C53914589   0.382   1.426   3.888  0.5641  0.3405 -1.0985
   26MOL   C54014590   0.287   1.368   3.803 -0.0990 -0.6839 -0.0232
   26MOL   C54114591   0.324   1.283   3.701 -0.5594 -0.1539 -0.2741
   26MOL   C54214592   0.463   1.256   3.677 -0.7368  0.7020 -0.1045
   26MOL   C54314593   0.511   1.158   3.569 -0.7023 -0.3182  0.8315
   26MOL   O54414594   0.416   1.129   3.476 -0.2522  0.3343 -0.3217
   26MOL   C54514595   0.449   1.025   3.386 -0.0826 -0.4008  0.2847
   26MOL   C54614596   0.338   1.010   3.280  0.4030 -0.3504  0.2411
   26MOL   O54714597   0.624   1.109   3.578 -0.3490  0.1099 -0.0628
   26MOL   C54814598   0.562   1.308   3.768 -0.4889 -0.6863  0.3998
   26MOL   C54914599   0.522   1.396   3.872  0.2853  0.7668  0.0376
   26MOL   C55014600   0.616   1.452   3.961 -0.3506  0.5536  0.3600
   26MOL   C55114601   0.572   1.537   4.066 -0.2492  0.1234  0.0323
   26MOL   H55214602   0.235   1.542   4.000  0.3264  0.3538 -0.0114
   26MOL   H55314603   0.184   1.389   3.826  0.0642  1.0057 -0.7552
   26MOL   H55414604   0.249   1.221   3.655 -0.8519 -0.9031  1.1666
   26MOL   H55514605   0.467   0.933   3.442 -0.9176  0.2211  1.5918
   26MOL   H55614606   0.536   1.052   3.327 -0.1570 -1.3266 -0.2611
   26MOL   H55714607   0.325   1.105   3.227 -0.0091  0.0001  0.9669
   26MOL   H55814608   0.242   0.987   3.326 -1.2095  1.6659 -1.9951
   26MOL   H55914609   0.666   1.278   3.768  0.1793  1.4285 -2.1979
   26MOL   H56014610   0.721   1.433   3.944 -0.7245 -0.0847 -1.2608
   26MOL   H56114611   0.645   1.571   4.138  0.9693 -1.9862 -0.1574
   26MOL   H56214612   0.364   0.939   3.201 -0.7043  0.7309 -1.1195
   27MOL     O114613   6.748   3.393   0.836 -0.0635 -0.0853  0.2717
   27MOL     C214614   6.776   3.380   0.712 -0.2029  0.4990 -0.4049
   27MOL     O314615   6.873   3.299   0.673 -0.0088 -0.0345  0.1422
   27MOL     C414616   6.725   3.481   0.608 -0.4588  0.6083 -0.5427
   27MOL     C514617   6.740   3.471   0.470  0.1125  0.7538  0.4269
   27MOL     C614618   6.669   3.565   0.388 -0.2504 -0.1931  0.7075
   27MOL     C714619   6.688   3.564   0.252 -0.3238 -0.2253  0.5895
   27MOL     C814620   6.626   3.650   0.164  0.4641  0.2380 -0.5601
   27MOL     C914621   6.532   3.745   0.215 -0.2151 -0.2594  0.0451
   27MOL    C1014622   6.451   3.829   0.126  0.4741 -0.0727  0.1377
   27MOL    O1114623   6.376   3.917   0.197  0.4125 -0.1127 -0.4134
   27MOL    C1214624   6.340   4.044   0.155 -0.3238 -0.1257 -0.0381
   27MOL    C1314625   6.443   4.148   0.201 -0.0717  0.0054 -0.0903
   27MOL    O1414626   6.472   3.838   0.004 -0.9539 -0.3911 -0.0057
   27MOL    C1514627   6.501   3.740   0.352 -0.2404 -0.6212  0.3728
   27MOL    C1614628   6.576   3.659   0.437 -0.0476 -0.2876  0.2926
   27MOL    C1714629   6.552   3.652   0.571  0.7706  0.1895 -0.3187
   27MOL    C1814630   6.630   3.573   0.654 -0.7904  0.7718 -0.2950
   27MOL    H1914631   6.814   3.408   0.422  0.8591  0.8911  1.3643
   27MOL    H2014632   6.763   3.494   0.217 -0.9311 -1.2926  1.4008
   27MOL    H2114633   6.660   3.654   0.061 -0.0874 -0.6483 -0.7793
   27MOL    H2214634   6.330   4.049   0.046  0.2982 -2.4371 -0.2149
   27MOL    H2314635   6.238   4.063   0.186  0.3937  2.3147  0.9776
   27MOL    H2414636   6.409   4.250   0.187  0.6138 -0.2278 -4.1349
   27MOL    H2514637   6.449   4.120   0.307 -2.0118  0.9425  0.2782
   27MOL    H2614638   6.434   3.811   0.398 -1.5526 -1.5694 -0.0634
   27MOL    H2714639   6.488   3.723   0.620  0.9535 -0.9501  1.6207
   27MOL    H2814640   6.611   3.570   0.761 -0.2401 -3.0575 -0.2451
   27MOL    H2914641   6.891   3.231   0.736 -0.4724 -0.8465 -0.6098
   27MOL    O3014642   6.646   4.337   0.134 -0.1488  0.4587  0.0642
   27MOL    C3114643   6.641   4.224   0.091 -0.6281 -0.4122  0.2781
   27MOL    O3214644   6.550   4.130   0.110 -0.2370 -0.0144  0.0884
   27MOL    C3314645   6.751   4.178   0.003 -0.5090  0.2872  0.5183
   27MOL    C3414646   6.876   4.242   0.012 -0.2253  0.1224  0.2595
   27MOL    C3514647   6.994   4.196   8.196 -0.6216  0.0917 -0.1983
   27MOL    C3614648   7.118   4.254   8.212 -0.4559  0.3953 -0.5817
   27MOL    C3714649   7.232   4.212   8.148 -0.4168  1.2732  0.4745
   27MOL    C3814650   7.225   4.106   8.055 -0.0489  0.5914  0.9730
   27MOL    C3914651   7.340   4.064   7.963  0.3376  0.2725  0.0027
   27MOL    O4014652   7.451   4.138   7.979  0.9424 -0.2403  0.0906
   27MOL    C4114653   7.560   4.112   7.893 -0.2621  0.3737 -0.2438
   27MOL    C4214654   7.676   4.214   7.922 -0.1129 -0.5687  0.2056
   27MOL    O4314655   7.321   3.978   7.874 -0.7775  0.0708 -0.5806
   27MOL    C4414656   7.101   4.037   8.038 -0.6463  0.4215  0.5274
   27MOL    C4514657   6.985   4.081   8.112 -0.4329 -0.3260  0.4864
   27MOL    C4614658   6.862   4.023   8.099  0.4485  0.6546 -0.2881
   27MOL    C4714659   6.745   4.055   8.180 -0.5835  0.2445  0.2092
   27MOL    H4814660   6.903   4.331   0.067  0.2093 -0.4076  0.8979
   27MOL    H4914661   7.123   4.336   0.032 -0.3606  1.1391 -1.4525
   27MOL    H5014662   7.324   4.268   8.161  0.7822 -0.1830 -1.4510
   27MOL    H5114663   7.520   4.113   7.791  0.5840 -1.2632 -0.6173
   27MOL    H5214664   7.588   4.015   7.935 -4.0869 -0.4035  0.7031
   27MOL    H5314665   7.719   4.206   8.022  1.8595 -1.0258 -0.6416
   27MOL    H5414666   7.762   4.187   7.859  1.9295  1.9551  1.8027
   27MOL    H5514667   7.096   3.958   7.965 -1.6162 -0.4015  1.4523
   27MOL    H5614668   6.850   3.946   8.025  2.2574 -0.4200  0.5109
   27MOL    H5714669   6.649   4.008   8.167 -0.3519  0.7058 -4.2489
   27MOL    O5814670   7.671   4.375   7.702 -0.0728  0.9214  0.3627
   27MOL    C5914671   7.613   4.412   7.806 -0.3941 -0.6125  0.2570
   27MOL    O6014672   7.630   4.348   7.919 -1.2161  0.7431 -0.1805
   27MOL    C6114673   7.522   4.527   7.822 -0.1095 -0.2098  0.0066
   27MOL    C6214674   7.554   4.646   7.756  0.1114 -0.8214  0.0705
   27MOL    C6314675   7.474   4.762   7.784  0.5229  0.3471 -0.4567
   27MOL    C6414676   7.509   4.893   7.735 -0.1874  0.0601 -0.2628
   27MOL    C6514677   7.435   5.005   7.768 -0.5169 -0.1847  0.2769
   27MOL    C6614678   7.314   4.990   7.842 -0.5788  0.9600 -0.2692
   27MOL    C6714679   7.220   5.099   7.881  0.0776 -0.3095 -0.3861
   27MOL    O6814680   7.288   5.213   7.882 -0.6727 -0.2385  0.4995
   27MOL    C6914681   7.221   5.331   7.913 -0.2881 -1.5261  0.5483
   27MOL    C7014682   7.212   5.411   7.782  0.1458  0.5101  0.0559
   27MOL    O7114683   7.104   5.086   7.896 -0.0256  0.0671  0.5469
   27MOL    C7214684   7.284   4.862   7.905  0.3275 -0.6527  0.0635
   27MOL    C7314685   7.360   4.746   7.869 -0.5339 -0.1462  0.1143
   27MOL    C7414686   7.330   4.623   7.928  0.4764  0.1050 -0.3759
   27MOL    C7514687   7.406   4.510   7.901 -0.5425 -0.0149  0.6859
   27MOL    H7614688   7.647   4.650   7.700 -0.4773 -0.9804 -0.9394
   27MOL    H7714689   7.595   4.892   7.671 -0.1884  0.2186 -0.2666
   27MOL    H7814690   7.463   5.102   7.731  3.1985 -0.6474  1.6670
   27MOL    H7914691   7.283   5.389   7.982 -2.5169 -0.2664  1.5555
   27MOL    H8014692   7.129   5.313   7.967 -1.4074 -3.5936 -1.9689
   27MOL    H8114693   7.142   5.352   7.721 -0.7202 -1.2025  2.6292
   27MOL    H8214694   7.173   5.507   7.814  0.6137  0.3340  1.1724
   27MOL    H8314695   7.195   4.862   7.965  0.6643 -0.1314  0.5635
   27MOL    H8414696   7.253   4.616   8.004  1.7298  0.0197  0.8964
   27MOL    H8514697   7.376   4.418   7.949 -2.6936  0.0132 -0.5300
   27MOL    O8614698   7.369   5.629   7.816 -0.5852  0.0516 -0.4108
   27MOL    C8714699   7.408   5.540   7.742  0.4589  0.2243  1.3034
   27MOL    O8814700   7.336   5.431   7.717 -0.1431  0.3729  0.1975
   27MOL    C8914701   7.540   5.531   7.669  0.2004  0.0490  0.3302
   27MOL    C9014702   7.616   5.645   7.640 -0.0094  0.0349 -0.1431
   27MOL    C9114703   7.727   5.637   7.551 -0.3233  0.0116 -0.2755
   27MOL    C9214704   7.804   5.749   7.518 -0.2057 -0.0112 -0.4901
   27MOL    C9314705   7.906   5.736   7.419  0.1734  0.4073  0.0660
   27MOL    C9414706   7.931   5.619   7.344 -0.2135 -1.4594  0.2664
   27MOL    C9514707   8.023   5.625   7.225  0.9507 -0.0850  0.5997
   27MOL    O9614708   8.043   5.512   7.157 -0.0682  0.1628  0.4531
   27MOL    C9714709   8.117   5.501   7.034  0.6943  0.7671 -0.3333
   27MOL    C9814710   8.062   5.593   6.925  0.1023 -0.3157 -0.3758
   27MOL    O9914711   8.083   5.731   7.195  0.3172  0.0319  0.0837
   27MOL   C10014712   7.854   5.507   7.376  0.4548 -0.3116  0.0585
   27MOL   C10114713   7.761   5.515   7.485  0.5231 -0.2792 -0.0190
   27MOL   C10214714   7.683   5.398   7.521 -0.0092  0.7214  0.5649
   27MOL   C10314715   7.579   5.408   7.616  0.5038 -0.3698  0.5464
   27MOL   H10414716   7.591   5.745   7.672 -2.1622 -0.3578 -0.5248
   27MOL   H10514717   7.788   5.848   7.557 -1.6608 -0.9779  1.3971
   27MOL   H10614718   7.947   5.830   7.386 -1.5049 -0.1692 -3.9727
   27MOL   H10714719   8.108   5.396   7.003  0.5763  0.0812  1.9633
   27MOL   H10814720   8.216   5.535   7.063  1.3196 -1.1587 -0.1317
   27MOL   H10914721   7.974   5.648   6.957  0.0304  0.8002 -2.4225
   27MOL   H11014722   8.137   5.664   6.893 -2.3103  1.9682 -1.1492
   27MOL   H11114723   7.859   5.405   7.341 -0.1079 -0.8301  1.4724
   27MOL   H11214724   7.702   5.300   7.481 -0.4447  1.7084 -2.1191
   27MOL   H11314725   7.527   5.320   7.650 -2.1584  0.3931 -1.3760
   27MOL   O11414726   8.220   5.429   6.763  0.5361  0.3156  0.0181
   27MOL   C11514727   8.104   5.457   6.733 -0.2183  0.3761 -0.2725
   27MOL   O11614728   8.016   5.520   6.814 -0.0253 -0.0390 -0.7540
   27MOL   C11714729   8.052   5.431   6.589  0.1275  0.5918 -0.6306
   27MOL   C11814730   7.919   5.461   6.553  0.1879 -0.2273  0.1592
   27MOL   C11914731   7.866   5.432   6.422 -0.1319  0.3888 -0.6260
   27MOL   C12014732   7.731   5.450   6.390 -0.2120  0.2291 -0.9120
   27MOL   C12114733   7.681   5.407   6.269  0.3565  0.3912 -0.0958
   27MOL   C12214734   7.772   5.361   6.172 -0.3834  0.1910  0.2164
   27MOL   C12314735   7.721   5.334   6.036 -0.1992 -0.7976  0.2832
   27MOL   O12414736   7.820   5.318   5.945 -0.0800 -0.1810 -0.3038
   27MOL   C12514737   7.782   5.281   5.815 -0.0986  0.1147  0.4920
   27MOL   C12614738   7.732   5.138   5.809  0.0773 -0.7545 -0.0081
   27MOL   O12714739   7.597   5.338   6.005 -0.6547 -0.1289 -0.1800
   27MOL   C12814740   7.909   5.343   6.203  0.3895  0.3429 -0.3901
   27MOL   C12914741   7.952   5.376   6.330 -0.5781  0.1273 -0.6209
   27MOL   C13014742   8.086   5.345   6.362  0.1571  0.6051 -0.3977
   27MOL   C13114743   8.134   5.370   6.493  0.1953  0.3378  0.3336
   27MOL   H13214744   7.849   5.500   6.626 -1.4296  0.9006 -1.9398
   27MOL   H13314745   7.662   5.490   6.462  1.1349 -0.4315  0.7856
   27MOL   H13414746   7.577   5.427   6.245 -0.3331 -2.8918 -0.0884
   27MOL   H13514747   7.875   5.294   5.760  0.0823  0.7689  0.9464
   27MOL   H13614748   7.720   5.356   5.765  1.0612  0.2093 -0.8275
   27MOL   H13714749   7.672   5.109   5.895 -1.2350 -2.0762 -1.3416
   27MOL   H13814750   7.676   5.114   5.719 -0.5849  0.5744  0.0490
   27MOL   H13914751   7.980   5.313   6.127 -0.2290 -0.6186 -0.5848
   27MOL   H14014752   8.153   5.317   6.281  2.2133  1.6679  0.8872
   27MOL   H14114753   8.236   5.346   6.517  0.0072 -0.3371  0.4833
   27MOL   O14214754   7.822   4.978   5.601  0.0051 -0.2041 -0.1085
   27MOL   C14314755   7.881   4.974   5.713  0.6351 -0.2946  0.6717
   27MOL   O14414756   7.847   5.055   5.820 -0.1717  0.1161  0.4462
   27MOL   C14514757   8.004   4.891   5.745  0.0477 -0.5918  0.2186
   27MOL   C14614758   8.066   4.815   5.646 -0.3274 -0.3276 -0.1007
   27MOL   C14714759   8.191   4.751   5.672  0.1707  0.4483 -0.3336
   27MOL   C14814760   0.001   4.679   5.568 -0.0520 -0.2665  0.3688
   27MOL   C14914761   0.127   4.619   5.592  0.8614 -0.0361 -0.6306
   27MOL   C15014762   0.190   4.631   5.716  0.1553 -0.2414 -0.8497
   27MOL   C15114763   0.320   4.576   5.734 -0.2225 -0.1531  0.2762
   27MOL   O15214764   0.396   4.585   5.630 -0.1331  0.1263 -0.1839
   27MOL   C15314765   0.539   4.556   5.636  0.0961 -0.1267  0.2340
   27MOL   C15414766   0.553   4.412   5.594  0.0564 -0.1377 -0.2447
   27MOL   O15514767   0.365   4.530   5.841  0.2582  0.9666  0.4750
   27MOL   C15614768   0.122   4.692   5.823 -0.0744 -0.4714 -0.9105
   27MOL   C15714769   0.000   4.758   5.803  0.1022 -0.9607  0.6371
   27MOL   C15814770   8.174   4.827   5.906 -0.1529 -0.4296  0.0731
   27MOL   C15914771   8.059   4.900   5.872  0.8572  0.0366  0.6813
   27MOL   H16014772   8.022   4.804   5.548  0.0267  0.4772 -0.3528
   27MOL   H16114773   8.201   4.664   5.473 -0.5966  1.7118  0.3062
   27MOL   H16214774   0.161   4.568   5.503 -0.4790 -1.5554 -0.2978
   27MOL   H16314775   0.589   4.573   5.731  2.0601 -0.4848 -0.6988
   27MOL   H16414776   0.580   4.619   5.557 -0.9946  1.0423  0.5931
   27MOL   H16514777   0.661   4.401   5.596  0.1411  0.7308  0.5426
   27MOL   H16614778   0.503   4.337   5.655  1.5468 -1.3628 -0.5006
   27MOL   H16714779   0.168   4.686   5.920  0.3532  0.7352 -1.0196
   27MOL   H16814780   8.208   4.828   6.008  0.2384  0.9713 -0.0624
   27MOL   H16914781   8.014   4.964   5.946 -2.6625 -0.3284 -1.0480
   27MOL   O17014782   0.658   4.406   5.327  0.3062 -0.0919 -0.2765
   27MOL   C17114783   0.540   4.384   5.355 -0.5440  0.2450  0.6120
   27MOL   O17214784   0.493   4.377   5.471  0.4651  0.3925  0.0391
   27MOL   C17314785   0.440   4.357   5.245  0.3077 -0.1653 -0.9736
   27MOL   C17414786   0.299   4.375   5.274  0.0863 -0.0085  0.3715
   27MOL   C17514787   0.203   4.339   5.169 -0.1849  0.2582 -1.0863
   27MOL   C17614788   0.063   4.351   5.197  0.4538  0.0912 -0.3681
   27MOL   C17714789   8.216   4.325   5.093  0.1039  0.2648  0.3440
   27MOL   C17814790   0.019   4.293   4.968 -0.3710  0.4328  0.6067
   27MOL   C17914791   8.171   4.269   4.859  1.0265  0.3407 -0.3579
   27MOL   O18014792   8.220   4.220   4.754  0.0181  0.1271  0.4347
   27MOL   C18114793   8.135   4.180   4.649  0.4413  0.3488  0.2016
   27MOL   C18214794   8.089   4.296   4.561 -0.1137 -0.1526 -0.2168
   27MOL   O18314795   8.048   4.295   4.868 -0.3889 -0.1990  0.0784
   27MOL   C18414796   0.157   4.275   4.944 -0.7639  0.1985  0.2546
   27MOL   C18514797   0.249   4.295   5.042  0.0958 -0.9130  0.1155
   27MOL   C18614798   0.385   4.283   5.018  0.1737  0.1921 -0.0843
   27MOL   C18714799   0.480   4.305   5.123 -0.0381  0.5033 -0.0570
   27MOL   H18814800   0.267   4.407   5.372 -1.5511  1.1153 -0.5143
   27MOL   H18914801   0.034   4.378   5.298  0.7852  1.6725 -0.6714
   27MOL   H19014802   8.111   4.332   5.116  0.1007 -0.0785  0.4281
   27MOL   H19114803   8.044   4.132   4.684  0.3914 -0.3533 -0.8420
   27MOL   H19214804   8.188   4.111   4.583  0.2330  2.6618 -2.4762
   27MOL   H19314805   8.176   4.356   4.537 -0.3357  0.5750  0.7437
   27MOL   H19414806   8.042   4.263   4.469  0.6511  0.9733 -1.0232
   27MOL   H19514807   0.188   4.245   4.845  0.4056 -1.9429  1.2324
   27MOL   H19614808   0.413   4.250   4.919 -0.3813 -4.1560  1.1214
   27MOL   H19714809   0.584   4.284   5.101 -0.8230 -1.9396 -1.6045
   27MOL   O19814810   7.936   4.486   4.436  0.0432 -0.2356 -0.1621
   27MOL   C19914811   7.916   4.455   4.557  0.1082  0.0196 -0.0175
   27MOL   O20014812   7.990   4.368   4.625  0.3569 -0.2257  0.1819
   27MOL   C20114813   7.796   4.512   4.630  0.3262  0.6865 -0.1092
   27MOL   C20214814   7.776   4.511   4.769 -0.0498  0.4027 -0.2364
   27MOL   C20314815   7.656   4.562   4.827 -0.1766  0.1173 -0.2793
   27MOL   C20414816   7.631   4.537   4.960  0.3187  0.3519  0.6276
   27MOL   C20514817   7.519   4.597   5.022 -0.4529  0.0487 -0.7400
   27MOL   C20614818   7.428   4.667   4.943 -0.7794  0.5069  0.4033
   27MOL   C20714819   7.309   4.734   5.005  0.0204  0.2104  0.5804
   27MOL   O20814820   7.294   4.699   5.132  0.0075 -0.2652  0.2660
   27MOL   C20914821   7.183   4.738   5.208  0.3193  0.4761  0.1537
   27MOL   C21014822   7.062   4.637   5.191 -0.2071 -0.2718  0.1253
   27MOL   O21114823   7.233   4.809   4.944  0.1919  0.0923 -0.4202
   27MOL   C21214824   7.453   4.680   4.803 -0.1301 -0.4283 -0.2301
   27MOL   C21314825   7.570   4.630   4.750  0.2518  0.1361 -0.0750
   27MOL   C21414826   7.591   4.647   4.613  0.2681  0.3065  0.5445
   27MOL   C21514827   7.704   4.587   4.553 -0.0431 -0.0732  0.0725
   27MOL   H21614828   7.836   4.459   4.842  0.2760 -1.1390 -1.5892
   27MOL   H21714829   7.701   4.481   5.019 -0.4292 -2.3123 -0.9308
   27MOL   H21814830   7.507   4.571   5.126 -1.0847 -2.2445 -1.3435
   27MOL   H21914831   7.159   4.838   5.173  2.5864  0.7114 -0.8050
   27MOL   H22014832   7.223   4.742   5.309  0.9886  0.4741 -0.1100
   27MOL   H22114833   7.091   4.533   5.204  2.6516  0.7529  2.4520
   27MOL   H22214834   6.981   4.658   5.261  0.7479 -0.1935  1.2211
   27MOL   H22314835   7.386   4.735   4.739 -0.4035  0.9268  1.1882
   27MOL   H22414836   7.528   4.704   4.546  1.4815  1.8551  0.6809
   27MOL   H22514837   7.719   4.602   4.447 -0.3326  1.8841  0.2904
   27MOL   O22614838   7.110   4.483   4.978 -0.2744  0.0992  0.0541
   27MOL   C22714839   7.032   4.576   4.970  0.0890  0.0986  0.9785
   27MOL   O22814840   7.008   4.660   5.072  0.9467  0.6737  0.7451
   27MOL   C22914841   6.958   4.621   4.848  0.5966 -0.4588 -0.1809
   27MOL   C23014842   6.926   4.530   4.744  0.0236  0.0227  0.7527
   27MOL   C23114843   6.859   4.575   4.628 -0.4253 -0.2539  0.6749
   27MOL   C23214844   6.846   4.488   4.520  0.5217  0.5148  0.1280
   27MOL   C23314845   6.798   4.537   4.397  0.2570  0.8814 -0.7392
   27MOL   C23414846   6.774   4.682   4.383 -1.4002  0.6993  0.5151
   27MOL   C23514847   6.737   4.751   4.258  0.9581  0.2528 -0.1164
   27MOL   O23614848   6.738   4.674   4.143 -0.1184 -0.4554 -0.0259
   27MOL   C23714849   6.734   4.738   4.017 -0.2338 -0.1576  0.3962
   27MOL   C23814850   6.802   4.648   3.913  0.1960 -0.1542 -0.6233
   27MOL   O23914851   6.705   4.871   4.257 -0.4938  1.0256  0.6298
   27MOL   C24014852   6.785   4.761   4.497 -0.9160 -0.0613 -0.0463
   27MOL   C24114853   6.826   4.711   4.616 -0.0442  0.5155 -0.5960
   27MOL   C24214854   6.859   4.806   4.710 -0.1016  0.4388 -0.1900
   27MOL   C24314855   6.925   4.759   4.826 -1.0325  0.2069 -0.0274
   27MOL   H24414856   6.949   4.425   4.750 -2.6270 -0.6032  0.7069
   27MOL   H24514857   6.878   4.385   4.534 -2.9588 -0.6211  0.1601
   27MOL   H24614858   6.777   4.462   4.322  2.3553  0.0890 -0.5872
   27MOL   H24714859   6.785   4.835   4.013  0.4007 -0.5078 -0.0434
   27MOL   H24814860   6.631   4.757   3.988  0.6396  0.7135 -2.3715
   27MOL   H24914861   6.892   4.614   3.965  1.0230  1.6109 -0.8480
   27MOL   H25014862   6.747   4.555   3.906  0.9636 -0.4878 -2.4801
   27MOL   H25114863   6.772   4.868   4.486 -2.1382  0.0363  2.1735
   27MOL   H25214864   6.845   4.913   4.708 -2.8562  0.1004 -1.2787
   27MOL   H25314865   6.946   4.833   4.903 -0.0792 -2.2741  2.1758
   27MOL   O25414866   7.015   4.816   3.861  0.7555 -1.1838  0.3421
   27MOL   C25514867   6.944   4.776   3.764 -0.2476  0.5850 -0.5441
   27MOL   O25614868   6.834   4.705   3.785 -0.2949 -0.2263 -0.5373
   27MOL   C25714869   6.963   4.821   3.625  0.2489  0.3099 -1.4172
   27MOL   C25814870   7.049   4.936   3.602 -0.1177 -0.6449 -0.0581
   27MOL   C25914871   7.070   4.981   3.467 -0.1442  0.4018  0.0329
   27MOL   C26014872   7.148   5.098   3.451  0.0859  0.2427  0.2924
   27MOL   C26114873   7.185   5.139   3.327  0.1613 -0.6277  0.6201
   27MOL   C26214874   7.143   5.070   3.213  0.6809  0.3026  0.0419
   27MOL   C26314875   7.190   5.110   3.075 -0.3491 -0.1834 -0.2093
   27MOL   O26414876   7.106   5.068   2.974  0.1570 -0.3832  0.0286
   27MOL   C26514877   7.140   5.108   2.841 -0.2525 -0.4828  0.5349
   27MOL   C26614878   7.060   5.021   2.743 -0.0366  0.1849  0.4550
   27MOL   O26714879   7.287   5.180   3.062 -0.3596  0.9102 -0.6793
   27MOL   C26814880   7.056   4.961   3.230 -0.0459 -0.1770  0.3753
   27MOL   C26914881   7.017   4.912   3.361  0.8737 -0.1578  0.3762
   27MOL   C27014882   6.933   4.800   3.379 -0.2229  0.7876 -0.1855
   27MOL   C27114883   6.908   4.751   3.516  0.1662 -0.1076  0.4455
   27MOL   H27214884   7.093   4.985   3.687 -1.2306  0.8888 -0.3556
   27MOL   H27314885   7.193   5.151   3.534  0.5211  0.1846  0.0911
   27MOL   H27414886   7.252   5.221   3.304 -1.4104  0.3844 -0.4015
   27MOL   H27514887   7.245   5.091   2.817 -0.9822 -0.7304 -2.6741
   27MOL   H27614888   7.119   5.213   2.818  1.2613 -0.6160 -1.6098
   27MOL   H27714889   6.957   5.011   2.779 -0.8982  2.1730 -1.3720
   27MOL   H27814890   7.037   5.070   2.649  0.6883  2.0344  1.2269
   27MOL   H27914891   7.021   4.908   3.142  3.0603 -2.0308  0.1844
   27MOL   H28014892   6.892   4.748   3.293  0.7551  0.5322 -0.5055
   27MOL   H28114893   6.853   4.658   3.528 -1.1021  0.3046 -1.9437
   27MOL   O28214894   6.918   4.808   2.651  0.1510 -0.0055 -0.0411
   27MOL   C28314895   7.033   4.794   2.695  0.1735 -0.2363  0.1454
   27MOL   O28414896   7.118   4.891   2.730  0.0306 -0.7084 -0.1626
   27MOL   C28514897   7.099   4.666   2.700 -0.4484  0.2138 -0.0431
   27MOL   C28614898   7.037   4.565   2.629 -0.6526 -0.0349 -0.1698
   27MOL   C28714899   7.101   4.439   2.598  0.5562 -0.0221 -0.6046
   27MOL   C28814900   7.046   4.339   2.518  0.4717  0.4496 -0.1704
   27MOL   C28914901   7.114   4.221   2.489  0.1677 -0.2770 -0.0368
   27MOL   C29014902   7.243   4.199   2.541 -0.1553  0.3705 -0.4090
   27MOL   C29114903   7.321   4.077   2.504 -0.0037  0.0859  0.3206
   27MOL   O29214904   7.283   4.027   2.375 -0.0566  0.2401 -0.0883
   27MOL   C29314905   7.316   3.896   2.337 -0.3040 -0.2602  0.0908
   27MOL   C29414906   7.233   3.860   2.213 -0.3796  0.0543  0.8200
   27MOL   O29514907   7.409   4.024   2.577  0.0920 -0.1215  0.7511
   27MOL   C29614908   7.297   4.299   2.632  0.1251  0.3251  0.5993
   27MOL   C29714909   7.223   4.421   2.658  0.1582  0.1022 -0.1758
   27MOL   C29814910   7.284   4.517   2.740 -0.5573  0.8128  0.2895
   27MOL   C29914911   7.230   4.649   2.755  0.6237  0.2550 -0.4452
   27MOL   H30014912   6.947   4.595   2.578  1.3929  3.3502 -2.0172
   27MOL   H30114913   6.958   4.353   2.457  0.6399  1.4443 -0.2023
   27MOL   H30214914   7.068   4.153   2.418 -1.2064 -0.2691  0.8206
   27MOL   H30314915   7.283   3.834   2.420 -0.5113 -0.1605  0.0822
   27MOL   H30414916   7.422   3.877   2.320 -0.2524  0.1494 -0.0509
   27MOL   H30514917   7.130   3.876   2.244 -0.3033 -2.2290  2.3521
   27MOL   H30614918   7.251   3.938   2.138  0.3240 -1.7235 -0.9143
   27MOL   H30714919   7.390   4.285   2.686  1.4053 -0.4561 -1.7395
   27MOL   H30814920   7.378   4.510   2.793 -0.8697  0.1128  0.7612
   27MOL   H30914921   7.293   4.721   2.805  0.1018  0.1562  0.3599
   27MOL   O31014922   7.459   3.744   2.132  0.6897  0.3263  0.3899
   27MOL   C31114923   7.354   3.683   2.108  0.3308 -0.4274 -0.6129
   27MOL   O31214924   7.236   3.732   2.153 -0.4257 -0.2063  0.0107
   27MOL   C31314925   7.345   3.551   2.047 -0.2392  0.1040  0.4597
   27MOL   C31414926   7.467   3.484   2.042 -0.2194  0.7112 -0.4498
   27MOL   C31514927   7.473   3.353   1.992 -0.3159 -0.1544 -0.3827
   27MOL   C31614928   7.597   3.290   1.976  0.6439 -0.1459 -0.9607
   27MOL   C31714929   7.601   3.162   1.924 -0.1807  0.1705 -0.7648
   27MOL   C31814930   7.484   3.099   1.886  0.1806  0.3381  0.2517
   27MOL   C31914931   7.486   2.960   1.828 -0.2030 -0.0801 -0.2520
   27MOL   O32014932   7.589   2.894   1.870  0.2128  0.4199  0.4116
   27MOL   C32114933   7.625   2.765   1.823 -0.0327  0.0892  0.7336
   27MOL   C32214934   7.753   2.721   1.886  0.6095  0.0178  0.2085
   27MOL   O32314935   7.406   2.923   1.742 -0.7134  0.3745  0.7083
   27MOL   C32414936   7.359   3.160   1.901 -0.2119  0.1909 -0.6296
   27MOL   C32514937   7.351   3.287   1.958 -0.6648  0.0421 -0.4873
   27MOL   C32614938   7.225   3.353   1.972 -0.5620 -0.1500 -0.7805
   27MOL   C32714939   7.228   3.486   2.014 -0.2026 -0.4352 -0.3894
   27MOL   H32814940   7.553   3.530   2.087 -0.7917  0.4787  0.9186
   27MOL   H32914941   7.686   3.336   2.018  0.2565 -0.0606 -0.2170
   27MOL   H33014942   7.698   3.116   1.908 -0.4961 -0.5799 -0.5359
   27MOL   H33114943   7.647   2.780   1.718 -2.6127  1.7087  0.3768
   27MOL   H33214944   7.537   2.702   1.822 -1.0237  1.4508  0.4346
   27MOL   H33314945   7.781   2.623   1.848 -1.7012 -0.1060 -1.3100
   27MOL   H33414946   7.828   2.796   1.864  1.7131 -0.8845  0.8145
   27MOL   H33514947   7.274   3.100   1.872 -1.0081 -0.0168  2.0021
   27MOL   H33614948   7.132   3.306   1.942 -1.0098  0.8567 -0.9938
   27MOL   H33714949   7.135   3.541   2.017  0.3956  0.6087 -0.6958
   27MOL   O33814950   7.612   2.514   2.009  0.2299 -0.0509 -0.2107
   27MOL   C33914951   7.651   2.610   2.077 -0.0861  0.4010 -0.3767
   27MOL   O34014952   7.724   2.715   2.030  0.1572  0.0614  0.8697
   27MOL   C34114953   7.628   2.612   2.223 -0.1967 -0.0772  0.1552
   27MOL   C34214954   7.537   2.518   2.279 -0.0932  0.3941 -0.0696
   27MOL   C34314955   7.517   2.508   2.418  0.9169  0.5864 -0.1029
   27MOL   C34414956   7.429   2.412   2.468 -0.5605 -0.7805  0.7473
   27MOL   C34514957   7.405   2.402   2.606  0.1008 -0.0998  0.3717
   27MOL   C34614958   7.475   2.483   2.696 -0.7544  0.0064 -0.2202
   27MOL   C34714959   7.461   2.461   2.841 -0.4846  0.0712  0.6379
   27MOL   O34814960   7.347   2.410   2.868 -0.2933 -0.1697 -0.1351
   27MOL   C34914961   7.308   2.396   3.002 -0.0506 -0.9017 -0.1377
   27MOL   C35014962   7.382   2.294   3.084  0.3828  0.2755  0.0798
   27MOL   O35114963   7.546   2.482   2.924 -0.6175 -0.2560  0.2922
   27MOL   C35214964   7.568   2.574   2.647  0.0864 -0.3005  0.0460
   27MOL   C35314965   7.588   2.590   2.507 -0.0541  0.6066  0.6682
   27MOL   C35414966   7.681   2.682   2.449 -0.4135  0.4229 -0.7329
   27MOL   C35514967   7.697   2.698   2.314 -0.4006  0.3040 -0.1528
   27MOL   H35614968   7.482   2.458   2.208  0.9633  0.1929 -0.7302
   27MOL   H35714969   7.389   2.336   2.402  0.1706  1.4682 -2.3872
   27MOL   H35814970   7.338   2.324   2.641 -3.7907  1.7241 -2.5699
   27MOL   H35914971   7.204   2.363   3.001 -0.2647 -0.2276 -1.0587
   27MOL   H36014972   7.301   2.495   3.048 -0.8268 -0.1463 -1.8339
   27MOL   H36114973   7.390   2.204   3.023  1.2115  0.4554 -0.0912
   27MOL   H36214974   7.486   2.324   3.101  1.1526 -0.0606 -3.6222
   27MOL   H36314975   7.619   2.630   2.723 -0.3971  0.0956  0.0755
   27MOL   H36414976   7.743   2.745   2.511  0.4732 -1.6810  0.5695
   27MOL   H36514977   7.778   2.759   2.275  1.0654  0.1345  2.5015
   27MOL   O36614978   7.161   2.128   3.109  0.4768 -0.2470 -0.0945
   27MOL   C36714979   7.219   2.174   3.208 -0.8225 -0.0941 -0.2318
   27MOL   O36814980   7.320   2.259   3.206 -0.2805  0.1476  0.4432
   27MOL   C36914981   7.174   2.130   3.342 -0.4544 -0.2199  0.4275
   27MOL   C37014982   7.042   2.079   3.360 -0.2571  0.0128 -0.6355
   27MOL   C37114983   7.007   2.047   3.494  0.0460  0.1946  0.4376
   27MOL   C37214984   6.873   2.017   3.532  0.2367 -0.3650  0.0516
   27MOL   C37314985   6.835   1.983   3.662 -0.0112  0.5250 -0.3449
   27MOL   C37414986   6.932   1.980   3.767 -0.2368 -0.1998  0.2020
   27MOL   C37514987   6.890   1.935   3.904  0.3660 -0.3918  0.5171
   27MOL   O37614988   6.779   1.867   3.905 -0.1619 -0.7350  0.1869
   27MOL   C37714989   6.722   1.831   4.029  0.7169 -0.3135 -0.3884
   27MOL   C37814990   6.604   1.921   4.048 -0.7159 -0.4420  0.6261
   27MOL   O37914991   6.958   1.957   4.003 -0.1087 -0.2823  0.0073
   27MOL   C38014992   7.064   2.014   3.732 -0.0404  0.5412 -0.7234
   27MOL   C38114993   7.100   2.044   3.603 -0.0177 -0.3432 -0.2202
   27MOL   C38214994   7.230   2.085   3.577 -0.6207  0.3706 -0.1424
   27MOL   C38314995   7.268   2.136   3.450 -0.1248 -0.1356  0.6484
   27MOL   H38414996   6.976   2.065   3.276 -0.8277 -3.5417  0.3226
   27MOL   H38514997   6.786   2.021   3.469 -0.9563 -0.3876  1.6528
   27MOL   H38614998   6.731   1.961   3.675  0.1279  0.7869  1.2416
   27MOL   H38714999   6.788   1.847   4.115 -1.0502 -1.3886  1.2250
   27MOL   H38815000   6.685   1.729   4.038 -0.8725  0.3772  1.5814
   27MOL   H38915001   6.554   1.904   4.143 -0.2379  3.8531  1.7810
   27MOL   H39015002   6.641   2.023   4.060  0.3108 -0.7098 -0.2183
   27MOL   H39115003   7.139   2.030   3.808 -0.7884  0.4821  0.0326
   27MOL   H39215004   7.303   2.090   3.657 -0.6116 -2.4851  0.0777
   27MOL   H39315005   7.368   2.176   3.443 -0.0452 -0.3689  0.4178
   27MOL   O39415006   6.402   1.723   3.986  0.2382 -0.3410 -0.7078
   27MOL   C39515007   6.422   1.823   3.916  0.1048 -0.1109 -0.0448
   27MOL   O39615008   6.516   1.916   3.937  0.4572 -0.0972 -0.0922
   27MOL   C39715009   6.341   1.853   3.791 -0.5344  1.1488 -0.6990
   27MOL   C39815010   6.210   1.808   3.777  0.5224 -0.2253  0.2799
   27MOL   C39915011   6.131   1.855   3.669  0.2536 -0.1485  0.0444
   27MOL   C40015012   6.002   1.804   3.649 -0.3540  0.1487 -0.3628
   27MOL   C40115013   5.926   1.845   3.541  0.3924  0.0022  0.0612
   27MOL   C40215014   5.968   1.945   3.455 -0.8005  0.1217 -0.1103
   27MOL   C40315015   5.876   1.981   3.342  0.3915 -0.0110  1.1549
   27MOL   O40415016   5.941   2.066   3.245 -0.0316  0.1369 -0.5311
   27MOL   C40515017   5.868   2.123   3.136 -0.4517  0.0808  0.4550
   27MOL   C40615018   5.843   2.270   3.179  0.3620 -0.1064 -0.2215
   27MOL   O40715019   5.761   1.942   3.329 -0.0746  0.2343  0.2731
   27MOL   C40815020   6.104   1.994   3.467 -0.3142  0.5871  0.2492
   27MOL   C40915021   6.183   1.945   3.569  0.0967 -0.5222 -0.4022
   27MOL   C41015022   6.319   1.982   3.587 -0.2100  0.0266  0.5538
   27MOL   C41115023   6.400   1.932   3.692 -0.2817 -0.0535 -0.3174
   27MOL   H41215024   6.172   1.744   3.856 -0.6390  2.8848  2.3503
   27MOL   H41315025   5.961   1.741   3.727 -1.4142  1.7470  0.3930
   27MOL   H41415026   5.826   1.806   3.530  0.3583  0.0993  0.0212
   27MOL   H41515027   5.770   2.076   3.123 -0.3240 -0.1881  0.4630
   27MOL   H41615028   5.924   2.128   3.043  0.7643  0.1634  1.1761
   27MOL   H41715029   5.749   2.302   3.225  0.0818 -0.2904 -0.6591
   27MOL   H41815030   5.918   2.300   3.251 -0.7609  1.6048  0.2562
   27MOL   H41915031   6.142   2.058   3.389 -1.1493  0.1122 -0.5557
   27MOL   H42015032   6.363   2.046   3.512  0.0291  0.1838  0.8268
   27MOL   H42115033   6.497   1.977   3.701 -0.0999 -0.6510  0.9547
   27MOL   O42215034   5.661   2.290   2.981 -0.1839 -0.2235 -0.3608
   27MOL   C42315035   5.760   2.363   2.972 -0.2827 -0.0521  0.2159
   27MOL   O42415036   5.858   2.363   3.061  0.6402  0.1509  0.1459
   27MOL   C42515037   5.787   2.460   2.863 -0.0003  0.5230 -0.1451
   27MOL   C42615038   5.905   2.542   2.863  0.7238 -0.1583  0.1252
   27MOL   C42715039   5.908   2.651   2.775 -0.3896  0.2627  0.2210
   27MOL   C42815040   6.018   2.736   2.783  0.1049 -0.0231  0.0647
   27MOL   C42915041   6.036   2.835   2.686 -0.4209  0.0410 -0.0871
   27MOL   C43015042   5.943   2.856   2.580  0.8254 -0.1156  0.0474
   27MOL   C43115043   5.978   2.958   2.477  0.4218  0.6201  0.8590
   27MOL   O43215044   5.959   2.908   2.355  0.2116 -0.3663  0.2774
   27MOL   C43315045   6.013   2.956   2.236  0.1301 -0.2558 -0.3864
   27MOL   C43415046   5.905   3.007   2.137 -0.5643 -0.5603 -0.6029
   27MOL   O43515047   6.051   3.055   2.507  0.0618 -0.0931 -0.3274
   27MOL   C43615048   5.821   2.778   2.582 -0.1428 -0.3874  0.8074
   27MOL   C43715049   5.805   2.676   2.677 -0.0380 -0.4569  0.2399
   27MOL   C43815050   5.697   2.583   2.669 -0.1219 -0.3947 -0.0863
   27MOL   C43915051   5.688   2.478   2.764 -0.2122 -0.7203 -0.4258
   27MOL   H44015052   5.987   2.520   2.930  0.6090 -0.7121  0.0872
   27MOL   H44115053   6.104   2.726   2.847  1.0675  1.9713 -0.8714
   27MOL   H44215054   6.131   2.886   2.685 -0.1522 -0.4128  1.0733
   27MOL   H44315055   6.050   2.857   2.211  1.2618  0.0268  0.1279
   27MOL   H44415056   6.098   3.024   2.248 -0.3060  0.7029 -2.5493
   27MOL   H44515057   5.921   2.966   2.037 -1.8750 -0.3911 -0.8884
   27MOL   H44615058   5.811   2.964   2.173 -0.5005  0.4576  0.7816
   27MOL   H44715059   5.737   2.797   2.518  1.7157 -1.2368 -1.9660
   27MOL   H44815060   5.619   2.596   2.596  0.2961  1.1440 -0.2750
   27MOL   H44915061   5.603   2.412   2.761 -1.2336  0.6113 -1.1887
   27MOL   O45015062   5.759   3.196   2.281  0.2273 -0.1089  0.8765
   27MOL   C45115063   5.852   3.226   2.208  0.0542  0.7351 -0.3862
   27MOL   O45215064   5.916   3.148   2.124 -0.1755  1.1797 -0.3034
   27MOL   C45315065   5.906   3.365   2.202 -0.1935 -0.1166  0.0085
   27MOL   C45415066   5.961   3.421   2.089 -0.8870  0.5835  0.3837
   27MOL   C45515067   6.027   3.540   2.097 -0.1031 -0.0238  0.0447
   27MOL   C45615068   6.099   3.589   1.982  0.4711 -0.3470 -0.3587
   27MOL   C45715069   6.161   3.721   1.991 -0.4078  0.3779  0.1373
   27MOL   C45815070   6.145   3.807   2.104 -0.3738 -0.5023 -0.7435
   27MOL   C45915071   6.210   3.942   2.120  0.3497  0.5592 -0.2389
   27MOL   O46015072   6.256   3.981   1.998 -0.2005 -0.0247 -0.5850
   27MOL   C46115073   6.335   4.102   1.973  0.0154  0.1979  0.1123
   27MOL   C46215074   6.245   4.226   2.000 -0.5337 -0.5368  0.5060
   27MOL   O46315075   6.232   3.993   2.229 -0.2955 -0.8108  0.1309
   27MOL   C46415076   6.078   3.755   2.219 -0.1679  0.6413 -0.2157
   27MOL   C46515077   6.018   3.626   2.217 -0.2401 -0.3684 -0.2617
   27MOL   C46615078   5.944   3.576   2.323  0.2005 -0.1325  0.3049
   27MOL   C46715079   5.883   3.453   2.312  0.5493 -0.1443 -0.5794
   27MOL   H46815080   5.978   3.355   2.005 -1.3413  1.7864 -0.6865
   27MOL   H46915081   6.100   3.540   1.886  0.0149 -1.7463  0.3463
   27MOL   H47015082   6.209   3.762   1.904 -1.4555  1.5452  0.0979
   27MOL   H47115083   6.369   4.091   1.870 -1.0175 -2.6030  0.0336
   27MOL   H47215084   6.419   4.105   2.042  0.0750  1.8373 -0.0007
   27MOL   H47315085   6.155   4.209   1.940 -1.0652 -0.2833  1.2147
   27MOL   H47415086   6.224   4.226   2.107  0.2216 -1.1175  0.6577
   27MOL   H47515087   6.073   3.810   2.311  2.8789 -1.1421  1.0792
   27MOL   H47615088   5.929   3.634   2.412  4.2448 -0.9396  1.5806
   27MOL   H47715089   5.837   3.417   2.403 -1.7771  0.8706 -1.3140
   27MOL   O47815090   6.447   4.379   2.130 -0.1662 -0.0896  0.1712
   27MOL   C47915091   6.383   4.423   2.029 -0.2274  0.3503  0.5756
   27MOL   O48015092   6.299   4.349   1.949  0.1499  0.0828 -0.0168
   27MOL   C48115093   6.399   4.557   1.983 -0.0240  0.5326 -0.5018
   27MOL   C48215094   6.423   4.662   2.080 -0.5388 -0.1703 -0.2373
   27MOL   C48315095   6.451   4.793   2.034 -0.2298 -0.5871  0.0643
   27MOL   C48415096   6.483   4.884   2.138 -0.2884  0.3196  0.5120
   27MOL   C48515097   6.535   5.007   2.098  0.8897 -0.0759 -0.3385
   27MOL   C48615098   6.546   5.040   1.967 -0.4934  0.2633 -0.3741
   27MOL   C48715099   6.624   5.160   1.926 -1.0300  0.1845 -0.7302
   27MOL   O48815100   6.742   5.181   1.997 -0.3035 -0.6067 -0.6368
   27MOL   C48915101   6.852   5.263   1.952  0.0069  0.3620  0.7217
   27MOL   C49015102   6.897   5.210   1.818 -0.8940  0.1798  0.2666
   27MOL   O49115103   6.592   5.229   1.827  0.3698  0.1341  0.2212
   27MOL   C49215104   6.502   4.955   1.865  0.4785  0.2473  0.3382
   27MOL   C49315105   6.459   4.826   1.898  0.4947  0.1087 -0.1188
   27MOL   C49415106   6.426   4.726   1.809  0.5796 -0.2357 -0.0271
   27MOL   C49515107   6.396   4.594   1.851 -0.6750 -0.2315  0.3058
   27MOL   H49615108   6.425   4.640   2.186 -0.4542 -3.6706 -0.8984
   27MOL   H49715109   6.499   4.851   2.240  0.6491  0.6729  0.4909
   27MOL   H49815110   6.565   5.077   2.175 -0.9336  1.9259 -1.3945
   27MOL   H49915111   6.932   5.269   2.025  1.5506 -2.9757 -0.6015
   27MOL   H50015112   6.803   5.360   1.941  1.2564  0.9583  0.3776
   27MOL   H50115113   6.825   5.236   1.740 -0.2037 -1.2106 -0.8594
   27MOL   H50215114   6.985   5.268   1.792 -1.9100  1.0680 -1.2732
   27MOL   H50315115   6.505   4.979   1.760 -0.5702  0.7353  0.4132
   27MOL   H50415116   6.420   4.747   1.704 -0.3769 -0.0831  0.0557
   27MOL   H50515117   6.379   4.529   1.765  1.1278 -0.0777 -0.1889
   27MOL   O50615118   7.108   5.095   1.956  0.0842  0.0358  0.5609
   27MOL   C50715119   7.021   5.023   1.903  0.0823  0.4953 -0.2762
   27MOL   O50815120   6.926   5.070   1.818  0.5460 -0.0164 -0.0813
   27MOL   C50915121   7.000   4.883   1.935 -0.4100  0.1871  0.0646
   27MOL   C51015122   7.097   4.797   1.993  0.3073  0.3597 -0.4587
   27MOL   C51115123   7.068   4.665   2.042 -0.5363 -0.3503  0.1181
   27MOL   C51215124   7.165   4.588   2.102  0.5902  0.4809 -0.4932
   27MOL   C51315125   7.138   4.456   2.136  0.1343 -0.4198  0.1913
   27MOL   C51415126   7.007   4.404   2.123  0.5348 -0.1971  0.2675
   27MOL   C51515127   6.967   4.270   2.179 -0.3107  0.7998  0.2038
   27MOL   O51615128   6.837   4.266   2.219 -0.0519  0.1305 -0.1962
   27MOL   C51715129   6.789   4.144   2.273  0.5777  0.1811 -0.1626
   27MOL   C51815130   6.660   4.093   2.211  0.2189  0.1438  0.0999
   27MOL   O51915131   7.047   4.178   2.182 -0.1185 -0.0904 -0.2673
   27MOL   C52015132   6.909   4.492   2.068 -0.2080 -0.1248 -0.4262
   27MOL   C52115133   6.935   4.618   2.021  0.0574 -0.4959  0.9697
   27MOL   C52215134   6.830   4.698   1.963  0.1162 -0.2495 -0.0651
   27MOL   C52315135   6.873   4.825   1.924  0.1847  0.1840 -0.2648
   27MOL   H52415136   7.197   4.827   2.017  0.6410 -1.1828  0.1404
   27MOL   H52515137   7.268   4.620   2.115  0.6409  0.6561 -1.2870
   27MOL   H52615138   7.218   4.395   2.173  1.1226  0.8942  0.2448
   27MOL   H52715139   6.781   4.149   2.382 -0.9907 -2.4534 -0.1054
   27MOL   H52815140   6.857   4.060   2.252  2.0809  1.3628 -0.1148
   27MOL   H52915141   6.602   4.040   2.287  0.4754  0.4742  0.5315
   27MOL   H53015142   6.596   4.170   2.169  0.0358  0.1625  0.4130
   27MOL   H53115143   6.807   4.456   2.058 -0.6806  0.8203  0.8198
   27MOL   H53215144   6.729   4.666   1.943 -0.2954  0.1087  1.4091
   27MOL   H53315145   6.790   4.884   1.887 -0.2079  0.9773  1.7920
   27MOL   O53415146   6.699   4.167   1.961  0.3601 -0.5340 -0.1735
   27MOL   C53515147   6.695   4.044   1.979  0.0850 -0.8348 -0.1513
   27MOL   O53615148   6.667   3.997   2.103 -0.1895 -0.0896 -0.0203
   27MOL   C53715149   6.709   3.947   1.862  0.0039 -0.0941  0.6543
   27MOL   C53815150   6.754   4.007   1.739 -0.0658 -0.0349 -0.6293
   27MOL   C53915151   6.773   3.926   1.627  0.0735 -0.8877  0.4805
   27MOL   C54015152   6.821   3.987   1.507 -0.2025 -0.0521 -0.3825
   27MOL   C54115153   6.854   3.909   1.397  0.3440  0.2992  0.1367
   27MOL   C54215154   6.839   3.766   1.407  0.0686 -0.2405  0.8379
   27MOL   C54315155   6.863   3.673   1.285 -0.1848  0.0565 -0.6614
   27MOL   O54415156   6.823   3.728   1.172 -0.3269  0.6346 -0.3876
   27MOL   C54515157   6.820   3.648   1.055 -0.4209  0.2411 -0.1049
   27MOL   C54615158   6.841   3.734   0.930  0.0166  0.1957 -0.7914
   27MOL   O54715159   6.909   3.555   1.294  0.2446 -0.0998  1.1089
   27MOL   C54815160   6.803   3.707   1.526  0.3708 -0.1119  0.2436
   27MOL   C54915161   6.770   3.786   1.638  1.1313 -0.4058  0.0545
   27MOL   C55015162   6.727   3.726   1.759  0.0666 -0.2598 -0.0838
   27MOL   C55115163   6.694   3.808   1.869 -0.6907 -0.5601  0.0051
   27MOL   H55215164   6.783   4.111   1.730 -1.2929  0.3432 -0.3236
   27MOL   H55315165   6.824   4.094   1.498  1.3349 -0.1576 -1.4188
   27MOL   H55415166   6.884   3.951   1.303 -1.5059  0.7740 -0.2680
   27MOL   H55515167   6.727   3.594   1.042  0.6525 -1.4386 -1.0242
   27MOL   H55615168   6.900   3.574   1.053  0.2204  0.9422 -1.8630
   27MOL   H55715169   6.931   3.793   0.946 -1.0174  1.3037  1.0109
   27MOL   H55815170   6.757   3.802   0.913 -1.2589 -1.0987  0.1867
   27MOL   H55915171   6.787   3.602   1.547  1.0751 -0.0838  0.9275
   27MOL   H56015172   6.716   3.621   1.782 -0.0641 -0.8201 -2.5880
   27MOL   H56115173   6.666   3.774   1.968  1.1522  1.1930  1.1781
   27MOL   H56215174   6.848   3.684   0.833  0.3890 -1.0282 -0.1453
   28MOL     O115175   6.708   3.088   4.739  0.0059  0.4027  0.3897
   28MOL     C215176   6.665   3.183   4.801 -0.6715  0.1190  0.4163
   28MOL     O315177   6.614   3.291   4.735 -0.2014  0.3824  0.3200
   28MOL     C415178   6.683   3.208   4.947 -0.1377 -0.5297 -0.2478
   28MOL     C515179   6.775   3.127   5.019  0.0606  0.4753  0.2633
   28MOL     C615180   6.797   3.150   5.156  0.6743  0.0270 -0.4307
   28MOL     C715181   6.896   3.087   5.227  0.1947 -0.3866 -0.6155
   28MOL     C815182   6.922   3.103   5.366 -0.3611 -0.1432  0.4077
   28MOL     C915183   6.851   3.206   5.434  0.6897  0.8290 -0.8038
   28MOL    C1015184   6.865   3.232   5.577 -0.2133  0.8432  0.6238
   28MOL    O1115185   6.944   3.137   5.640  0.3303 -0.0413 -0.3503
   28MOL    C1215186   6.952   3.155   5.782 -0.4864 -0.0373 -0.2058
   28MOL    C1315187   7.080   3.232   5.802 -0.0482  0.6777 -0.4597
   28MOL    O1415188   6.823   3.331   5.635  0.0551 -0.1144  0.4586
   28MOL    C1515189   6.749   3.274   5.364  0.2347  0.2153  0.2021
   28MOL    C1615190   6.722   3.248   5.226 -0.5504 -0.5210 -0.1960
   28MOL    C1715191   6.626   3.322   5.152 -0.1124 -0.0968  0.6607
   28MOL    C1815192   6.596   3.296   5.018 -0.1166  0.1328 -0.1234
   28MOL    H1915193   6.831   3.049   4.970 -0.6244  0.3085 -0.2602
   28MOL    H2015194   6.948   3.013   5.167 -0.7658 -1.0975 -0.5810
   28MOL    H2115195   7.005   3.047   5.407  1.0408 -0.5515 -2.9094
   28MOL    H2215196   6.859   3.198   5.820 -0.2600 -1.4649  2.0154
   28MOL    H2315197   6.955   3.052   5.817  1.4978  0.1537  0.2430
   28MOL    H2415198   7.119   3.274   5.709  1.1755 -0.4614 -0.4652
   28MOL    H2515199   7.045   3.310   5.870 -2.5132  1.3192 -2.3766
   28MOL    H2615200   6.693   3.351   5.416  1.3046  0.4729  0.9965
   28MOL    H2715201   6.578   3.409   5.196  1.7914  0.2075  2.2206
   28MOL    H2815202   6.541   3.359   4.949  1.2988  1.6697  0.1315
   28MOL    H2915203   6.644   3.312   4.648 -2.8869  2.3732 -0.1811
   28MOL    O3015204   7.306   3.139   5.692  0.7595  0.2094 -0.0618
   28MOL    C3115205   7.290   3.122   5.813 -0.1188  0.6432 -0.2912
   28MOL    O3215206   7.178   3.151   5.874  0.4846  0.0032 -0.3057
   28MOL    C3315207   7.397   3.058   5.895 -0.5678 -0.3932 -0.4201
   28MOL    C3415208   7.516   3.017   5.831  0.4756 -0.3035 -0.0947
   28MOL    C3515209   7.613   2.945   5.903  0.2534  0.3357 -0.3432
   28MOL    C3615210   7.735   2.902   5.841 -0.0135 -0.3304 -0.7451
   28MOL    C3715211   7.829   2.830   5.919 -1.3325 -1.0696  0.3075
   28MOL    C3815212   7.811   2.800   6.055 -0.4754  0.4873 -0.0592
   28MOL    C3915213   7.916   2.727   6.140 -0.1616  0.4227  0.6087
   28MOL    O4015214   8.014   2.682   6.058  0.5978  0.5772  0.8637
   28MOL    C4115215   8.121   2.614   6.120  0.4083  0.2252  0.2697
   28MOL    C4215216   8.095   2.469   6.163 -0.3374 -0.4591 -0.6514
   28MOL    O4315217   7.907   2.715   6.266 -0.4629  0.1058  0.0867
   28MOL    C4415218   7.690   2.850   6.115 -0.1082  0.4995  0.3360
   28MOL    C4515219   7.590   2.919   6.041  0.3505 -0.6551 -0.1857
   28MOL    C4615220   7.471   2.956   6.103  0.7126  0.2499  0.0287
   28MOL    C4715221   7.375   3.017   6.031 -0.3245 -0.0741 -0.3845
   28MOL    H4815222   7.534   3.033   5.726  1.3489 -2.4793 -0.3057
   28MOL    H4915223   7.747   2.919   5.735 -2.9512 -0.1006 -1.0980
   28MOL    H5015224   7.913   2.788   5.865 -1.6646 -0.0272 -1.0598
   28MOL    H5115225   8.145   2.671   6.210 -0.4748  0.8037  0.1461
   28MOL    H5215226   8.214   2.624   6.064  0.9528  1.2662  1.3140
   28MOL    H5315227   8.154   2.438   6.249  2.3689  0.0250 -2.2986
   28MOL    H5415228   7.990   2.444   6.180 -0.3436  0.0963  0.1552
   28MOL    H5515229   7.669   2.833   6.220 -1.5941  0.3439  0.0298
   28MOL    H5615230   7.449   2.936   6.207 -3.7306 -2.9836 -1.3660
   28MOL    H5715231   7.282   3.054   6.073  0.9899  1.9650  0.7869
   28MOL    O5815232   7.933   2.394   5.941  0.6011  0.7389  0.8408
   28MOL    C5915233   8.051   2.355   5.948 -0.1094 -0.2713 -0.3630
   28MOL    O6015234   8.135   2.386   6.057  0.0544  0.2192  0.0807
   28MOL    C6115235   8.131   2.294   5.835  0.0849  0.1017  0.4623
   28MOL    C6215236   8.248   2.214   5.857 -0.3440  0.3788 -0.2725
   28MOL    C6315237   0.070   2.151   5.748 -0.1169 -0.5444  0.0367
   28MOL    C6415238   0.178   2.063   5.777 -0.1579  0.1908 -0.1213
   28MOL    C6515239   0.245   2.007   5.663  0.7513  0.2217 -0.3522
   28MOL    C6615240   0.220   2.052   5.532  0.1415  0.0122 -0.6139
   28MOL    C6715241   0.319   2.009   5.420  0.0852  0.2029  0.2919
   28MOL    O6815242   0.407   1.911   5.459  0.3788 -0.8800 -0.0815
   28MOL    C6915243   0.523   1.881   5.376 -0.2834 -0.1138 -0.0594
   28MOL    C7015244   0.477   1.791   5.262 -1.0554  0.6696 -0.3073
   28MOL    O7115245   0.315   2.059   5.312  0.6352 -0.1783  0.4533
   28MOL    C7215246   0.107   2.131   5.507 -0.2529  0.0516  0.7085
   28MOL    C7315247   0.029   2.177   5.617 -0.5307 -0.0736  0.1714
   28MOL    C7415248   8.168   2.254   5.597  0.7540 -0.7133  0.2310
   28MOL    C7515249   8.087   2.306   5.701 -0.0270 -0.7791 -0.1913
   28MOL    H7615250   0.041   2.193   5.954 -2.3672  0.3303  0.6012
   28MOL    H7715251   0.207   2.045   5.879 -0.1596 -0.1723 -0.1849
   28MOL    H7815252   0.326   1.939   5.686  0.7247  1.2171  2.9348
   28MOL    H7915253   0.590   1.825   5.442 -0.8938 -0.3063  0.4017
   28MOL    H8015254   0.578   1.972   5.349 -0.6614  0.4938  1.1838
   28MOL    H8115255   0.548   1.714   5.234 -0.3034  1.1740  0.1826
   28MOL    H8215256   0.387   1.743   5.299 -1.2711  1.9992  0.9852
   28MOL    H8315257   0.096   2.159   5.403  1.3581 -0.8313  0.2854
   28MOL    H8415258   8.134   2.273   5.496 -0.4041 -0.5970  0.6381
   28MOL    H8515259   8.007   2.374   5.680 -0.5620 -1.5649 -0.7133
   28MOL    O8615260   0.689   1.931   5.144 -0.5343 -0.0491 -0.5769
   28MOL    C8715261   0.578   1.930   5.091  0.2871 -0.7454  0.4328
   28MOL    O8815262   0.466   1.872   5.148  1.0145 -0.4304 -0.3359
   28MOL    C8915263   0.549   2.019   4.974 -0.5260  0.1815  0.4348
   28MOL    C9015264   0.622   2.133   4.959 -0.9217  0.5928 -0.1584
   28MOL    C9115265   0.583   2.225   4.857 -0.4327  0.2220 -0.8449
   28MOL    C9215266   0.658   2.344   4.832 -0.5244  0.1639  0.4236
   28MOL    C9315267   0.614   2.435   4.734  0.2387  0.0679  0.0283
   28MOL    C9415268   0.504   2.411   4.656  0.5558 -0.5498  0.4321
   28MOL    C9515269   0.452   2.514   4.566  0.1683  0.4188  0.2958
   28MOL    O9615270   0.340   2.480   4.505 -0.0565 -0.0073  0.0516
   28MOL    C9715271   0.264   2.579   4.430 -0.4148 -0.0813 -0.1237
   28MOL    C9815272   0.119   2.589   4.476 -0.1540  1.0196 -0.9655
   28MOL    O9915273   0.501   2.626   4.566 -0.2820 -0.2789  0.4340
   28MOL   C10015274   0.424   2.297   4.680 -0.1496 -0.6683 -0.7505
   28MOL   C10115275   0.464   2.202   4.779  0.6908  0.3129 -0.0061
   28MOL   C10215276   0.391   2.084   4.796 -0.6214  0.0875  0.3259
   28MOL   C10315277   0.437   1.990   4.887 -0.5073  0.4900 -0.0745
   28MOL   H10415278   0.699   2.156   5.032  1.3365 -0.9703 -1.9612
   28MOL   H10515279   0.749   2.361   4.888 -0.6873 -2.4450  1.5102
   28MOL   H10615280   0.669   2.528   4.722  0.9158 -0.3444 -0.0808
   28MOL   H10715281   0.269   2.565   4.322 -1.1363  0.1462 -0.1857
   28MOL   H10815282   0.305   2.675   4.460  0.9842 -1.7409  3.7017
   28MOL   H10915283   0.078   2.490   4.497  0.1845  1.4467  1.9278
   28MOL   H11015284   0.122   2.651   4.566 -2.3946  0.0509 -0.1904
   28MOL   H11115285   0.337   2.281   4.618 -0.4901  0.4653 -0.5842
   28MOL   H11215286   0.313   2.050   4.730  0.2720  1.5918 -1.5431
   28MOL   H11315287   0.386   1.895   4.898  2.1905 -0.8071  1.6674
   28MOL   O11415288   8.085   2.614   4.490 -0.2530  0.5381 -0.1830
   28MOL   C11515289   8.149   2.661   4.404  0.0326 -0.0986 -0.5303
   28MOL   O11615290   0.029   2.649   4.385  0.1668 -0.2047 -0.3929
   28MOL   C11715291   8.086   2.744   4.295 -0.5214  0.4788  0.4589
   28MOL   C11815292   8.151   2.763   4.166 -0.2803  0.4443 -0.1007
   28MOL   C11915293   8.088   2.845   4.069  0.2636  0.6773 -0.7317
   28MOL   C12015294   8.146   2.855   3.940  0.0526  0.9470  0.1788
   28MOL   C12115295   8.082   2.942   3.848 -0.4645  0.4982  0.5294
   28MOL   C12215296   7.967   3.015   3.879  0.4226 -0.6379 -0.4848
   28MOL   C12315297   7.900   3.099   3.778 -0.3441  0.0252 -0.0579
   28MOL   O12415298   7.979   3.145   3.677  0.0863 -0.3047 -0.0005
   28MOL   C12515299   7.918   3.206   3.565 -0.4957 -0.3958 -0.1129
   28MOL   C12615300   8.028   3.254   3.471  0.4621 -0.8212  0.3800
   28MOL   O12715301   7.781   3.132   3.779  0.4205 -0.1719 -0.0393
   28MOL   C12815302   7.904   2.994   3.999  0.1600 -0.1805  0.0973
   28MOL   C12915303   7.963   2.914   4.099 -0.0894  0.1670 -0.1206
   28MOL   C13015304   7.898   2.888   4.223 -0.2473  0.2399 -0.0238
   28MOL   C13115305   7.963   2.804   4.323  0.1828 -0.1083  0.2494
   28MOL   H13215306   8.242   2.710   4.142 -1.2426 -1.0222 -0.5762
   28MOL   H13315307   8.233   2.797   3.910 -1.6534 -1.5838 -0.0041
   28MOL   H13415308   8.133   2.963   3.755 -2.0749 -2.5531 -1.1098
   28MOL   H13515309   7.864   3.294   3.600 -0.3800  0.2232 -1.4424
   28MOL   H13615310   7.846   3.139   3.518  1.2786 -1.6140 -1.1475
   28MOL   H13715311   7.970   3.314   3.402  2.4393  2.2170  1.2710
   28MOL   H13815312   8.111   3.304   3.521  0.5456  0.1466 -0.7206
   28MOL   H13915313   7.813   3.048   4.022  1.4571  1.7875  0.7651
   28MOL   H14015314   7.804   2.938   4.234 -0.2748  0.2343 -0.2349
   28MOL   H14115315   7.903   2.784   4.411  1.7323 -0.4552  1.2368
   28MOL   O14215316   7.941   3.126   3.228  0.3140 -0.0011 -0.5594
   28MOL   C14315317   8.046   3.092   3.287 -0.1479  0.1202  0.7032
   28MOL   O14415318   8.098   3.145   3.408 -0.4291  0.2901 -0.0164
   28MOL   C14515319   8.136   2.990   3.226  0.5442  0.1702 -0.4125
   28MOL   C14615320   8.102   2.937   3.102 -0.7028  0.4430 -0.2618
   28MOL   C14715321   8.188   2.855   3.028  0.2860 -0.3907 -0.1509
   28MOL   C14815322   8.154   2.799   2.905 -0.5757 -0.1535  0.1532
   28MOL   C14915323   8.239   2.716   2.834 -0.9144  0.0146 -0.3627
   28MOL   C15015324   0.111   2.672   2.895 -0.5456 -0.5285  0.2195
   28MOL   C15115325   0.208   2.576   2.830 -0.0768  0.1994 -0.5696
   28MOL   O15215326   0.170   2.535   2.702  0.0110 -0.6319  0.7354
   28MOL   C15315327   0.242   2.438   2.631 -0.5181  0.2563  0.3055
   28MOL   C15415328   0.221   2.299   2.686  0.1251 -0.1693  0.0007
   28MOL   O15515329   0.300   2.525   2.896 -0.2746  0.6668 -0.3885
   28MOL   C15615330   0.145   2.723   3.024  0.1535  0.3130 -0.8988
   28MOL   C15715331   0.062   2.813   3.089  0.2481 -0.1426  0.3087
   28MOL   C15815332   0.096   2.853   3.226 -0.1558  0.3286 -0.6243
   28MOL   C15915333   0.008   2.949   3.293 -1.2468  0.2823  0.7639
   28MOL   H16015334   8.018   2.977   3.047 -0.0643  1.6019 -0.4107
   28MOL   H16115335   8.060   2.824   2.858 -0.0716  0.1417 -0.7293
   28MOL   H16215336   8.229   2.690   2.730  0.3946 -0.0723 -0.4806
   28MOL   H16315337   0.349   2.456   2.630 -0.1732 -1.7598 -0.3443
   28MOL   H16415338   0.222   2.414   2.527  2.0842  2.2744 -0.7122
   28MOL   H16515339   0.200   2.298   2.793 -1.0957 -0.6292 -0.2337
   28MOL   H16615340   0.132   2.261   2.635  0.0952  0.2362 -0.2436
   28MOL   H16715341   0.237   2.693   3.072  0.1071 -0.0049 -1.0072
   28MOL   H16815342   0.185   2.812   3.271  0.3384  0.3412 -1.5625
   28MOL   H16915343   0.033   2.994   3.387  0.2868 -1.4442  1.2148
   28MOL   O17015344   0.262   2.049   2.796 -0.4548 -0.2221  0.5430
   28MOL   C17115345   0.347   2.099   2.716  0.5937 -0.4684  0.5562
   28MOL   O17215346   0.346   2.228   2.676 -0.3897 -0.1240  0.1613
   28MOL   C17315347   0.460   2.019   2.654  0.2220 -0.3121  0.0348
   28MOL   C17415348   0.466   1.886   2.678  0.2280  0.8471  0.3302
   28MOL   C17515349   0.580   1.813   2.636 -0.0377 -0.1071 -0.0245
   28MOL   C17615350   0.592   1.676   2.658  0.0415  0.0427  0.0932
   28MOL   C17715351   0.690   1.600   2.594 -0.3474  1.0100  0.0435
   28MOL   C17815352   0.783   1.666   2.511  0.5799 -0.9934  0.7280
   28MOL   C17915353   0.887   1.585   2.438  0.5031 -0.3706  0.0538
   28MOL   O18015354   0.894   1.451   2.470 -0.0955  0.3703  0.6325
   28MOL   C18115355   1.007   1.377   2.422  0.4861  0.0089  0.3144
   28MOL   C18215356   1.122   1.379   2.521  0.0653  0.0778 -0.4787
   28MOL   O18315357   0.974   1.635   2.360  0.1879 -0.0359  0.0509
   28MOL   C18415358   0.780   1.804   2.503  0.2317  0.0777  0.3002
   28MOL   C18515359   0.675   1.879   2.560  0.8879 -0.0060  0.5206
   28MOL   C18615360   0.670   2.013   2.537  0.7192 -0.6693 -0.0998
   28MOL   C18715361   0.567   2.090   2.597 -0.5156 -0.2518 -0.1671
   28MOL   H18815362   0.382   1.835   2.723  0.6816  0.4352  0.7147
   28MOL   H18915363   0.516   1.633   2.721 -0.1872  0.4405  0.0920
   28MOL   H19015364   0.679   1.493   2.609  0.2132  1.0392  0.6729
   28MOL   H19115365   1.043   1.400   2.322 -1.4103 -0.0160 -0.4009
   28MOL   H19215366   0.976   1.274   2.406 -1.2325  0.6135 -0.3805
   28MOL   H19315367   1.135   1.479   2.562  0.2088  0.4743 -1.4628
   28MOL   H19415368   1.096   1.317   2.606  0.8056  0.6069  0.1428
   28MOL   H19515369   0.865   1.855   2.462  0.8216  1.4860  3.1591
   28MOL   H19615370   0.743   2.059   2.471  0.6413 -0.6038 -0.1411
   28MOL   H19715371   0.561   2.197   2.584 -0.6195 -0.3871 -1.2243
   28MOL   O19815372   1.194   1.108   2.506 -0.0707 -0.5610 -0.4174
   28MOL   C19915373   1.257   1.195   2.446 -0.4262  0.4562 -0.2083
   28MOL   O20015374   1.236   1.327   2.452  0.7175  0.5476  0.1517
   28MOL   C20115375   1.375   1.168   2.360  0.2100 -0.1444 -0.2818
   28MOL   C20215376   1.438   1.040   2.361 -0.1782 -0.5697  0.6487
   28MOL   C20315377   1.547   1.011   2.284  0.3387 -0.3493 -0.0430
   28MOL   C20415378   1.610   0.891   2.289  0.3980 -0.4261  0.2561
   28MOL   C20515379   1.725   0.862   2.214  0.3521  0.3292  0.2366
   28MOL   C20615380   1.783   0.963   2.131  0.1808 -0.1903 -0.0126
   28MOL   C20715381   1.901   0.926   2.051  0.2210  0.1966 -0.0147
   28MOL   O20815382   1.928   1.028   1.966  0.6246 -0.2483  0.1543
   28MOL   C20915383   2.051   1.023   1.897  0.3364  0.4173 -0.0445
   28MOL   C21015384   2.038   0.945   1.765 -0.3089 -0.6564  0.3291
   28MOL   O21115385   1.955   0.817   2.054  0.6825  0.1094  0.7568
   28MOL   C21215386   1.728   1.093   2.144 -0.7206 -0.6312  0.0611
   28MOL   C21315387   1.607   1.116   2.211  0.3484  0.2416  0.0603
   28MOL   C21415388   1.540   1.239   2.202  0.3169 -0.7416 -0.4047
   28MOL   C21515389   1.416   1.262   2.267 -0.4051  0.3413 -0.1961
   28MOL   H21615390   1.391   0.977   2.435 -0.8714 -1.5022 -0.5715
   28MOL   H21715391   1.566   0.814   2.351 -0.3202 -0.5713 -0.4357
   28MOL   H21815392   1.769   0.764   2.217  0.0522  0.1724 -0.3473
   28MOL   H21915393   2.125   0.976   1.961  0.6310  1.7306  0.6078
   28MOL   H22015394   2.090   1.122   1.873 -1.9387  1.6319  1.0637
   28MOL   H22115395   2.137   0.927   1.724 -0.1154  0.8478  0.1140
   28MOL   H22215396   1.998   0.849   1.798 -0.8126  0.2412  2.4110
   28MOL   H22315397   1.760   1.177   2.084  0.1462 -0.5305  0.6575
   28MOL   H22415398   1.583   1.322   2.147 -3.2796  0.8678 -0.9054
   28MOL   H22515399   1.362   1.354   2.251 -2.1291 -0.4902  0.7210
   28MOL   O22615400   2.094   1.165   1.622  1.1064 -0.3658  0.0832
   28MOL   C22715401   1.990   1.105   1.603  0.2894  0.5513  0.1820
   28MOL   O22815402   1.946   1.002   1.675  0.3768  0.5738  0.7246
   28MOL   C22915403   1.883   1.157   1.516  0.0296  0.9008 -0.4822
   28MOL   C23015404   1.896   1.288   1.472  0.0799 -0.0469  0.4781
   28MOL   C23115405   1.792   1.358   1.405 -0.8703  0.3749 -0.4495
   28MOL   C23215406   1.803   1.494   1.368 -0.6869 -0.2636  0.2260
   28MOL   C23315407   1.696   1.563   1.311 -0.2511  0.5953  0.5511
   28MOL   C23415408   1.572   1.492   1.294 -0.5242 -0.5809 -0.5647
   28MOL   C23515409   1.446   1.563   1.262  0.5038 -0.2053 -0.6111
   28MOL   O23615410   1.421   1.667   1.350  0.6266 -0.1383 -0.5924
   28MOL   C23715411   1.318   1.752   1.311 -0.7724 -0.7329 -0.1485
   28MOL   C23815412   1.377   1.869   1.234 -0.6841 -0.1003  0.6633
   28MOL   O23915413   1.356   1.515   1.198 -0.3062  0.6627  0.5603
   28MOL   C24015414   1.562   1.356   1.334 -0.2750  0.1828 -0.6141
   28MOL   C24115415   1.673   1.290   1.388  0.6031  0.0206  0.2465
   28MOL   C24215416   1.658   1.158   1.431 -0.1484  0.4199  0.4098
   28MOL   C24315417   1.763   1.086   1.491 -0.2636 -0.3899  0.1874
   28MOL   H24415418   1.987   1.346   1.479 -0.5412  1.2839 -1.7814
   28MOL   H24515419   1.896   1.547   1.377 -0.9848  0.1785  0.7437
   28MOL   H24615420   1.704   1.665   1.276 -0.4536 -0.2046 -1.9297
   28MOL   H24715421   1.275   1.788   1.405  0.6112  1.9324 -0.4860
   28MOL   H24815422   1.233   1.699   1.267 -0.2151 -0.6974 -1.2786
   28MOL   H24915423   1.439   1.830   1.153 -0.3474 -0.4216  1.0678
   28MOL   H25015424   1.307   1.921   1.170 -1.3966 -1.0886  0.6284
   28MOL   H25115425   1.476   1.293   1.319 -0.2629 -0.6873  2.4921
   28MOL   H25215426   1.561   1.113   1.414  0.0709  0.1412 -0.1161
   28MOL   H25315427   1.760   0.982   1.520 -1.0667 -0.0201  1.4426
   28MOL   O25415428   1.309   2.034   1.436  0.7600  0.1652  0.1927
   28MOL   C25515429   1.424   2.038   1.395  0.4787  0.3195 -0.5401
   28MOL   O25615430   1.464   1.963   1.298  0.5223 -0.1163  0.1169
   28MOL   C25715431   1.534   2.124   1.452  0.1845 -0.2444 -0.1068
   28MOL   C25815432   1.493   2.215   1.542 -0.5588  0.9898  0.4838
   28MOL   C25915433   1.591   2.299   1.603  0.4142  0.7082 -0.1072
   28MOL   C26015434   1.546   2.400   1.688  0.0634  0.5984 -0.3273
   28MOL   C26115435   1.643   2.465   1.768 -0.2962 -0.3743 -0.3805
   28MOL   C26215436   1.780   2.445   1.741 -0.6185 -0.6076  0.3278
   28MOL   C26315437   1.883   2.513   1.816 -0.1689  0.0969  0.1989
   28MOL   O26415438   1.824   2.623   1.878 -0.5379 -0.3532 -0.3092
   28MOL   C26515439   1.915   2.707   1.952  0.0722  0.3087 -0.6708
   28MOL   C26615440   1.991   2.802   1.857  0.5313  0.0508 -0.0162
   28MOL   O26715441   2.005   2.493   1.804 -0.0011 -0.1690 -0.0416
   28MOL   C26815442   1.826   2.359   1.645  0.4279 -0.1721  0.8481
   28MOL   C26915443   1.730   2.280   1.575  0.3532 -0.7411  0.5350
   28MOL   C27015444   1.764   2.193   1.473 -0.7376  0.2733 -0.5261
   28MOL   C27115445   1.668   2.110   1.420  0.2588 -0.0113 -0.1653
   28MOL   H27215446   1.388   2.231   1.562 -0.8231  2.2168 -1.7483
   28MOL   H27315447   1.439   2.405   1.700 -0.4623 -1.1268 -3.6852
   28MOL   H27415448   1.607   2.537   1.840  0.7877 -1.4940  1.3145
   28MOL   H27515449   1.988   2.645   2.004 -2.2905 -0.8989  1.3311
   28MOL   H27615450   1.860   2.767   2.024  0.8191  1.2093 -0.8463
   28MOL   H27715451   1.942   2.807   1.760 -0.9524 -0.2294  0.7062
   28MOL   H27815452   1.987   2.907   1.885  2.1776 -0.1305  0.9969
   28MOL   H27915453   1.933   2.341   1.638  0.8585  1.5800  2.7272
   28MOL   H28015454   1.867   2.183   1.442 -1.2533 -1.5779 -1.6976
   28MOL   H28115455   1.698   2.034   1.349 -1.2498 -0.6364 -0.1454
   28MOL   O28215456   2.186   2.900   2.027 -0.3307 -0.4351  0.0355
   28MOL   C28315457   2.214   2.815   1.941 -0.2374 -0.8685  0.1798
   28MOL   O28415458   2.131   2.770   1.851 -0.1543  0.4573 -0.2655
   28MOL   C28515459   2.357   2.766   1.925  1.0087  0.3695 -0.4291
   28MOL   C28615460   2.455   2.823   2.003  0.0623 -0.4498 -0.5986
   28MOL   C28715461   2.583   2.776   2.008  0.0582 -0.0739 -0.1172
   28MOL   C28815462   2.681   2.838   2.084  0.3515  0.2739  1.0961
   28MOL   C28915463   2.809   2.778   2.097 -1.1654 -1.3277 -0.0359
   28MOL   C29015464   2.840   2.664   2.016  0.3274 -0.2439 -0.4094
   28MOL   C29115465   2.977   2.599   2.017  0.6252 -1.4366 -0.5871
   28MOL   O29215466   2.984   2.487   1.956 -0.2298  0.4456  0.4011
   28MOL   C29315467   3.095   2.396   1.959 -0.1405  0.0957 -0.3060
   28MOL   C29415468   3.111   2.303   1.832  0.0736  0.3847 -0.2440
   28MOL   O29515469   3.076   2.659   2.065  0.4045  0.0316 -0.0212
   28MOL   C29615470   2.740   2.611   1.928  0.0631 -0.0264 -0.2057
   28MOL   C29715471   2.611   2.663   1.927 -0.6701  0.5186  0.3929
   28MOL   C29815472   2.516   2.605   1.842  0.2954  0.8460 -0.2185
   28MOL   C29915473   2.387   2.653   1.841  1.0454  0.1835  0.3170
   28MOL   H30015474   2.433   2.917   2.051 -0.6397 -0.1732 -1.4521
   28MOL   H30115475   2.657   2.920   2.150  1.1427  0.9724  0.5175
   28MOL   H30215476   2.882   2.815   2.167 -0.4440  0.7071 -1.8361
   28MOL   H30315477   3.083   2.331   2.046  0.0582 -1.7633 -1.6218
   28MOL   H30415478   3.188   2.447   1.984  0.7486 -1.4396 -0.4282
   28MOL   H30515479   3.178   2.222   1.859 -0.6494 -0.1715 -0.0858
   28MOL   H30615480   3.019   2.250   1.807 -0.1887 -0.0247  1.5292
   28MOL   H30715481   2.759   2.522   1.871  0.3814 -2.1129  3.0494
   28MOL   H30815482   2.543   2.516   1.787 -1.0856  1.7651 -2.4611
   28MOL   H30915483   2.308   2.599   1.790  0.6227 -0.7324  1.8996
   28MOL   O31015484   2.945   2.439   1.671 -0.0558  0.2194 -0.3435
   28MOL   C31115485   3.064   2.434   1.646 -0.0711 -0.5339 -0.1996
   28MOL   O31215486   3.156   2.371   1.717 -0.2017 -0.0855 -0.1555
   28MOL   C31315487   3.127   2.501   1.536 -1.0908 -0.2324  0.5359
   28MOL   C31415488   3.050   2.538   1.429  0.3042 -0.1972  1.1732
   28MOL   C31515489   3.116   2.599   1.320 -0.3287 -0.2007  0.2812
   28MOL   C31615490   3.041   2.618   1.206  0.0378  0.2063 -0.2309
   28MOL   C31715491   3.109   2.681   1.093 -0.1305  0.5651  0.0037
   28MOL   C31815492   3.249   2.718   1.096  0.6276  0.4056  0.2313
   28MOL   C31915493   3.315   2.794   0.983  0.1109  0.1170 -0.0013
   28MOL   O32015494   3.224   2.861   0.919  0.2233  0.6727 -0.0528
   28MOL   C32115495   3.265   2.920   0.799  0.0526  0.1894 -0.3015
   28MOL   C32215496   3.250   2.817   0.688  0.6137 -0.0023  0.1960
   28MOL   O32315497   3.435   2.783   0.964 -0.5878  0.0537 -0.2710
   28MOL   C32415498   3.317   2.699   1.213 -0.0753 -0.9692 -0.3777
   28MOL   C32515499   3.251   2.644   1.325  0.3800  0.1842 -0.8738
   28MOL   C32615500   3.321   2.614   1.440  0.9639 -0.8628 -0.8877
   28MOL   C32715501   3.263   2.530   1.538 -0.2417 -0.5198 -0.3537
   28MOL   H32815502   2.943   2.526   1.426  0.0640  2.0676 -2.4782
   28MOL   H32915503   2.938   2.583   1.202  0.8274 -2.2848  0.1607
   28MOL   H33015504   3.049   2.683   1.003  1.2005  0.2778 -0.9044
   28MOL   H33115505   3.366   2.961   0.797  0.3204 -0.4573  0.1019
   28MOL   H33215506   3.198   3.003   0.778  0.6136  0.7636  0.1893
   28MOL   H33315507   3.166   2.750   0.706 -0.0668  0.9954  0.7611
   28MOL   H33415508   3.204   2.871   0.605 -0.3646 -0.1231  0.6537
   28MOL   H33515509   3.422   2.720   1.216  0.2519 -2.5102 -0.5673
   28MOL   H33615510   3.423   2.649   1.447  0.7010 -0.2374 -0.0746
   28MOL   H33715511   3.319   2.510   1.628 -0.1176 -2.5599 -0.8594
   28MOL   O33815512   3.453   2.939   0.561 -0.5453 -0.9183 -0.2755
   28MOL   C33915513   3.470   2.819   0.593 -0.3036 -0.7370  0.4260
   28MOL   O34015514   3.369   2.748   0.653 -0.0086 -0.9775 -0.2439
   28MOL   C34115515   3.582   2.730   0.550 -0.0830  0.9373  0.0436
   28MOL   C34215516   3.600   2.598   0.598 -0.0706  0.4276 -1.0274
   28MOL   C34315517   3.731   2.543   0.592  0.5351  0.5068 -0.1994
   28MOL   C34415518   3.748   2.419   0.656  0.0581 -0.0687 -0.3188
   28MOL   C34515519   3.871   2.363   0.645  0.1852  0.1975 -0.7486
   28MOL   C34615520   3.978   2.422   0.570 -0.3495  0.4626  0.4397
   28MOL   C34715521   4.110   2.356   0.579  0.0880  0.3302  0.7029
   28MOL   O34815522   4.123   2.303   0.705 -0.1028  0.3587 -0.4406
   28MOL   C34915523   4.245   2.302   0.764 -0.2546 -0.3445 -0.1891
   28MOL   C35015524   4.232   2.249   0.909 -0.0646  0.0168  0.1956
   28MOL   O35115525   4.198   2.375   0.494 -0.2557 -0.1422  0.2676
   28MOL   C35215526   3.960   2.544   0.505  0.0984  0.9260 -0.5385
   28MOL   C35315527   3.837   2.602   0.517 -0.2000 -0.0878  0.1910
   28MOL   C35415528   3.818   2.732   0.472 -0.5997 -0.3093 -0.0034
   28MOL   C35515529   3.691   2.794   0.487 -0.0500 -0.3711 -0.3566
   28MOL   H35615530   3.520   2.546   0.648 -0.0991  1.6812  0.2354
   28MOL   H35715531   3.670   2.377   0.717  0.4086  1.8602  1.5297
   28MOL   H35815532   3.890   2.271   0.698 -1.9431  0.2510  0.1687
   28MOL   H35915533   4.281   2.405   0.765 -0.0227 -0.4343  1.1149
   28MOL   H36015534   4.305   2.235   0.703 -1.0185 -2.5164  1.4084
   28MOL   H36115535   4.296   2.307   0.975  1.1410 -0.7236 -0.3120
   28MOL   H36215536   4.133   2.261   0.954  0.0987 -2.0110  1.1854
   28MOL   H36315537   4.042   2.593   0.455  2.6598 -0.3962  2.1566
   28MOL   H36415538   3.894   2.788   0.420 -0.5167  0.4975  0.9836
   28MOL   H36515539   3.678   2.895   0.451  0.8604  0.9967  2.9385
   28MOL   O36615540   4.300   2.098   1.125 -0.7843  0.6650 -0.1018
   28MOL   C36715541   4.317   2.049   1.015 -0.0348 -0.6142 -0.8315
   28MOL   O36815542   4.281   2.114   0.908 -0.1793  0.2347  0.5819
   28MOL   C36915543   4.365   1.907   0.987  0.5670 -0.9792  0.7199
   28MOL   C37015544   4.387   1.857   0.854 -0.9428 -0.4907  0.3022
   28MOL   C37115545   4.473   1.745   0.828  0.1596 -0.4956  0.6632
   28MOL   C37215546   4.517   1.714   0.696  0.5264  0.2298 -0.1698
   28MOL   C37315547   4.593   1.597   0.673 -0.1829  0.5087 -0.0766
   28MOL   C37415548   4.632   1.519   0.779  0.5183 -0.1905 -0.6454
   28MOL   C37515549   4.717   1.397   0.757 -0.0754 -0.3288 -0.5947
   28MOL   O37615550   4.779   1.397   0.637  0.0026 -0.6003 -0.6527
   28MOL   C37715551   4.874   1.290   0.608 -0.2945 -0.1471  0.5389
   28MOL   C37815552   4.946   1.321   0.473  0.7969 -0.4465  0.2990
   28MOL   O37915553   4.730   1.309   0.840 -0.6263 -0.2885 -0.1456
   28MOL   C38015554   4.600   1.558   0.911 -0.0739 -0.7072 -0.3235
   28MOL   C38115555   4.514   1.669   0.940  0.3116  0.1577  0.1466
   28MOL   C38215556   4.475   1.704   1.073  0.4491 -0.1814 -0.4384
   28MOL   C38315557   4.398   1.821   1.093  0.0136  0.1677  0.5497
   28MOL   H38415558   4.357   1.921   0.772 -0.4836 -0.6048  0.0381
   28MOL   H38515559   4.483   1.766   0.608  0.7628  0.0857 -0.3451
   28MOL   H38615560   4.624   1.580   0.571  1.3416  1.2659  0.2434
   28MOL   H38715561   4.829   1.191   0.599  1.2179 -0.8948  1.1773
   28MOL   H38815562   4.940   1.297   0.695  1.0715  0.0566 -0.5022
   28MOL   H38915563   4.957   1.428   0.456 -0.9160 -0.4379 -0.9174
   28MOL   H39015564   5.041   1.271   0.453  0.9449  0.3914 -1.2202
   28MOL   H39115565   4.633   1.488   0.987  0.4969 -0.1593 -0.0716
   28MOL   H39215566   4.507   1.651   1.161  0.7875  1.2126  0.2987
   28MOL   H39315567   4.370   1.839   1.195  0.5081  0.3886  0.6484
   28MOL   O39415568   4.938   1.092   0.344  0.0508 -0.2363  1.3531
   28MOL   C39515569   4.860   1.180   0.308 -0.1274  0.4823  0.4050
   28MOL   O39615570   4.854   1.297   0.362 -0.5487 -0.6453 -0.1468
   28MOL   C39715571   4.751   1.166   0.201 -0.0732  0.3315  0.6028
   28MOL   C39815572   4.696   1.282   0.142 -0.6517 -0.5690  0.2659
   28MOL   C39915573   4.600   1.270   0.038 -0.4071 -0.9612 -0.1158
   28MOL   C40015574   4.549   1.382   8.231  0.2359  0.4266  0.3940
   28MOL   C40115575   4.451   1.361   8.130  0.9352  0.1744 -0.3664
   28MOL   C40215576   4.419   1.235   8.073  0.2316  0.8112 -0.0779
   28MOL   C40315577   4.331   1.228   7.955 -0.5539 -0.1636  0.4030
   28MOL   O40415578   4.295   1.107   7.927  0.3913  0.2510 -0.0848
   28MOL   C40515579   4.226   1.084   7.806 -0.3071 -0.1359 -0.7659
   28MOL   C40615580   4.325   1.047   7.705 -0.1907 -0.0352  0.4361
   28MOL   O40715581   4.302   1.326   7.879  0.2277  0.1110 -0.1010
   28MOL   C40815582   4.469   1.124   8.143  0.1863  0.5676 -0.3297
   28MOL   C40915583   4.556   1.143   8.248  0.2879 -0.2756 -0.2048
   28MOL   C41015584   4.616   1.028   0.060 -0.0363 -0.6006 -0.1043
   28MOL   C41115585   4.717   1.037   0.160 -0.2426 -0.1309 -0.5222
   28MOL   H41215586   4.721   1.381   0.176 -0.0334 -0.4789 -0.4218
   28MOL   H41315587   4.600   1.472   0.014 -0.2877  0.2763  1.6610
   28MOL   H41415588   4.411   1.450   8.084  0.2710  0.2614  0.3767
   28MOL   H41515589   4.171   1.169   7.766 -0.6448  1.5208  2.9882
   28MOL   H41615590   4.150   1.006   7.811 -1.4030  0.8335 -1.8688
   28MOL   H41715591   4.289   1.075   7.606  0.2469 -2.3316 -0.4116
   28MOL   H41815592   4.416   1.104   7.725  1.5372 -1.6937 -2.3981
   28MOL   H41915593   4.450   1.022   8.113  3.6288  0.1280 -1.3138
   28MOL   H42015594   4.584   0.930   0.027  0.4558 -1.0618  0.7605
   28MOL   H42115595   4.752   0.945   0.205 -0.5157  0.5980  1.1933
   28MOL   O42215596   4.544   0.930   7.842  0.4796  0.0887 -0.1657
   28MOL   C42315597   4.462   0.858   7.784 -0.5491  0.2376 -1.1124
   28MOL   O42415598   4.357   0.910   7.709 -0.2088  0.5525  0.0593
   28MOL   C42515599   4.456   0.709   7.797 -0.0167  0.0814 -0.3273
   28MOL   C42615600   4.426   0.636   7.680 -0.3473 -0.2689 -0.1827
   28MOL   C42715601   4.398   0.499   7.683  0.8134  0.3964 -0.3384
   28MOL   C42815602   4.361   0.431   7.567  0.5693  0.3983 -0.1411
   28MOL   C42915603   4.320   0.302   7.568 -0.7896  0.1035  0.2117
   28MOL   C43015604   4.320   0.234   7.697 -0.1814  0.3358  0.0546
   28MOL   C43115605   4.264   0.097   7.701  0.5154  0.5322  0.9058
   28MOL   O43215606   4.255   0.050   7.819 -0.4963 -0.5442  0.2124
   28MOL   C43315607   4.203   8.165   7.828  0.7555  0.9552 -0.0410
   28MOL   C43415608   4.327   8.073   7.821 -0.5304 -0.0849 -0.3915
   28MOL   O43515609   4.238   0.040   7.595  0.1310  0.5578  0.1471
   28MOL   C43615610   4.361   0.300   7.816  0.5713  0.4826 -0.2578
   28MOL   C43715611   4.395   0.434   7.807  0.1285 -0.0170  0.3210
   28MOL   C43815612   4.434   0.498   7.921 -0.3915  0.1174  0.0049
   28MOL   C43915613   4.467   0.633   7.914  0.4623 -0.4713 -0.5811
   28MOL   H44015614   4.429   0.689   7.586 -0.0775 -0.6135 -0.3705
   28MOL   H44115615   4.356   0.484   7.472 -0.9144  1.4567  0.5092
   28MOL   H44215616   4.290   0.252   7.477 -1.3245  1.2111 -0.2351
   28MOL   H44315617   4.134   8.139   7.747  1.5257  2.0170 -1.0565
   28MOL   H44415618   4.152   8.155   7.924  0.7437 -0.6427 -0.1996
   28MOL   H44515619   4.399   8.122   7.756 -0.6545  1.9492  0.9696
   28MOL   H44615620   4.365   8.059   7.922 -0.1689 -1.8658 -0.7558
   28MOL   H44715621   4.364   0.240   7.905 -1.2326  1.1848  0.2976
   28MOL   H44815622   4.436   0.459   8.022  0.1019 -0.0540 -0.0681
   28MOL   H44915623   4.504   0.681   8.003  1.7816 -0.2533 -1.2437
   28MOL   O45015624   4.380   7.982   7.569 -0.5478 -0.2378 -0.5427
   28MOL   C45115625   4.314   7.909   7.647  0.5491 -0.6196  0.3187
   28MOL   O45215626   4.281   7.950   7.769 -0.5599 -0.0680  0.8395
   28MOL   C45315627   4.256   7.771   7.611  0.8038 -0.3072  0.4463
   28MOL   C45415628   4.255   7.723   7.477 -0.3237  0.2286  0.0385
   28MOL   C45515629   4.199   7.595   7.452 -0.3691 -0.0414  0.1433
   28MOL   C45615630   4.188   7.556   7.319  0.0603  0.3945  0.1854
   28MOL   C45715631   4.127   7.436   7.283 -0.0605 -0.0881  0.0486
   28MOL   C45815632   4.064   7.362   7.380 -0.8237  0.1277  0.1549
   28MOL   C45915633   3.981   7.250   7.335  0.2462 -0.1063  0.1071
   28MOL   O46015634   3.870   7.229   7.412 -0.9401  0.4173  0.5021
   28MOL   C46115635   3.782   7.119   7.380 -0.6941  0.0441  0.3040
   28MOL   C46215636   3.705   7.135   7.244 -0.2076 -0.0418  0.3422
   28MOL   O46315637   4.004   7.192   7.225  0.0154  0.3207  0.1512
   28MOL   C46415638   4.070   7.402   7.517  0.0509  1.2275  0.3753
   28MOL   C46515639   4.140   7.518   7.549 -0.9924 -0.5130 -0.6866
   28MOL   C46615640   4.146   7.564   7.682  0.7018  0.5397  0.4680
   28MOL   C46715641   4.206   7.687   7.711  0.0128  0.5339  0.7288
   28MOL   H46815642   4.285   7.780   7.391 -1.5531  0.8167 -0.0163
   28MOL   H46915643   4.229   7.616   7.239 -0.6710 -0.2219 -0.6669
   28MOL   H47015644   4.122   7.394   7.184 -1.5427 -0.1693  0.1532
   28MOL   H47115645   3.706   7.099   7.456  0.0389  2.0564  1.6159
   28MOL   H47215646   3.839   7.027   7.373 -2.1869 -0.8814  0.1921
   28MOL   H47315647   3.777   7.147   7.163  0.1769 -0.0374  0.6818
   28MOL   H47415648   3.661   7.038   7.219  0.9970 -0.6419  0.5114
   28MOL   H47515649   4.020   7.351   7.598  1.0303  2.5622  1.8513
   28MOL   H47615650   4.106   7.505   7.763 -1.0018 -0.6093 -1.1573
   28MOL   H47715651   4.216   7.714   7.815  2.4351 -0.1664  0.6985
   28MOL   O47815652   3.474   7.130   7.379  0.7942 -0.1655 -0.3395
   28MOL   C47915653   3.495   7.224   7.306 -0.2241  0.1354  0.2489
   28MOL   O48015654   3.609   7.242   7.239  0.4262 -0.0619  0.0845
   28MOL   C48115655   3.388   7.336   7.285  0.2585  0.2591  0.2285
   28MOL   C48215656   3.424   7.454   7.220 -0.0789 -0.0641  0.1993
   28MOL   C48315657   3.325   7.556   7.203 -0.4577  0.3913  0.2990
   28MOL   C48415658   3.370   7.673   7.142 -0.0760 -0.2865 -0.5253
   28MOL   C48515659   3.274   7.767   7.105 -0.4484 -0.4007  0.1250
   28MOL   C48615660   3.135   7.748   7.130 -0.3173 -0.3464 -0.7060
   28MOL   C48715661   3.038   7.855   7.083 -0.0289  0.1610  0.4770
   28MOL   O48815662   2.913   7.801   7.059  0.1366  0.1441 -0.5407
   28MOL   C48915663   2.808   7.878   7.004 -0.2283 -0.0065 -0.1115
   28MOL   C49015664   2.704   7.887   7.112  0.4857  0.2371 -0.3093
   28MOL   O49115665   3.080   7.968   7.058 -0.6749  0.4476  0.0112
   28MOL   C49215666   3.097   7.624   7.188  0.0180  0.1509  0.4233
   28MOL   C49315667   3.190   7.527   7.239 -0.1704  0.5445 -0.4043
   28MOL   C49415668   3.156   7.405   7.304  0.3153  0.2517 -0.1050
   28MOL   C49515669   3.255   7.309   7.320  0.4675 -0.8055  0.1246
   28MOL   H49615670   3.527   7.465   7.189 -0.2458 -2.5575 -1.3254
   28MOL   H49715671   3.475   7.673   7.118  0.0567  0.6051  0.0393
   28MOL   H49815672   3.311   7.858   7.061  1.0642 -1.6181 -1.1417
   28MOL   H49915673   2.774   7.822   6.917  1.2354 -0.8627 -0.1503
   28MOL   H50015674   2.849   7.974   6.975  1.4567 -0.8570 -0.6131
   28MOL   H50115675   2.741   7.957   7.187 -1.1722  2.4556 -1.5037
   28MOL   H50215676   2.614   7.932   7.070  1.1566  1.2471 -0.6660
   28MOL   H50315677   2.992   7.604   7.201  0.1568 -1.6830 -1.1587
   28MOL   H50415678   3.052   7.382   7.316  0.4610 -0.1171  0.5148
   28MOL   H50515679   3.228   7.216   7.368 -0.9874 -0.4079  0.1121
   28MOL   O50615680   2.690   7.826   7.379 -0.2722 -0.1493 -0.3605
   28MOL   C50715681   2.685   7.732   7.297  0.4372 -0.5102  0.8905
   28MOL   O50815682   2.670   7.754   7.161  0.1949  0.4953 -0.1087
   28MOL   C50915683   2.702   7.593   7.328 -0.0384 -0.1529 -0.0290
   28MOL   C51015684   2.779   7.558   7.440  0.4953 -0.4564  0.0796
   28MOL   C51115685   2.828   7.426   7.454 -0.5860 -1.2827 -0.3529
   28MOL   C51215686   2.914   7.397   7.563  0.1156  0.1554 -0.2337
   28MOL   C51315687   2.949   7.262   7.582 -0.6015  0.2501 -0.3598
   28MOL   C51415688   2.911   7.159   7.494 -0.8304 -0.3930 -0.4864
   28MOL   C51515689   2.958   7.017   7.517 -0.1185 -0.1446 -0.2998
   28MOL   O51615690   2.881   6.937   7.453 -0.3535 -0.1197 -0.5383
   28MOL   C51715691   2.921   6.815   7.398 -0.3345 -0.4147 -0.2396
   28MOL   C51815692   2.882   6.814   7.255  0.3233 -0.5852  0.1815
   28MOL   O51915693   3.058   6.979   7.587 -0.0068  0.6893 -0.4112
   28MOL   C52015694   2.827   7.190   7.384 -0.0009 -0.6845 -0.1933
   28MOL   C52115695   2.792   7.328   7.361  0.1053 -0.4253 -0.5518
   28MOL   C52215696   2.708   7.360   7.255 -0.0272 -0.9653 -0.5283
   28MOL   C52315697   2.660   7.494   7.238 -0.6630  0.0739 -0.2403
   28MOL   H52415698   2.820   7.629   7.510 -1.5501  0.7634  0.0733
   28MOL   H52515699   2.943   7.458   7.647  2.2452 -1.3884  0.2141
   28MOL   H52615700   3.019   7.249   7.663 -0.9714  0.6262  0.0268
   28MOL   H52715701   2.855   6.738   7.438 -4.2841  2.8131 -0.2262
   28MOL   H52815702   3.023   6.782   7.416  0.2095 -1.7206 -4.9566
   28MOL   H52915703   2.918   6.718   7.218 -0.0371  0.2580 -2.4932
   28MOL   H53015704   2.774   6.801   7.246  0.2199  0.2857  0.1288
   28MOL   H53115705   2.779   7.121   7.316  0.2527 -0.2164 -0.8509
   28MOL   H53215706   2.676   7.283   7.187 -2.1161  1.4737 -2.3921
   28MOL   H53315707   2.586   7.519   7.163 -0.8727 -2.7736 -1.0352
   28MOL   O53415708   3.140   6.873   7.189  0.3461 -0.4679  0.8290
   28MOL   C53515709   3.051   6.948   7.149  0.0500  0.4280  0.0065
   28MOL   O53615710   2.924   6.924   7.177  0.1822  0.0552 -0.6781
   28MOL   C53715711   3.066   7.060   7.058 -1.0393  0.1467 -0.4378
   28MOL   C53815712   2.958   7.140   7.020 -0.2290  0.4214 -0.3131
   28MOL   C53915713   2.975   7.260   6.948  0.0569 -0.6101  0.0655
   28MOL   C54015714   2.860   7.330   6.916 -0.3719  0.0095  0.6453
   28MOL   C54115715   2.872   7.460   6.861  0.2825  0.2839  0.0498
   28MOL   C54215716   3.002   7.513   6.839  0.4588  0.0683  0.0606
   28MOL   C54315717   3.021   7.649   6.775 -0.4498  0.0285 -0.2302
   28MOL   O54415718   3.148   7.697   6.769 -0.3735  0.0974 -0.6146
   28MOL   C54515719   3.172   7.822   6.703 -0.7456 -0.6811 -0.3443
   28MOL   C54615720   3.328   7.834   6.693  0.5215  0.6730 -0.5125
   28MOL   O54715721   2.931   7.720   6.728  0.5012 -0.0056  0.1573
   28MOL   C54815722   3.115   7.436   6.867 -0.3492  0.2058 -0.0786
   28MOL   C54915723   3.104   7.309   6.925  0.2525  0.1895 -0.0157
   28MOL   C55015724   3.214   7.227   6.954 -0.6991  0.0416 -0.7672
   28MOL   C55115725   3.197   7.109   7.027  0.7359 -0.0574 -0.4142
   28MOL   H55215726   2.857   7.111   7.047  0.6066 -1.0916  1.2376
   28MOL   H55315727   2.762   7.290   6.937 -0.7755  0.6026 -0.0695
   28MOL   H55415728   2.788   7.519   6.827  0.4162  0.7281  0.4988
   28MOL   H55515729   3.121   7.896   6.766 -2.0093 -2.9628  1.3817
   28MOL   H55615730   3.118   7.823   6.608  0.7693 -1.8567 -1.2309
   28MOL   H55715731   3.380   7.754   6.640 -0.4733 -1.0316  1.0274
   28MOL   H55815732   3.370   7.840   6.793 -1.8362 -2.9441  0.8004
   28MOL   H55915733   3.214   7.476   6.848  1.2865 -3.3556  0.5216
   28MOL   H56015734   3.310   7.272   6.932  0.2872  0.1904  3.3315
   28MOL   H56115735   3.277   7.047   7.065  0.0231 -0.3972  0.5578
   28MOL   H56215736   3.365   7.926   6.649  2.4391 -0.0112 -0.3597
   29MOL     O115737   6.990   6.696   1.954  0.0246  0.2983  0.5230
   29MOL     C215738   6.992   6.578   1.909  0.1175  0.6074 -0.1579
   29MOL     O315739   7.111   6.523   1.876 -0.1077 -0.2062  0.0572
   29MOL     C415740   6.871   6.487   1.896  0.1436  0.1284  0.7776
   29MOL     C515741   6.880   6.371   1.819  0.4464 -0.1900 -0.3076
   29MOL     C615742   6.766   6.291   1.797  1.0200  0.0623 -0.1238
   29MOL     C715743   6.771   6.173   1.715  0.2695 -0.3187 -0.0776
   29MOL     C815744   6.662   6.092   1.702 -0.0263  0.2933 -0.6727
   29MOL     C915745   6.540   6.121   1.761 -0.2958  0.5402  0.8156
   29MOL    C1015746   6.422   6.031   1.758  0.3933 -0.3251 -0.4838
   29MOL    O1115747   6.452   5.916   1.713  0.8606 -0.0477  0.2561
   29MOL    C1215748   6.372   5.802   1.723  0.0389  0.0489 -0.0331
   29MOL    C1315749   6.236   5.810   1.651  0.3567 -0.3399 -0.5439
   29MOL    O1415750   6.305   6.068   1.785  0.4232  0.1130 -0.1285
   29MOL    C1515751   6.530   6.241   1.837 -0.2378  0.0738 -0.1232
   29MOL    C1615752   6.641   6.323   1.855  0.3788  0.1353 -0.0171
   29MOL    C1715753   6.632   6.446   1.923  0.4876 -0.2589  1.3574
   29MOL    C1815754   6.745   6.526   1.946 -0.4803 -0.2664  0.0871
   29MOL    H1915755   6.974   6.351   1.769  0.2542 -0.0953 -0.7105
   29MOL    H2015756   6.865   6.153   1.667 -0.4788 -0.5086 -1.4822
   29MOL    H2115757   6.669   6.014   1.628  2.6410  1.4145 -1.6620
   29MOL    H2215758   6.421   5.708   1.700  1.1959  0.7492 -0.4617
   29MOL    H2315759   6.361   5.793   1.832 -0.3389  0.8118 -0.0028
   29MOL    H2415760   6.159   5.753   1.703 -1.2660  1.4674 -0.8834
   29MOL    H2515761   6.192   5.910   1.649  0.7944 -0.0823  1.3251
   29MOL    H2615762   6.437   6.257   1.889 -0.3134  0.8050 -0.4703
   29MOL    H2715763   6.539   6.478   1.967 -0.1180  0.7059 -0.5686
   29MOL    H2815764   6.737   6.615   2.008 -0.2845  0.6622 -1.2075
   29MOL    H2915765   7.185   6.577   1.900 -0.6143  0.3343  0.4016
   29MOL    O3015766   6.030   5.747   1.466  0.4541 -0.3882 -0.3592
   29MOL    C3115767   6.147   5.734   1.436 -0.2384  0.2508  0.4164
   29MOL    O3215768   6.255   5.758   1.523  0.3966 -0.4142  0.6741
   29MOL    C3315769   6.182   5.688   1.298  0.9207 -0.3956  0.0800
   29MOL    C3415770   6.311   5.625   1.274  0.0651  0.1353  0.2805
   29MOL    C3515771   6.341   5.570   1.144 -0.3558  0.9452  0.0526
   29MOL    C3615772   6.464   5.501   1.121 -0.2889 -0.2289 -0.0133
   29MOL    C3715773   6.501   5.461   0.992 -0.2051  0.0930  0.4655
   29MOL    C3815774   6.414   5.484   0.884  0.0555  0.1401 -0.5749
   29MOL    C3915775   6.453   5.434   0.753  0.0228  0.4462  0.0678
   29MOL    O4015776   6.353   5.405   0.668  0.3796 -0.0917  0.1404
   29MOL    C4115777   6.381   5.353   0.538 -0.1155  0.6232  0.0017
   29MOL    C4215778   6.343   5.207   0.540  1.0530  0.7066 -0.2531
   29MOL    O4315779   6.569   5.403   0.727  0.1760 -0.3212 -0.5729
   29MOL    C4415780   6.278   5.544   0.903 -0.9059  0.5677  0.4480
   29MOL    C4515781   6.246   5.586   1.036  0.2892  0.2673 -0.1910
   29MOL    C4615782   6.120   5.644   1.067  0.0594 -0.4481  0.6510
   29MOL    C4715783   6.089   5.690   1.188 -0.3391  0.1556 -0.2613
   29MOL    H4815784   6.383   5.624   1.355 -3.3287  2.3017  3.4745
   29MOL    H4915785   6.533   5.487   1.202  1.4923  1.2837 -1.2245
   29MOL    H5015786   6.600   5.422   0.978 -0.7060 -1.4261  1.0978
   29MOL    H5115787   6.487   5.367   0.517 -0.1690  0.3381 -0.4766
   29MOL    H5215788   6.326   5.412   0.464 -0.0620  0.2024 -0.3805
   29MOL    H5315789   6.236   5.197   0.561  0.7828 -0.5078 -2.1623
   29MOL    H5415790   6.355   5.174   0.437  1.4978  1.1267 -0.3382
   29MOL    H5515791   6.205   5.558   0.825 -1.4259  1.6511  1.1160
   29MOL    H5615792   6.053   5.656   0.982  1.4402  0.8017 -0.2892
   29MOL    H5715793   5.998   5.745   1.209 -1.5450 -2.0737  0.4529
   29MOL    O5815794   6.315   4.945   0.593  0.4006  0.2370  0.4809
   29MOL    C5915795   6.408   5.010   0.646 -0.4138 -0.4279  0.3181
   29MOL    O6015796   6.424   5.136   0.634  0.0044  0.2819 -0.3583
   29MOL    C6115797   6.505   4.952   0.742  0.6652 -0.3656 -0.4356
   29MOL    C6215798   6.479   4.831   0.796  0.1856  0.0644  0.1457
   29MOL    C6315799   6.569   4.770   0.889 -0.4629 -0.4471 -0.1220
   29MOL    C6415800   6.548   4.648   0.956 -0.3716 -0.6025  0.4339
   29MOL    C6515801   6.639   4.597   1.051  0.2443  0.5724 -0.3909
   29MOL    C6615802   6.760   4.664   1.072  0.3394 -0.0370  0.5400
   29MOL    C6715803   6.872   4.601   1.148  0.8184  0.1093  0.6881
   29MOL    O6815804   6.825   4.504   1.232  0.0005  0.3746 -0.5033
   29MOL    C6915805   6.918   4.422   1.305 -0.1982 -0.5693  0.0481
   29MOL    C7015806   6.934   4.294   1.229  1.0349  0.4535 -0.1761
   29MOL    O7115807   6.995   4.625   1.127 -0.2701  0.7073  0.0925
   29MOL    C7215808   6.790   4.782   0.997 -0.0819  0.2886 -0.7811
   29MOL    C7315809   6.694   4.835   0.914 -0.2643 -0.3561 -0.2529
   29MOL    C7415810   6.733   4.958   0.848  0.2064  0.3194  0.4795
   29MOL    C7515811   6.628   5.016   0.769 -0.3435 -0.0193  0.2307
   29MOL    H7615812   6.384   4.787   0.769 -0.7527  1.1442  1.6234
   29MOL    H7715813   6.451   4.602   0.944 -0.7209  0.5465 -1.2108
   29MOL    H7815814   6.599   4.511   1.103  0.8665 -1.6510 -3.4497
   29MOL    H7915815   6.891   4.386   1.404 -1.5326  0.1313 -0.0427
   29MOL    H8015816   7.011   4.477   1.321 -1.1754  0.5968  1.9214
   29MOL    H8115817   6.966   4.211   1.292  4.2146  1.3813 -0.5242
   29MOL    H8215818   6.845   4.259   1.176 -0.0165  2.8185 -0.0342
   29MOL    H8315819   6.889   4.825   1.008 -0.3494  1.3435 -2.4718
   29MOL    H8415820   6.812   5.018   0.891  0.7163 -1.3003  1.8321
   29MOL    H8515821   6.657   5.110   0.723  0.5258  0.5912  1.9656
   29MOL    O8615822   6.988   4.135   1.015 -0.0632  0.6043 -0.1427
   29MOL    C8715823   7.044   4.242   1.023  0.1238 -0.2183 -0.2771
   29MOL    O8815824   7.027   4.325   1.132 -0.1414  0.0713  0.3922
   29MOL    C8915825   7.144   4.295   0.922 -0.1760 -0.5099 -0.1775
   29MOL    C9015826   7.151   4.230   0.796  0.7022 -0.3125 -0.1740
   29MOL    C9115827   7.235   4.275   0.690 -0.2859 -0.1217 -0.2037
   29MOL    C9215828   7.247   4.217   0.560  0.0902 -0.3405  0.2274
   29MOL    C9315829   7.318   4.272   0.454  0.4717  0.3271 -0.3816
   29MOL    C9415830   7.388   4.395   0.475 -0.5736  0.8603  0.1113
   29MOL    C9515831   7.475   4.455   0.375  0.3297 -0.6418 -0.4185
   29MOL    O9615832   7.462   4.410   0.248  0.1740 -0.5641  0.1170
   29MOL    C9715833   7.566   4.438   0.157 -0.5094 -0.3918  0.7762
   29MOL    C9815834   7.498   4.466   0.024 -0.0414 -0.5488 -0.1886
   29MOL    O9915835   7.565   4.535   0.407 -0.0303 -0.5252  0.3019
   29MOL   C10015836   7.376   4.460   0.599  0.3112 -0.7829  0.2470
   29MOL   C10115837   7.306   4.394   0.707 -0.3560  0.4758  0.0547
   29MOL   C10215838   7.297   4.464   0.829  0.1101  0.1295  0.5240
   29MOL   C10315839   7.231   4.405   0.943 -0.7802  0.0017  0.0833
   29MOL   H10415840   7.095   4.138   0.785 -0.0289  0.0338  0.6217
   29MOL   H10515841   7.184   4.132   0.540 -2.9830  1.7843  0.6459
   29MOL   H10615842   7.308   4.230   0.355  0.3779  0.0717 -0.2659
   29MOL   H10715843   7.639   4.357   0.144  0.3401  0.9689 -3.7512
   29MOL   H10815844   7.608   4.533   0.188 -1.8189 -0.3154  2.3654
   29MOL   H10915845   7.495   4.382   8.204 -2.5144  0.9160 -1.9185
   29MOL   H11015846   7.393   4.483   0.045 -0.1227  0.1301 -1.1122
   29MOL   H11115847   7.430   4.551   0.618  1.0416 -1.6155  2.3388
   29MOL   H11215848   7.352   4.555   0.845 -2.3302  1.6788  0.4258
   29MOL   H11315849   7.223   4.463   1.034 -1.4268 -3.1277  2.1034
   29MOL   O11415850   7.768   4.504   8.203  0.1510  0.4946 -0.1340
   29MOL   C11515851   7.684   4.588   8.179 -0.4335  0.0245  0.0360
   29MOL   O11615852   7.553   4.583   8.207 -0.6174 -0.4589 -0.2157
   29MOL   C11715853   7.714   4.717   8.109 -0.0620 -0.1978  0.6341
   29MOL   C11815854   7.616   4.816   8.095 -0.9924 -0.5174  0.5653
   29MOL   C11915855   7.644   4.945   8.044 -0.8772 -0.0042  0.0891
   29MOL   C12015856   7.553   5.050   8.046  0.6337 -0.5615  0.1723
   29MOL   C12115857   7.591   5.179   8.021  0.0331  0.0214  0.2347
   29MOL   C12215858   7.718   5.205   7.954  0.5373  0.1234 -0.7105
   29MOL   C12315859   7.748   5.345   7.911 -0.3202  0.0834 -0.5384
   29MOL   O12415860   7.860   5.355   7.835 -0.0356 -0.4255 -0.3408
   29MOL   C12515861   7.906   5.481   7.786  0.2046  0.3343  0.3090
   29MOL   C12615862   7.990   5.556   7.896  0.0818 -0.0980  0.2374
   29MOL   O12715863   7.669   5.440   7.930  0.4569  0.1963  0.6746
   29MOL   C12815864   7.809   5.096   7.940  0.2028 -0.7190 -0.0941
   29MOL   C12915865   7.774   4.967   7.985  0.1628  0.4954  0.2031
   29MOL   C13015866   7.872   4.862   7.987  0.5648  0.3905 -0.0508
   29MOL   C13115867   7.839   4.743   8.043  1.0705  0.6778 -0.5920
   29MOL   H13215868   7.522   4.810   8.149 -1.1787 -0.3893  0.2577
   29MOL   H13315869   7.460   5.037   8.101 -0.1366  2.4844 -0.3165
   29MOL   H13415870   7.520   5.259   8.033  0.0161 -0.1836  1.5854
   29MOL   H13515871   7.832   5.547   7.742  1.2179  0.0475 -1.8407
   29MOL   H13615872   7.963   5.460   7.695 -0.9268  1.1872 -0.6006
   29MOL   H13715873   8.007   5.655   7.853  0.3837 -0.1941  0.1415
   29MOL   H13815874   7.931   5.575   7.986 -0.5574  0.6798 -0.3281
   29MOL   H13915875   7.908   5.112   7.901 -0.9910  1.3663 -2.4436
   29MOL   H14015876   7.975   4.875   7.956  1.2291  0.1179  1.9977
   29MOL   H14115877   7.911   4.664   8.060  2.1395  1.9743  1.1334
   29MOL   O14215878   8.210   5.619   7.748  0.0843  0.0741  0.1540
   29MOL   C14315879   8.223   5.537   7.844  0.3269 -0.6820  0.2551
   29MOL   O14415880   8.111   5.494   7.920 -0.1714 -0.3900 -0.3378
   29MOL   C14515881   0.097   5.467   7.889  0.0509 -0.0503 -0.1955
   29MOL   C14615882   0.198   5.438   7.794  0.3013 -0.7119 -0.1674
   29MOL   C14715883   0.304   5.358   7.828  0.4689 -0.2517 -1.4263
   29MOL   C14815884   0.389   5.316   7.726  0.2028  0.3043 -0.1037
   29MOL   C14915885   0.497   5.236   7.761  1.0037  0.2993 -0.4664
   29MOL   C15015886   0.525   5.201   7.891  0.5014  0.1490 -0.1798
   29MOL   C15115887   0.652   5.127   7.917 -0.1232 -0.0123 -0.2360
   29MOL   O15215888   0.704   5.151   8.048  0.1013  0.4546  0.3232
   29MOL   C15315889   0.822   5.101   8.091 -0.7319 -0.4727 -0.0242
   29MOL   C15415890   0.935   5.189   8.047 -0.2083 -0.2633  0.4232
   29MOL   O15515891   0.713   5.056   7.833  0.3949 -0.1987  0.3485
   29MOL   C15615892   0.438   5.234   7.994  0.3400 -0.2689  0.2915
   29MOL   C15715893   0.323   5.316   7.964  0.2583  0.7019  0.5812
   29MOL   C15815894   0.226   5.346   8.056 -0.0000 -0.9800  0.7017
   29MOL   C15915895   0.116   5.420   8.020  0.6556  0.2726  0.1752
   29MOL   H16015896   0.173   5.468   7.693 -1.3464  0.2332  0.4925
   29MOL   H16115897   0.389   5.350   7.623  1.6375  1.6298  0.3034
   29MOL   H16215898   0.564   5.206   7.683  0.0863 -1.0098 -0.7613
   29MOL   H16315899   0.840   5.000   8.055 -1.7669 -0.3305 -0.9748
   29MOL   H16415900   0.810   5.090   8.198  0.3215  1.8595  0.3643
   29MOL   H16515901   0.907   5.293   8.028  1.5630  0.2316  0.4142
   29MOL   H16615902   1.004   5.226   8.123  2.2358 -0.0290 -1.8194
   29MOL   H16715903   0.459   5.213   8.098 -2.8235  1.0123  1.2545
   29MOL   H16815904   0.215   5.308   8.157 -0.0724 -1.7714  0.3990
   29MOL   H16915905   0.043   5.432   8.097 -0.4579  1.1375 -0.9958
   29MOL   O17015906   1.170   5.030   8.073 -0.0021  0.0554  0.1203
   29MOL   C17115907   1.113   5.051   7.962  0.1827 -0.5722  0.6462
   29MOL   O17215908   1.013   5.136   7.942  1.2453  0.4558  1.2258
   29MOL   C17315909   1.148   4.966   7.843 -0.3551 -0.1441 -0.2731
   29MOL   C17415910   1.051   4.935   7.741  0.1740 -0.2658  0.8943
   29MOL   C17515911   1.088   4.847   7.642  0.0155 -0.0107 -0.7112
   29MOL   C17615912   0.989   4.798   7.545 -0.3238 -0.3058  0.3430
   29MOL   C17715913   1.025   4.710   7.438 -0.2548 -0.1765  0.0709
   29MOL   C17815914   1.160   4.665   7.427  0.8647 -0.3797  0.2879
   29MOL   C17915915   1.202   4.601   7.304  0.2725 -1.1884 -0.5090
   29MOL   O18015916   1.122   4.637   7.200  0.3747 -0.2177  0.4719
   29MOL   C18115917   1.151   4.592   7.071  0.2812 -0.1850  0.2800
   29MOL   C18215918   1.040   4.489   7.032  0.5290  0.2463  0.0016
   29MOL   O18315919   1.306   4.532   7.299 -0.3213  0.0396  0.1187
   29MOL   C18415920   1.250   4.696   7.531 -0.4825 -0.0229 -0.3574
   29MOL   C18515921   1.211   4.785   7.636 -0.5851 -0.8146 -0.0283
   29MOL   C18615922   1.310   4.824   7.730 -0.2762  0.1537 -0.1016
   29MOL   C18715923   1.281   4.917   7.825 -0.4010  0.3592 -0.8952
   29MOL   H18815924   0.949   4.969   7.747  0.3804  0.4617  0.2082
   29MOL   H18915925   0.886   4.830   7.553 -0.9942 -2.5796  1.0823
   29MOL   H19015926   0.950   4.689   7.363  0.8117  1.2713 -1.4281
   29MOL   H19115927   1.246   4.539   7.060  0.1491 -0.2774 -0.4117
   29MOL   H19215928   1.167   4.680   7.009  1.2487 -0.0227  0.7515
   29MOL   H19315929   0.942   4.532   7.011  1.6850  2.8487 -0.2790
   29MOL   H19415930   1.062   4.445   6.935 -3.9136  1.9154 -1.9054
   29MOL   H19515931   1.349   4.653   7.523  0.0343  1.2239 -0.6305
   29MOL   H19615932   1.409   4.781   7.734  0.2683  1.0433 -3.0925
   29MOL   H19715933   1.360   4.946   7.892  1.2009  0.5198 -2.8291
   29MOL   O19815934   1.033   4.208   6.978 -0.4143 -0.0211  0.1579
   29MOL   C19915935   1.042   4.251   7.091  0.5850  0.5965  0.0707
   29MOL   O20015936   1.034   4.378   7.129 -0.4614  0.3128 -0.0970
   29MOL   C20115937   1.056   4.168   7.213 -0.1833  0.9393  0.0569
   29MOL   C20215938   1.042   4.029   7.195 -0.4435  0.4013  0.2809
   29MOL   C20315939   1.060   3.944   7.308 -0.3198 -0.0690 -0.0943
   29MOL   C20415940   1.037   3.806   7.305  0.0410 -0.4768  0.0089
   29MOL   C20515941   1.033   3.736   7.426 -0.0886  0.6187  0.5719
   29MOL   C20615942   1.076   3.791   7.545 -0.5648 -0.1155 -0.8386
   29MOL   C20715943   1.085   3.713   7.676  0.2541 -0.5928 -0.6132
   29MOL   O20815944   1.141   3.785   7.784  0.1097 -0.4157 -0.7005
   29MOL   C20915945   1.186   3.718   7.896 -0.0652  0.3797 -0.0962
   29MOL   C21015946   1.080   3.726   8.004  0.1946  1.1185  0.2405
   29MOL   O21115947   1.051   3.592   7.684 -0.4163  0.0435 -0.4150
   29MOL   C21215948   1.101   3.929   7.543 -0.1544 -0.5026 -0.4701
   29MOL   C21315949   1.089   4.004   7.434 -0.2039  0.0207 -0.1431
   29MOL   C21415950   1.115   4.142   7.443 -0.4707  0.0310 -0.6647
   29MOL   C21515951   1.103   4.220   7.329 -0.3163 -0.9718 -0.3177
   29MOL   H21615952   1.007   3.981   7.104 -0.7473 -2.0900  1.6689
   29MOL   H21715953   1.020   3.740   7.221  0.8453 -1.7695  0.8373
   29MOL   H21815954   1.007   3.631   7.426 -0.7294  0.7474  2.9897
   29MOL   H21915955   1.275   3.774   7.925  0.6023  0.5969 -2.4678
   29MOL   H22015956   1.217   3.616   7.876  1.0660  1.0856 -2.0736
   29MOL   H22115957   1.120   3.762   8.099 -1.0282 -1.2944  1.7287
   29MOL   H22215958   0.998   3.788   7.968 -0.3737  0.4686  0.4023
   29MOL   H22315959   1.122   3.978   7.638 -2.5513 -1.3019  0.5048
   29MOL   H22415960   1.145   4.187   7.536 -0.9151 -4.1379  1.5808
   29MOL   H22515961   1.123   4.326   7.339  0.0921 -1.2978  2.6573
   29MOL   O22615962   0.929   3.662   8.227  0.3470 -0.1633 -0.4037
   29MOL   C22715963   0.956   3.576   8.146  0.1993 -0.0130 -0.6500
   29MOL   O22815964   1.024   3.594   8.032 -0.3556 -0.0586 -0.2383
   29MOL   C22915965   0.878   3.451   8.149 -0.6118 -0.4759  0.7013
   29MOL   C23015966   0.910   3.338   8.070  0.1563 -0.1583 -0.0279
   29MOL   C23115967   0.830   3.219   8.074 -0.1095 -0.0264  0.1432
   29MOL   C23215968   0.859   3.106   7.993 -0.6580 -0.6651 -0.3462
   29MOL   C23315969   0.778   2.992   7.987  0.0448 -0.1305  0.0819
   29MOL   C23415970   0.666   2.985   8.072 -0.4249 -0.7737  0.3002
   29MOL   C23515971   0.575   2.875   8.063  0.1659 -0.4558 -0.1861
   29MOL   O23615972   0.492   2.876   8.177  0.4119 -0.2206  0.4994
   29MOL   C23715973   0.368   2.805   8.177  0.5528  0.9240 -0.0163
   29MOL   C23815974   0.297   2.828   0.062  0.3561  0.8233  0.4145
   29MOL   O23915975   0.562   2.796   7.967 -0.3020  0.3069  0.4109
   29MOL   C24015976   0.641   3.098   8.157  0.0128  0.3186  0.1298
   29MOL   C24115977   0.716   3.218   8.155 -0.6877  0.9945  0.2703
   29MOL   C24215978   0.688   3.324   8.239 -0.8114 -0.7880 -0.0911
   29MOL   C24315979   0.771   3.439   8.237  0.1014  0.2250 -0.0569
   29MOL   H24415980   0.987   3.344   7.995  1.0916 -0.5354  0.9052
   29MOL   H24515981   0.938   3.112   7.920 -1.0498  1.4574 -0.6221
   29MOL   H24615982   0.793   2.922   7.906 -1.6550  0.4403 -0.7416
   29MOL   H24715983   0.378   2.699   8.152 -0.4014  0.7990  0.1220
   29MOL   H24815984   0.304   2.848   8.101 -2.7946 -1.5141  1.3104
   29MOL   H24915985   0.308   2.759   0.145 -1.3244  1.6493  1.3647
   29MOL   H25015986   0.337   2.921   0.102  0.6346  1.3062 -0.9860
   29MOL   H25115987   0.555   3.101   8.223 -0.4957 -0.8451 -0.4616
   29MOL   H25215988   0.610   3.318   0.064 -0.9193 -1.3210 -0.2415
   29MOL   H25315989   0.736   3.522   0.048  0.9699  0.5736 -0.0181
   29MOL   O25415990   0.125   2.968   0.222  0.0562 -0.3715  0.4950
   29MOL   C25515991   0.087   2.911   0.122 -0.7398 -0.2032  0.1379
   29MOL   O25615992   0.163   2.850   0.034 -0.0982 -0.6669  0.0464
   29MOL   C25715993   8.192   2.894   0.083 -0.1300  1.4656  0.0488
   29MOL   C25815994   8.096   2.938   0.178  0.0077 -0.3341 -0.3932
   29MOL   C25915995   7.957   2.926   0.156  0.4231  0.6158  0.1731
   29MOL   C26015996   7.862   2.973   0.243  0.2598 -0.5120  0.3379
   29MOL   C26115997   7.725   2.966   0.211  0.0511  0.2159 -0.2863
   29MOL   C26215998   7.681   2.900   0.089 -0.3957 -0.1010  0.1630
   29MOL   C26315999   7.537   2.889   0.063  0.7590 -0.2093 -0.5116
   29MOL   O26416000   7.460   2.919   0.171 -0.2214 -0.4989 -0.0328
   29MOL   C26516001   7.322   2.916   0.159 -0.4596  0.2728 -1.1317
   29MOL   C26616002   7.256   3.045   0.100  0.8930 -0.2704  0.5074
   29MOL   O26716003   7.496   2.843   8.208  0.3809 -0.0663  0.1566
   29MOL   C26816004   7.778   2.835   0.014  0.5269  0.1604 -0.3685
   29MOL   C26916005   7.916   2.857   0.043 -0.6541 -0.0212 -1.1093
   29MOL   C27016006   8.007   2.810   8.204  0.1891 -0.2507  0.1099
   29MOL   C27116007   8.146   2.838   8.215  0.7203  0.0083 -0.0774
   29MOL   H27216008   8.114   2.994   0.269  1.7324  0.2877 -1.0987
   29MOL   H27316009   7.880   3.034   0.329 -0.9162  0.3554 -0.0179
   29MOL   H27416010   7.663   3.016   0.283  1.2006  0.2561  0.6854
   29MOL   H27516011   7.285   2.923   0.262 -1.1904 -1.9266 -1.2258
   29MOL   H27616012   7.286   2.820   0.122 -0.8300 -1.1046  2.5775
   29MOL   H27716013   7.318   3.131   0.125  0.4177 -0.8805  4.0663
   29MOL   H27816014   7.238   3.026   8.243 -1.8220  1.1579  0.6659
   29MOL   H27916015   7.759   2.791   8.166  1.3553 -0.2398 -0.3516
   29MOL   H28016016   7.973   2.752   8.120 -0.1928 -1.6840  1.2388
   29MOL   H28116017   8.208   2.798   8.136  0.3198 -1.8062  0.5179
   29MOL   O28216018   7.040   3.195   0.005 -0.0618  0.3314 -0.3259
   29MOL   C28316019   7.040   3.142   0.116  0.6961 -0.4248  0.0346
   29MOL   O28416020   7.137   3.070   0.170  0.7879 -0.5347 -0.0078
   29MOL   C28516021   6.916   3.150   0.206 -0.4733  0.1048 -0.9343
   29MOL   C28616022   6.914   3.090   0.331  0.3189  0.4593  0.2171
   29MOL   C28716023   6.797   3.106   0.413 -0.0723  0.2761  0.6373
   29MOL   C28816024   6.788   3.038   0.536 -0.2116 -0.2808  0.8041
   29MOL   C28916025   6.668   3.045   0.616  0.4648 -0.0248  0.3247
   29MOL   C29016026   6.558   3.128   0.575  0.4316  0.9508  0.0548
   29MOL   C29116027   6.445   3.157   0.668 -0.4990  0.4508 -0.0369
   29MOL   O29216028   6.328   3.181   0.601  0.4478 -0.2000  0.1783
   29MOL   C29316029   6.238   3.266   0.666  0.1157 -0.6116  0.0473
   29MOL   C29416030   6.275   3.412   0.620 -0.6275  0.1656 -1.2698
   29MOL   O29516031   6.460   3.163   0.790 -0.2470  0.7283  0.5225
   29MOL   C29616032   6.570   3.194   0.449  0.1396 -0.1505  0.2270
   29MOL   C29716033   6.683   3.177   0.366  0.3031  0.3991 -0.7641
   29MOL   C29816034   6.686   3.239   0.239  0.2109 -0.1075 -0.2127
   29MOL   C29916035   6.802   3.226   0.160 -0.2644  0.5790 -0.9097
   29MOL   H30016036   6.991   3.029   0.376  0.6114  1.2975  0.8478
   29MOL   H30116037   6.866   2.966   0.557 -0.8078 -0.5339  2.2233
   29MOL   H30216038   6.667   3.002   0.715 -0.2889  1.4684  0.9734
   29MOL   H30316039   6.245   3.259   0.775  1.7159  1.0105  0.0668
   29MOL   H30416040   6.134   3.247   0.641  0.2557  1.1460 -2.0743
   29MOL   H30516041   6.217   3.484   0.678  0.6822 -1.1517  1.7744
   29MOL   H30616042   6.379   3.427   0.646 -0.3962  0.5933 -2.4221
   29MOL   H30716043   6.487   3.253   0.413  0.0877  0.3108  1.0944
   29MOL   H30816044   6.609   3.297   0.191 -0.0998 -0.8075 -0.5679
   29MOL   H30916045   6.817   3.271   0.063 -0.6940  0.5728 -0.9816
   29MOL   O31016046   6.069   3.570   0.525 -0.0830  0.1130 -0.1642
   29MOL   C31116047   6.150   3.521   0.449 -0.2001 -0.2433  0.6747
   29MOL   O31216048   6.255   3.438   0.482 -0.7687 -0.6624  0.2906
   29MOL   C31316049   6.142   3.548   0.303 -0.8223 -0.0516  0.1233
   29MOL   C31416050   6.021   3.571   0.240 -0.3357  0.5087 -0.0430
   29MOL   C31516051   6.008   3.596   0.100 -0.6307 -0.6240  0.5884
   29MOL   C31616052   5.885   3.625   0.038  0.3745  0.3437  0.4980
   29MOL   C31716053   5.874   3.628   8.147  0.3172 -0.4524 -0.2802
   29MOL   C31816054   5.997   3.628   8.073 -0.7131 -0.2097 -0.2959
   29MOL   C31916055   5.999   3.648   7.930 -0.7405  0.0613  0.1407
   29MOL   O32016056   6.124   3.659   7.880  0.8495 -0.2635 -0.8649
   29MOL   C32116057   6.138   3.669   7.738  0.1873 -0.1737  0.2394
   29MOL   C32216058   6.183   3.813   7.695 -0.2822 -0.1995  0.8605
   29MOL   O32316059   5.894   3.673   7.862 -0.1083  0.5754  0.0187
   29MOL   C32416060   6.121   3.623   8.137  0.1869 -0.8009  0.7057
   29MOL   C32516061   6.124   3.596   0.025  0.2064 -0.0134  0.0567
   29MOL   C32616062   6.246   3.560   0.084 -0.4015 -0.7582  0.2784
   29MOL   C32716063   6.258   3.543   0.223 -0.4544  0.3432  0.5106
   29MOL   H32816064   5.926   3.578   0.291 -0.6689  1.2488 -0.7681
   29MOL   H32916065   5.794   3.618   0.095  0.1151  1.1954  0.1948
   29MOL   H33016066   5.781   3.657   8.100  0.8787  1.1279 -0.4359
   29MOL   H33116067   6.045   3.636   7.693  0.5789 -1.1037  0.0956
   29MOL   H33216068   6.202   3.590   7.699  1.2424  0.1192  1.3327
   29MOL   H33316069   6.143   3.839   7.597  0.5613  1.4384  0.9431
   29MOL   H33416070   6.155   3.886   7.770 -0.4443 -0.0764  0.6789
   29MOL   H33516071   6.213   3.628   8.080  0.2589  2.4649  1.0568
   29MOL   H33616072   6.338   3.549   0.028  0.2154  0.7855  0.9746
   29MOL   H33716073   6.354   3.511   0.262 -1.3490 -0.4044  2.1620
   29MOL   O33816074   6.390   3.847   7.889  0.9866 -0.1899  0.0288
   29MOL   C33916075   6.409   3.837   7.763 -0.1956  0.0237  0.1183
   29MOL   O34016076   6.320   3.821   7.670 -0.0194  0.3008  0.0243
   29MOL   C34116077   6.544   3.842   7.719 -0.8014  0.8145 -0.9030
   29MOL   C34216078   6.573   3.845   7.580  0.0463 -0.6515  0.4577
   29MOL   C34316079   6.709   3.846   7.532 -0.3357 -0.0234  0.3895
   29MOL   C34416080   6.734   3.854   7.397 -0.3626  0.5970  0.3159
   29MOL   C34516081   6.867   3.850   7.350  0.0624  0.2816  0.0977
   29MOL   C34616082   6.977   3.865   7.436 -0.2757  0.3016 -0.0191
   29MOL   C34716083   7.118   3.885   7.387 -0.5351  0.3622  0.1299
   29MOL   O34816084   7.120   3.897   7.250  0.1012 -0.4774 -0.0613
   29MOL   C34916085   7.240   3.890   7.175 -0.2598  0.6327 -0.4744
   29MOL   C35016086   7.277   3.740   7.152  0.0402 -0.0913 -0.3238
   29MOL   O35116087   7.216   3.874   7.456 -0.0258 -0.2712 -0.2592
   29MOL   C35216088   6.950   3.869   7.575  0.2559 -0.2333  0.4606
   29MOL   C35316089   6.812   3.850   7.623 -0.1211 -0.0427 -0.7771
   29MOL   C35416090   6.785   3.847   7.761 -0.3498  0.1691 -0.0346
   29MOL   C35516091   6.655   3.842   7.804  0.5206 -0.4344  0.2921
   29MOL   H35616092   6.493   3.846   7.508 -1.1954  0.4647  1.8094
   29MOL   H35716093   6.651   3.843   7.329  2.5718 -1.1189 -3.1580
   29MOL   H35816094   6.874   3.836   7.243 -5.0278  1.7623 -0.5699
   29MOL   H35916095   7.329   3.933   7.220  1.5287 -1.9255 -1.4670
   29MOL   H36016096   7.225   3.932   7.075  0.7033 -1.0379 -1.3396
   29MOL   H36116097   7.183   3.684   7.154  0.2849 -0.4789  0.3160
   29MOL   H36216098   7.325   3.733   7.054  1.7413  1.5020  0.3632
   29MOL   H36316099   7.024   3.876   7.653 -0.9262 -3.7166  2.0067
   29MOL   H36416100   6.858   3.844   7.840  1.0398 -1.4823 -1.3321
   29MOL   H36516101   6.643   3.823   7.910  1.1244 -0.6970  0.3183
   29MOL   O36616102   7.544   3.795   7.168  0.9168 -0.2898 -0.6190
   29MOL   C36716103   7.496   3.712   7.247  0.4220 -0.6162 -1.0421
   29MOL   O36816104   7.364   3.687   7.253  0.0781 -0.1111 -0.1115
   29MOL   C36916105   7.577   3.633   7.337  0.3449  0.5019 -0.4871
   29MOL   C37016106   7.525   3.541   7.435 -0.2351  0.2988 -0.2027
   29MOL   C37116107   7.602   3.453   7.504 -0.1227  0.3951 -0.3633
   29MOL   C37216108   7.547   3.373   7.603 -0.0965  0.4410  0.6324
   29MOL   C37316109   7.629   3.291   7.681 -0.1849  0.0459  0.0162
   29MOL   C37416110   7.769   3.287   7.670 -1.1481  0.3599 -0.0116
   29MOL   C37516111   7.849   3.182   7.743  0.5273 -0.8475 -0.3751
   29MOL   O37616112   7.777   3.106   7.830  0.2555 -0.0974 -0.1744
   29MOL   C37716113   7.848   3.012   7.913  0.2803 -0.2880 -0.2403
   29MOL   C37816114   7.937   3.090   8.012 -0.0625 -0.2662  0.1706
   29MOL   O37916115   7.967   3.169   7.717  0.7279  0.1301  0.3627
   29MOL   C38016116   7.824   3.360   7.560 -0.1858 -0.5000 -0.2645
   29MOL   C38116117   7.741   3.445   7.480 -0.4985 -0.0167 -0.7396
   29MOL   C38216118   7.792   3.528   7.376 -0.4755  0.1631 -0.1151
   29MOL   C38316119   7.712   3.612   7.312  0.8508 -0.5468  0.1397
   29MOL   H38416120   7.419   3.548   7.457 -0.4656 -0.6247 -0.9630
   29MOL   H38516121   7.441   3.360   7.620  0.1979 -0.1426  2.0438
   29MOL   H38616122   7.574   3.223   7.744 -0.0727 -0.5857 -0.5598
   29MOL   H38716123   7.907   2.936   7.862 -2.0976 -2.5836  0.2925
   29MOL   H38816124   7.767   2.963   7.967 -0.9512 -0.8150 -2.4848
   29MOL   H38916125   7.889   3.185   8.036  2.9205  1.2449  0.3773
   29MOL   H39016126   7.936   3.034   8.106 -1.8509  1.6622  1.3596
   29MOL   H39116127   7.931   3.357   7.545  0.0092 -0.8923  1.1298
   29MOL   H39216128   7.895   3.514   7.345  0.1653 -2.2650  2.8528
   29MOL   H39316129   7.760   3.668   7.233 -1.2969 -1.7204 -2.0514
   29MOL   O39416130   8.151   3.209   8.160  0.1269 -0.2549  0.2655
   29MOL   C39516131   8.166   3.158   8.053  0.2260  0.1585  0.0434
   29MOL   O39616132   8.070   3.104   7.974 -0.1593  0.0876 -0.4126
   29MOL   C39716133   0.050   3.142   7.987  0.1975 -0.1069  0.0482
   29MOL   C39816134   0.062   3.110   7.845  0.1925  0.6423 -0.5727
   29MOL   C39916135   0.187   3.094   7.788 -0.4968  1.0859  0.9928
   29MOL   C40016136   0.206   3.089   7.645 -0.7410  0.1503 -0.0707
   29MOL   C40116137   0.333   3.081   7.580 -0.4416 -0.4924 -0.4465
   29MOL   C40216138   0.449   3.076   7.662 -0.5730 -0.2492 -0.4954
   29MOL   C40316139   0.585   3.076   7.601 -0.3563  0.1490  0.1778
   29MOL   O40416140   0.589   3.081   7.466  0.4910 -0.2364 -0.2908
   29MOL   C40516141   0.714   3.075   7.403 -0.4156 -0.2698  0.5044
   29MOL   C40616142   0.790   3.201   7.361  0.5015 -1.0591 -0.3642
   29MOL   O40716143   0.686   3.060   7.670  0.3362 -0.0668  0.5786
   29MOL   C40816144   0.433   3.080   7.806  0.2746  1.0163  0.3743
   29MOL   C40916145   0.301   3.091   7.864 -1.1245 -0.0908  0.2269
   29MOL   C41016146   0.290   3.111   8.006 -0.3418 -0.2675  0.2391
   29MOL   C41116147   0.165   3.132   8.069 -0.1881 -0.2205  0.0676
   29MOL   H41216148   8.221   3.098   7.786  0.1354 -0.9763 -0.1899
   29MOL   H41316149   0.122   3.112   7.580  0.4738 -0.1611 -1.7942
   29MOL   H41416150   0.338   3.085   7.472  1.5236 -3.1626 -0.5098
   29MOL   H41516151   0.699   3.013   7.315  0.3161  2.1943 -1.4172
   29MOL   H41616152   0.780   3.015   7.466 -1.1137 -0.1701  1.3541
   29MOL   H41716153   0.897   3.186   7.346  0.6844  0.6176 -0.9094
   29MOL   H41816154   0.751   3.246   7.270  1.2369 -0.0127 -0.1693
   29MOL   H41916155   0.518   3.075   7.873  0.8248 -0.5255 -0.4037
   29MOL   H42016156   0.383   3.113   8.061 -0.3654  1.9946  0.2566
   29MOL   H42116157   0.146   3.133   8.176 -1.3750  1.8731 -0.1266
   29MOL   O42216158   0.767   3.477   7.347 -0.3391 -0.2516  0.0932
   29MOL   C42316159   0.762   3.422   7.458  0.7405 -0.8047  0.6093
   29MOL   O42416160   0.793   3.293   7.470  0.0321  0.5438 -0.3359
   29MOL   C42516161   0.749   3.496   7.588  0.7098  0.4763 -0.2213
   29MOL   C42616162   0.722   3.634   7.581 -0.5404 -0.2369 -0.0617
   29MOL   C42716163   0.702   3.708   7.697  0.6059 -0.0045 -0.0173
   29MOL   C42816164   0.664   3.846   7.690 -0.3505  0.6441  0.7499
   29MOL   C42916165   0.652   3.918   7.808  0.5151  0.2058 -0.3717
   29MOL   C43016166   0.672   3.860   7.937  0.1652  0.0060 -0.2754
   29MOL   C43116167   0.661   3.939   8.061  0.2775  0.2083  0.2252
   29MOL   O43216168   0.675   3.868   8.171 -0.0049 -0.3869  0.4297
   29MOL   C43316169   0.655   3.921   0.051 -0.5644  0.0158  0.1211
   29MOL   C43416170   0.771   3.878   0.140 -0.5566 -0.0601  0.2238
   29MOL   O43516171   0.635   4.059   8.062 -0.4878 -0.3646  0.4478
   29MOL   C43616172   0.703   3.727   7.940  0.7148  0.1944 -0.0916
   29MOL   C43716173   0.716   3.645   7.825  0.5113  0.5420  0.0367
   29MOL   C43816174   0.736   3.505   7.828 -0.9200  0.1913  0.2995
   29MOL   C43916175   0.756   3.431   7.711  0.0927 -0.5981  0.2817
   29MOL   H44016176   0.711   3.680   7.484 -2.1675  1.3498  0.8365
   29MOL   H44116177   0.646   3.890   7.593  2.4248  1.5673  0.6073
   29MOL   H44216178   0.623   4.022   7.801  2.5052  0.9133  1.2223
   29MOL   H44316179   0.564   3.871   0.084  0.8407 -2.2091  0.8096
   29MOL   H44416180   0.627   4.026   0.047  1.0895  0.4428 -0.8168
   29MOL   H44516181   0.793   3.773   0.124  2.8528  0.7680 -1.0138
   29MOL   H44616182   0.853   3.943   0.111 -2.8997  2.3871 -1.2184
   29MOL   H44716183   0.737   3.676   8.029  0.9503 -0.0811 -0.3385
   29MOL   H44816184   0.734   3.453   7.923  3.0125  0.0724  0.4145
   29MOL   H44916185   0.768   3.324   7.720  1.6305 -0.2212  3.2778
   29MOL   O45016186   0.619   3.702   0.289 -0.2291 -0.5320 -0.0633
   29MOL   C45116187   0.648   3.805   0.338  0.2912  0.5755 -0.2310
   29MOL   O45216188   0.737   3.889   0.279  0.1283 -0.5618  0.2700
   29MOL   C45316189   0.584   3.850   0.467  0.4573  0.6907  1.1324
   29MOL   C45416190   0.493   3.764   0.533  0.2477  0.2210 -0.0140
   29MOL   C45516191   0.425   3.804   0.648  0.0720  0.1257 -0.6950
   29MOL   C45616192   0.329   3.724   0.715  0.1183  0.0545 -0.6675
   29MOL   C45716193   0.262   3.765   0.828 -0.5032  0.2991  0.9260
   29MOL   C45816194   0.284   3.897   0.873  0.0656 -0.0572  0.1098
   29MOL   C45916195   0.199   3.954   0.985  0.8967  0.4536 -0.1362
   29MOL   O46016196   0.218   4.079   1.000  0.1368  0.4915  0.4662
   29MOL   C46116197   0.122   4.165   1.057  0.8806  0.0300  0.2298
   29MOL   C46216198   0.000   4.201   0.972  0.0647 -0.6648  0.0662
   29MOL   O46316199   0.108   3.888   1.039  0.6719 -0.1126 -0.3877
   29MOL   C46416200   0.382   3.976   0.816 -0.7558 -0.2721 -0.0219
   29MOL   C46516201   0.447   3.931   0.700  0.5173  0.1286  0.0042
   29MOL   C46616202   0.534   4.025   0.631  0.1208 -0.3179 -0.2050
   29MOL   C46716203   0.604   3.982   0.518 -0.3440 -0.8663  0.0602
   29MOL   H46816204   0.471   3.662   0.503  1.8925  0.0218 -0.5776
   29MOL   H46916205   0.311   3.622   0.685  0.1176 -0.5924  1.4350
   29MOL   H47016206   0.187   3.699   0.870 -1.7978  1.0013 -0.2683
   29MOL   H47116207   0.185   4.252   1.074 -0.0364  0.6771  0.3650
   29MOL   H47216208   0.102   4.133   1.159  1.3366 -1.7802 -0.2291
   29MOL   H47316209   8.174   4.122   0.978 -1.3557  0.4826 -2.2546
   29MOL   H47416210   8.205   4.292   1.011  0.7093 -0.6213  0.7242
   29MOL   H47516211   0.403   4.077   0.846 -1.1225 -0.4577  0.8662
   29MOL   H47616212   0.562   4.124   0.665  0.6029 -0.7937  0.8355
   29MOL   H47716213   0.670   4.043   0.457 -0.8563  0.8458  1.1811
   29MOL   O47816214   8.201   4.417   0.807  0.1837 -0.4025  0.3999
   29MOL   C47916215   0.021   4.320   0.764 -0.1638  0.2624 -0.7335
   29MOL   O48016216   0.048   4.213   0.836  0.3741 -0.4405  0.9843
   29MOL   C48116217   0.096   4.322   0.640  0.3046  0.6842 -0.1155
   29MOL   C48216218   0.113   4.446   0.574  0.1487  0.2225 -0.1974
   29MOL   C48316219   0.175   4.454   0.441 -0.8389  0.6893  0.9251
   29MOL   C48416220   0.183   4.585   0.374 -0.1375  0.4653 -0.5098
   29MOL   C48516221   0.255   4.593   0.249  0.6043  0.1130  0.3392
   29MOL   C48616222   0.308   4.476   0.197  0.2593 -0.3521 -0.6677
   29MOL   C48716223   0.378   4.480   0.064 -0.1526 -0.1554  0.3395
   29MOL   O48816224   0.424   4.363   0.016 -0.4818  0.2895  0.4475
   29MOL   C48916225   0.464   4.344   8.129 -0.8208  0.0021 -0.0036
   29MOL   C49016226   0.620   4.356   8.126  0.2763  0.1188 -0.0506
   29MOL   O49116227   0.396   4.581   8.245 -0.1347 -0.1314  0.3236
   29MOL   C49216228   0.298   4.344   0.260  0.2402 -0.2838 -0.6714
   29MOL   C49316229   0.232   4.338   0.387 -0.0539 -0.7289 -0.4994
   29MOL   C49416230   0.228   4.219   0.462 -0.2760 -0.5269 -0.3819
   29MOL   C49516231   0.161   4.212   0.584 -0.9640 -0.5297  0.7086
   29MOL   H49616232   0.068   4.530   0.624 -2.4990 -1.9982  1.2564
   29MOL   H49716233   0.145   4.675   0.421  2.6986  0.8837  1.0910
   29MOL   H49816234   0.251   4.687   0.196 -1.5881  0.5223  1.1673
   29MOL   H49916235   0.417   4.415   8.060 -1.3896  0.2743  0.6582
   29MOL   H50016236   0.443   4.245   8.090  0.5605 -0.0082 -0.7687
   29MOL   H50116237   0.660   4.287   8.200  1.3249 -0.8501 -1.5102
   29MOL   H50216238   0.669   4.327   8.033 -0.1903 -1.5309  0.2067
   29MOL   H50316239   0.332   4.255   0.210 -1.5441 -1.0542 -0.5362
   29MOL   H50416240   0.281   4.128   0.436  2.1707  0.7458  0.0150
   29MOL   H50516241   0.150   4.113   0.625 -0.6364 -0.2752  1.4142
   29MOL   O50616242   0.869   4.463   8.110 -0.0631  0.5004  0.2858
   29MOL   C50716243   0.781   4.526   8.166 -0.3806 -0.1198 -0.5237
   29MOL   O50816244   0.657   4.491   8.167  0.3631 -0.2276 -0.0090
   29MOL   C50916245   0.805   4.648   0.002  0.1854  0.3000 -0.7288
   29MOL   C51016246   0.712   4.678   0.101  0.5367  0.3470  0.4604
   29MOL   C51116247   0.730   4.801   0.173  0.3789 -0.2082 -0.4466
   29MOL   C51216248   0.643   4.833   0.280 -0.6611 -0.2183  0.1442
   29MOL   C51316249   0.658   4.953   0.359  0.0704 -0.3979  0.1933
   29MOL   C51416250   0.779   5.030   0.337  1.3282 -0.3738 -0.5308
   29MOL   C51516251   0.809   5.153   0.425  0.2717 -0.8254  0.5340
   29MOL   O51616252   0.899   5.243   0.375 -0.0153 -0.8186 -0.2739
   29MOL   C51716253   0.935   5.362   0.449 -0.1686  0.0463 -0.3379
   29MOL   C51816254   1.053   5.430   0.382  0.2252 -0.0792 -0.2988
   29MOL   O51916255   0.748   5.170   0.532 -0.1252  0.1356  0.6391
   29MOL   C52016256   0.860   5.004   0.221  0.1492 -0.7367 -0.3532
   29MOL   C52116257   0.838   4.887   0.142  0.1364 -0.9175  0.1363
   29MOL   C52216258   0.928   4.849   0.035  0.1557 -0.7638  0.4322
   29MOL   C52316259   0.905   4.737   8.209  0.3300 -0.3178 -0.1077
   29MOL   H52416260   0.621   4.625   0.123  0.5212  1.0326  2.1486
   29MOL   H52516261   0.560   4.768   0.303 -0.2932 -1.1691 -1.1990
   29MOL   H52616262   0.589   4.982   0.437 -0.7709  2.8683 -1.6704
   29MOL   H52716263   0.963   5.334   0.551 -1.1256  1.1779  0.2505
   29MOL   H52816264   0.850   5.428   0.463 -0.0442 -0.5212  3.6024
   29MOL   H52916265   1.070   5.516   0.447 -0.3814  0.3758 -0.7423
   29MOL   H53016266   1.143   5.370   0.393  0.3859  0.2735  0.3640
   29MOL   H53116267   0.953   5.054   0.199 -0.7744  1.4235  0.5528
   29MOL   H53216268   1.004   4.922   0.017  1.1098 -1.3174  2.0741
   29MOL   H53316269   0.970   4.722   8.124  0.5127  0.4598 -0.1054
   29MOL   O53416270   1.189   5.401   0.158  0.0180 -0.4251 -0.1362
   29MOL   C53516271   1.082   5.455   0.149 -0.5740  0.4592 -0.6957
   29MOL   O53616272   1.010   5.477   0.257 -0.5931  0.0849  0.1329
   29MOL   C53716273   1.017   5.481   0.022 -0.3239 -0.0533 -0.7646
   29MOL   C53816274   0.878   5.478   0.013  0.5140 -0.3120 -0.0677
   29MOL   C53916275   0.815   5.518   8.142  1.0101  0.2792 -0.9218
   29MOL   C54016276   0.676   5.514   8.132 -0.1139  0.3797  0.8382
   29MOL   C54116277   0.618   5.560   8.015 -0.1447  0.3910  0.8420
   29MOL   C54216278   0.691   5.554   7.893 -0.4040  0.0919 -0.4446
   29MOL   C54316279   0.620   5.568   7.761 -0.2167  0.1207  0.2682
   29MOL   O54416280   0.494   5.626   7.769 -0.6524 -0.1305 -0.1717
   29MOL   C54516281   0.423   5.668   7.652  0.0082  0.5611  0.1500
   29MOL   C54616282   0.330   5.781   7.707 -0.0248  0.0183  0.7439
   29MOL   O54716283   0.669   5.526   7.658 -0.1510  0.2920  0.5059
   29MOL   C54816284   0.835   5.548   7.894  0.5501 -0.1053  0.3813
   29MOL   C54916285   0.893   5.536   8.025 -0.0384 -0.6096  0.1472
   29MOL   C55016286   1.037   5.543   8.032  0.1397  0.0478 -0.0100
   29MOL   C55116287   1.093   5.519   8.157 -0.9206  0.3982  0.5410
   29MOL   H55216288   0.815   5.445   0.094  0.2075  0.8935  0.1978
   29MOL   H55316289   0.614   5.481   8.214 -3.4012  2.1491 -0.8555
   29MOL   H55416290   0.511   5.559   8.010 -0.2937 -0.2953  3.5496
   29MOL   H55516291   0.367   5.579   7.622 -1.1429  1.9602 -1.8878
   29MOL   H55616292   0.489   5.695   7.570  0.3878 -1.5144 -0.2518
   29MOL   H55716293   0.266   5.808   7.623  0.7064  0.8556  0.4453
   29MOL   H55816294   0.379   5.872   7.740 -0.3578 -0.4129  2.4652
   29MOL   H55916295   0.895   5.550   7.804 -1.4818 -0.3080 -1.0111
   29MOL   H56016296   1.102   5.578   7.953  2.4783  0.3447  2.0007
   29MOL   H56116297   1.200   5.534   8.161 -0.5873 -1.3686 -1.2238
   29MOL   H56216298   0.275   5.747   7.794  1.0520 -0.5735  1.1961
   30MOL     O116299   8.080   4.795   6.219  0.0914  0.7284  0.1693
   30MOL     C216300   8.012   4.756   6.313  0.0284 -0.2463 -0.6937
   30MOL     O316301   8.029   4.630   6.361  0.9041  0.1292  0.0291
   30MOL     C416302   7.900   4.841   6.375 -0.0124 -1.5127  0.1232
   30MOL     C516303   7.822   4.784   6.476 -0.8637 -0.1782 -0.5055
   30MOL     C616304   7.718   4.852   6.540  0.5707 -0.2912  0.1533
   30MOL     C716305   7.626   4.789   6.625 -0.2830 -0.1982 -0.6290
   30MOL     C816306   7.518   4.863   6.679  0.2827 -0.2804 -0.1075
   30MOL     C916307   7.495   5.000   6.651 -0.3759  1.5049 -0.1389
   30MOL    C1016308   7.378   5.076   6.702 -0.6118  0.5225 -0.3201
   30MOL    O1116309   7.328   5.022   6.818  0.5152 -0.2603  0.2062
   30MOL    C1216310   7.192   5.057   6.845 -0.2676 -0.5500 -0.1709
   30MOL    C1316311   7.198   5.138   6.976  0.6349 -0.3580 -0.0117
   30MOL    O1416312   7.347   5.188   6.658 -0.5322  0.0613  0.2087
   30MOL    C1516313   7.588   5.058   6.564  0.6979  0.1457 -0.6464
   30MOL    C1616314   7.688   4.986   6.500  0.1344  0.5876  0.0257
   30MOL    C1716315   7.765   5.048   6.403  0.3882 -0.0677  0.4568
   30MOL    C1816316   7.873   4.977   6.344 -0.3034  0.0435  0.6661
   30MOL    H1916317   7.843   4.680   6.491  0.4936  0.2932  1.0396
   30MOL    H2016318   7.639   4.684   6.644  0.5075 -0.4282 -2.3474
   30MOL    H2116319   7.445   4.808   6.738  1.2395 -1.1049  0.3305
   30MOL    H2216320   7.134   5.099   6.764 -1.6939  0.1738  1.2032
   30MOL    H2316321   7.141   4.961   6.859  0.2291 -1.0002 -1.3582
   30MOL    H2416322   7.231   5.071   7.055  0.5983 -2.0737 -1.4381
   30MOL    H2516323   7.276   5.214   6.976 -1.2201  1.6456 -2.5994
   30MOL    H2616324   7.560   5.160   6.538 -0.0554 -0.1005 -0.8323
   30MOL    H2716325   7.754   5.154   6.385  0.5881  0.5858  3.8824
   30MOL    H2816326   7.947   5.033   6.288 -1.0654 -0.5369 -0.9599
   30MOL    H2916327   8.069   4.576   6.294  1.3048 -0.4054  0.7039
   30MOL    O3016328   7.124   5.378   6.856  0.4497 -0.2208  0.9133
   30MOL    C3116329   7.049   5.326   6.935  0.2888 -0.1046  0.4980
   30MOL    O3216330   7.078   5.211   7.004 -0.6504 -0.0628  0.4287
   30MOL    C3316331   6.923   5.391   6.972  0.8533 -0.4586 -0.3878
   30MOL    C3416332   6.905   5.528   6.944  0.2562 -0.5391 -0.2984
   30MOL    C3516333   6.789   5.594   6.983  0.0425 -0.5976 -0.1490
   30MOL    C3616334   6.779   5.730   6.949  0.2524  0.4159  0.6232
   30MOL    C3716335   6.649   5.797   6.975 -0.3870 -0.0093 -0.0243
   30MOL    C3816336   6.542   5.722   7.028 -0.0132 -0.3036  0.0746
   30MOL    C3916337   6.410   5.789   7.048 -0.7770  0.6997 -0.2092
   30MOL    O4016338   6.388   5.895   6.968  0.0875  0.0633 -0.2374
   30MOL    C4116339   6.269   5.967   6.981 -0.4649 -0.2207  0.7484
   30MOL    C4216340   6.153   5.911   6.899  0.4358 -0.5631  0.3428
   30MOL    O4316341   6.331   5.747   7.134  0.8698  0.3461 -0.3950
   30MOL    C4416342   6.559   5.587   7.064 -1.0224  0.0976 -0.4804
   30MOL    C4516343   6.679   5.522   7.034  0.1228 -0.0158 -0.1386
   30MOL    C4616344   6.694   5.385   7.060 -0.1511  0.0814  0.6717
   30MOL    C4716345   6.815   5.320   7.029  0.8217 -0.1953 -0.1854
   30MOL    H4816346   6.980   5.577   6.883  0.4212 -1.7143 -1.0727
   30MOL    H4916347   6.864   5.782   6.907 -0.3848  0.9986  0.0285
   30MOL    H5016348   6.644   5.897   6.936  0.5103  1.1744  2.7931
   30MOL    H5116349   6.291   6.068   6.946  0.0549 -0.9404 -1.0688
   30MOL    H5216350   6.252   5.978   7.088  0.4891 -1.7612  1.0726
   30MOL    H5316351   6.070   5.981   6.910  0.9091  0.2128 -0.9219
   30MOL    H5416352   6.180   5.911   6.794  1.1238  0.6385  0.5098
   30MOL    H5516353   6.471   5.537   7.102 -2.6663  2.1791 -1.4545
   30MOL    H5616354   6.612   5.327   7.100 -0.8623 -0.1860 -1.1445
   30MOL    H5716355   6.832   5.215   7.046  2.1889  0.0225 -0.1701
   30MOL    O5816356   6.045   5.891   7.148 -0.8359 -0.5978 -0.9306
   30MOL    C5916357   6.047   5.791   7.071  0.0321 -0.5033  0.4038
   30MOL    O6016358   6.101   5.790   6.947  0.5486  0.3060 -0.1521
   30MOL    C6116359   5.961   5.666   7.086 -0.3416 -0.6714 -0.1419
   30MOL    C6216360   5.872   5.663   7.190  0.1802 -0.1555  0.1671
   30MOL    C6316361   5.785   5.557   7.222  0.1553 -0.1256 -0.1150
   30MOL    C6416362   5.697   5.565   7.338  0.4401 -0.0952  0.8996
   30MOL    C6516363   5.611   5.456   7.358 -0.1531  0.3599  0.4659
   30MOL    C6616364   5.628   5.333   7.290 -0.7537 -0.2180  0.1064
   30MOL    C6716365   5.561   5.207   7.335 -0.3524  0.2674  0.8701
   30MOL    O6816366   5.508   5.218   7.463  0.4877 -0.2167 -0.4095
   30MOL    C6916367   5.431   5.113   7.520  0.9530 -0.1738  0.6081
   30MOL    C7016368   5.297   5.100   7.447  0.0264 -0.0018  0.4636
   30MOL    O7116369   5.557   5.106   7.271  0.1160  0.5248  0.0747
   30MOL    C7216370   5.726   5.330   7.187  0.3413 -0.1292 -0.0654
   30MOL    C7316371   5.798   5.439   7.144 -0.6213 -0.5312 -0.3690
   30MOL    C7416372   5.881   5.441   7.029 -0.2460 -0.6491 -0.0475
   30MOL    C7516373   5.964   5.554   7.002 -0.8585  0.0499 -0.1198
   30MOL    H7616374   5.869   5.755   7.246 -3.7110  0.6315 -1.2422
   30MOL    H7716375   5.693   5.655   7.397  1.6180  0.1358  0.6440
   30MOL    H7816376   5.526   5.461   7.424 -0.6318 -2.6470  0.1387
   30MOL    H7916377   5.406   5.126   7.625 -3.3094 -0.9011 -0.2110
   30MOL    H8016378   5.489   5.022   7.502 -0.1133 -0.9376  0.9908
   30MOL    H8116379   5.232   5.188   7.453 -0.2402  0.0780 -2.5109
   30MOL    H8216380   5.319   5.076   7.343 -0.8788 -0.3519  0.3479
   30MOL    H8316381   5.730   5.240   7.127 -0.9804  0.5176 -1.1480
   30MOL    H8416382   5.887   5.357   6.962 -0.8334  0.1454 -1.1169
   30MOL    H8516383   6.037   5.554   6.923 -0.9547 -0.1013 -0.2068
   30MOL    O8616384   5.105   4.958   7.321  0.5936  0.0575  0.0001
   30MOL    C8716385   5.125   4.937   7.438 -0.4207  0.1488 -0.5253
   30MOL    O8816386   5.220   5.004   7.513  0.2310  0.0312 -0.4068
   30MOL    C8916387   5.036   4.844   7.525 -0.2799  0.4685 -0.4303
   30MOL    C9016388   5.067   4.814   7.659 -0.3509  0.1594  0.0977
   30MOL    C9116389   4.988   4.721   7.731 -1.1983 -0.5791  0.1137
   30MOL    C9216390   5.028   4.685   7.865 -0.0799  0.5072  0.4964
   30MOL    C9316391   4.958   4.582   7.928 -0.1658 -0.8614 -0.3907
   30MOL    C9416392   4.842   4.521   7.869  0.1983  0.1521  0.4927
   30MOL    C9516393   4.768   4.414   7.942 -0.4341  0.3073 -0.0032
   30MOL    O9616394   4.646   4.386   7.898  0.0860 -0.3275 -0.0303
   30MOL    C9716395   4.571   4.282   7.961 -0.0984 -0.4863  0.9008
   30MOL    C9816396   4.520   4.309   8.097  0.3135  0.6584  0.2033
   30MOL    O9916397   4.814   4.368   8.047 -0.0928  0.6543 -0.2398
   30MOL   C10016398   4.797   4.577   7.746  0.2793  1.0169 -0.0093
   30MOL   C10116399   4.869   4.670   7.674  0.1673  0.0245 -0.4895
   30MOL   C10216400   4.835   4.708   7.544  0.0730 -0.1135  0.1421
   30MOL   C10316401   4.916   4.797   7.469  0.6261  0.1635  0.7442
   30MOL   H10416402   5.159   4.853   7.699  0.7649 -3.0904  0.8281
   30MOL   H10516403   5.118   4.722   7.912  1.8605 -3.6588  0.2583
   30MOL   H10616404   4.988   4.550   8.026  1.5475 -0.4438 -0.7474
   30MOL   H10716405   4.633   4.193   7.970  0.8131 -0.0482 -0.7448
   30MOL   H10816406   4.486   4.260   7.896 -0.4921  0.9964  0.8947
   30MOL   H10916407   4.505   4.209   8.139 -1.7227  0.2801 -1.3382
   30MOL   H11016408   4.589   4.359   8.164 -0.1600 -0.1788  1.3306
   30MOL   H11116409   4.711   4.540   7.692  0.3734  0.3813  0.2777
   30MOL   H11216410   4.747   4.682   7.487  0.1762 -0.5967  0.1976
   30MOL   H11316411   4.895   4.821   7.366  0.4109  0.6492  0.9006
   30MOL   O11416412   4.423   4.487   0.025  0.0981  0.2040  0.4229
   30MOL   C11516413   4.364   4.476   8.168 -0.3650  0.0347  1.1933
   30MOL   O11616414   4.400   4.379   8.084  0.0948 -0.6322 -0.3905
   30MOL   C11716415   4.251   4.554   8.120  0.0687  0.4788  0.5770
   30MOL   C11816416   4.200   4.663   8.193  0.6224  0.1440 -0.0949
   30MOL   C11916417   4.080   4.733   8.162  0.5525  0.2221  0.9673
   30MOL   C12016418   4.032   4.844   8.236 -0.0099  0.4972  0.3313
   30MOL   C12116419   3.923   4.920   8.190 -0.7817 -0.5949  0.4736
   30MOL   C12216420   3.856   4.879   8.069 -0.8794 -0.0967  0.2227
   30MOL   C12316421   3.754   4.964   7.995  0.3608 -0.1404 -0.6543
   30MOL   O12416422   3.770   4.955   7.859 -0.5629  0.2336 -0.1126
   30MOL   C12516423   3.717   5.056   7.782  0.4089 -0.7453 -0.0146
   30MOL   C12616424   3.789   5.046   7.654  0.1098 -0.0434 -0.0987
   30MOL   O12716425   3.672   5.037   8.046 -0.1028  0.2115 -0.3022
   30MOL   C12816426   3.901   4.762   8.005 -0.1478 -0.2154  0.1137
   30MOL   C12916427   4.011   4.691   8.050 -0.0377 -0.2023 -0.3448
   30MOL   C13016428   4.055   4.586   7.970  0.3275 -0.3936  0.5957
   30MOL   C13116429   4.176   4.517   8.001  0.3295  0.2885  0.0283
   30MOL   H13216430   4.225   4.684   0.047  0.6173 -0.0084 -0.0629
   30MOL   H13316431   4.088   4.892   0.066 -2.2174  1.8661  1.1149
   30MOL   H13416432   3.885   5.006   8.244 -0.9162  0.4516 -1.2253
   30MOL   H13516433   3.728   5.158   7.819 -3.4177 -0.4320  0.4648
   30MOL   H13616434   3.609   5.043   7.780  0.5123 -1.8640  1.0049
   30MOL   H13716435   3.809   4.940   7.635  1.1938  0.6119 -2.8317
   30MOL   H13816436   3.739   5.091   7.568  2.1347 -1.7270 -2.2122
   30MOL   H13916437   3.855   4.730   7.913  1.2575  2.3934 -1.5645
   30MOL   H14016438   4.003   4.549   7.883 -3.2989  3.9590  0.7486
   30MOL   H14116439   4.203   4.435   7.936  0.4257 -1.0971  1.7770
   30MOL   O14216440   4.066   4.972   7.647 -0.4909  0.5149 -0.1172
   30MOL   C14316441   4.036   5.088   7.665 -0.5932  0.1401 -0.0002
   30MOL   O14416442   3.905   5.134   7.662 -0.1690  0.8179  0.1079
   30MOL   C14516443   4.142   5.190   7.694 -0.5891 -0.4791  0.0976
   30MOL   C14616444   4.276   5.161   7.672 -0.0523  0.3350 -0.4858
   30MOL   C14716445   4.374   5.256   7.702 -0.2045  0.1296  0.4554
   30MOL   C14816446   4.513   5.218   7.691 -0.1970 -0.2467  0.3282
   30MOL   C14916447   4.614   5.312   7.740  0.8609  0.3915  0.2222
   30MOL   C15016448   4.579   5.440   7.788  0.4053  0.5022 -0.4607
   30MOL   C15116449   4.673   5.545   7.840 -0.2899  0.1841  0.2392
   30MOL   O15216450   4.800   5.502   7.830 -0.1960 -0.4425 -0.0439
   30MOL   C15316451   4.912   5.572   7.880  0.7228  0.4212 -0.1734
   30MOL   C15416452   4.943   5.498   8.011 -0.0911 -0.5852  0.0538
   30MOL   O15516453   4.642   5.655   7.892  0.3629  0.0890 -0.5836
   30MOL   C15616454   4.442   5.477   7.784 -1.0311  0.8638  0.2052
   30MOL   C15716455   4.340   5.387   7.744 -0.0058 -0.0419  0.6007
   30MOL   C15816456   4.204   5.424   7.752 -0.5318  0.2996 -0.2786
   30MOL   C15916457   4.104   5.326   7.730 -0.4240  0.0266  0.2448
   30MOL   H16016458   4.317   5.065   7.646 -0.2935 -0.2295  1.1461
   30MOL   H16116459   4.541   5.125   7.643  0.2056 -0.2122  0.4945
   30MOL   H16216460   4.716   5.281   7.724  1.6518  1.4779  2.9148
   30MOL   H16316461   4.887   5.675   7.906 -0.5569  0.2963 -0.9120
   30MOL   H16416462   4.992   5.574   7.805  0.7763 -2.2720 -0.2181
   30MOL   H16516463   4.850   5.459   8.053 -0.1770  1.1283  1.4895
   30MOL   H16616464   5.013   5.418   7.988  0.3514 -0.4598  0.9444
   30MOL   H16716465   4.415   5.574   7.823  0.0473  1.4823 -0.5415
   30MOL   H16816466   4.175   5.526   7.773 -1.6583  0.0241 -0.4842
   30MOL   H16916467   3.998   5.343   7.734 -0.6878 -0.9019 -2.1458
   30MOL   O17016468   5.191   5.610   7.983 -0.1304  0.4152 -0.3162
   30MOL   C17116469   5.134   5.621   8.092  0.5909  0.2173 -0.3497
   30MOL   O17216470   5.005   5.572   8.114  0.1349  0.3279  0.7236
   30MOL   C17316471   5.198   5.684   8.206  0.0621  0.2286  0.1984
   30MOL   C17416472   5.327   5.744   8.198 -0.1464 -0.0759  0.0256
   30MOL   C17516473   5.383   5.797   0.067 -0.2524 -0.4398 -0.7098
   30MOL   C17616474   5.511   5.852   0.071  0.2327  0.2169  0.2470
   30MOL   C17716475   5.559   5.927   0.181 -0.1117  0.1471  0.2317
   30MOL   C17816476   5.496   5.926   0.309  0.5022 -0.0489  0.1992
   30MOL   C17916477   5.539   6.029   0.412  0.2418  0.0187  0.2705
   30MOL   O18016478   5.463   6.042   0.526 -0.0727  0.7861 -0.3134
   30MOL   C18116479   5.508   6.109   0.640  0.0634  0.4712 -0.5690
   30MOL   C18216480   5.567   6.010   0.730 -0.3996 -0.1664 -0.6562
   30MOL   O18316481   5.630   6.103   0.391  0.3528  0.3812 -0.1874
   30MOL   C18416482   5.371   5.858   0.312  0.3073 -0.4278  0.0735
   30MOL   C18516483   5.317   5.799   0.196 -0.1119 -0.8131 -1.3902
   30MOL   C18616484   5.197   5.735   0.195  0.5005  0.6316  0.1703
   30MOL   C18716485   5.135   5.683   0.083  0.0962  0.3852  0.0643
   30MOL   H18816486   5.392   5.740   8.113 -0.1695 -0.0078  0.0056
   30MOL   H18916487   5.564   5.864   8.227 -1.7537 -0.5920 -1.0108
   30MOL   H19016488   5.653   5.980   0.187  0.3099 -0.4500 -0.8845
   30MOL   H19116489   5.420   6.155   0.685  0.8047  1.5826 -0.2403
   30MOL   H19216490   5.575   6.188   0.604 -1.0671  0.1047 -3.5801
   30MOL   H19316491   5.612   6.048   0.822  0.4298 -1.4178 -0.5237
   30MOL   H19416492   5.482   5.946   0.757 -1.3169  1.6322  0.8777
   30MOL   H19516493   5.309   5.865   0.400  1.1042 -0.3789  0.6347
   30MOL   H19616494   5.134   5.735   0.284 -1.4684  2.7256 -1.1792
   30MOL   H19716495   5.041   5.633   0.102  1.5378 -2.6546 -0.4995
   30MOL   O19816496   5.844   6.078   0.725 -0.7380 -0.0445 -0.0328
   30MOL   C19916497   5.807   5.979   0.663  0.6247 -0.0508 -0.2368
   30MOL   O20016498   5.673   5.940   0.667  0.1002 -0.7478 -0.0864
   30MOL   C20116499   5.888   5.879   0.589  0.2778  0.3852  0.0572
   30MOL   C20216500   5.825   5.790   0.497 -0.1546 -0.3306 -0.0194
   30MOL   C20316501   5.894   5.687   0.434  0.2729  0.5828 -0.2292
   30MOL   C20416502   5.829   5.587   0.354  0.0482 -0.6236 -0.4316
   30MOL   C20516503   5.908   5.494   0.287 -0.1581 -0.4793  0.1229
   30MOL   C20616504   6.043   5.485   0.310  0.0620  0.5032  0.0129
   30MOL   C20716505   6.125   5.386   0.232  0.6299  0.5766  0.7650
   30MOL   O20816506   6.063   5.311   0.147 -0.5395 -0.3021  0.3112
   30MOL   C20916507   6.113   5.188   0.103 -0.0186 -0.3480  0.0464
   30MOL   C21016508   6.022   5.092   0.179 -0.9374  0.1443  0.0220
   30MOL   O21116509   6.251   5.387   0.244 -0.1182  0.0090 -0.8116
   30MOL   C21216510   6.109   5.579   0.385 -0.1845 -0.5712 -0.2536
   30MOL   C21316511   6.040   5.684   0.451 -0.1288  0.4937 -0.7345
   30MOL   C21416512   6.105   5.782   0.531  0.4478 -0.5782  0.1174
   30MOL   C21516513   6.028   5.876   0.596  0.0722 -0.2242 -0.1026
   30MOL   H21616514   5.719   5.799   0.478  0.0847 -3.9459 -3.7394
   30MOL   H21716515   5.722   5.592   0.340  0.2663  1.3511 -1.5409
   30MOL   H21816516   5.853   5.421   0.229  2.8337 -1.8508 -1.1309
   30MOL   H21916517   6.221   5.181   0.114  0.3463  0.4212 -2.8222
   30MOL   H22016518   6.085   5.174   8.248 -0.7170  1.3804 -0.0164
   30MOL   H22116519   6.029   5.112   0.286 -1.4891  1.9376 -0.2725
   30MOL   H22216520   5.915   5.105   0.161 -1.0914 -0.9715  0.0396
   30MOL   H22316521   6.216   5.584   0.393 -0.3654  0.8125  1.6248
   30MOL   H22416522   6.211   5.768   0.548  0.1007 -0.9208  2.2123
   30MOL   H22516523   6.069   5.948   0.665  1.0607  1.0167 -1.9623
   30MOL   O22616524   6.204   4.943   0.297 -0.8279 -0.0612  0.1196
   30MOL   C22716525   6.131   4.887   0.225  0.2769  0.9338 -0.4820
   30MOL   O22816526   6.041   4.954   0.152 -0.1423  0.0670  0.4116
   30MOL   C22916527   6.120   4.738   0.216 -0.0306  0.3686 -0.5197
   30MOL   C23016528   6.037   4.672   0.121 -0.0335 -0.8764  0.0849
   30MOL   C23116529   6.010   4.535   0.122  0.1528 -0.1488 -0.1887
   30MOL   C23216530   5.908   4.481   0.043 -0.1771  0.5214 -0.2901
   30MOL   C23316531   5.891   4.342   0.054  0.4720 -0.1313 -0.2739
   30MOL   C23416532   5.961   4.260   0.148  0.0583 -0.0932 -0.2209
   30MOL   C23516533   5.938   4.110   0.158  0.3821 -0.0773 -0.1177
   30MOL   O23616534   5.854   4.065   0.061  0.0277 -0.0145  0.2640
   30MOL   C23716535   5.808   3.930   0.056  0.6134  0.0574  0.5724
   30MOL   C23816536   5.676   3.915   0.146 -0.6230  0.2807 -0.0840
   30MOL   O23916537   5.981   4.030   0.242  0.4629  0.1792 -0.1136
   30MOL   C24016538   6.058   4.326   0.231  0.3536  0.4113  0.0688
   30MOL   C24116539   6.087   4.464   0.220  0.4709  0.3558 -0.4017
   30MOL   C24216540   6.184   4.521   0.308 -0.4966  0.9492  0.5855
   30MOL   C24316541   6.195   4.663   0.308 -0.1789 -0.6527  0.4735
   30MOL   H24416542   5.988   4.732   0.045  1.7724  0.5023 -0.0191
   30MOL   H24516543   5.853   4.549   8.229 -0.5773  2.3524  1.9521
   30MOL   H24616544   5.818   4.300   8.235 -0.7268  2.8776 -0.9355
   30MOL   H24716545   5.892   3.864   0.078  0.6978 -0.4234 -1.0901
   30MOL   H24816546   5.776   3.919   8.201  0.5677 -1.2362  0.7204
   30MOL   H24916547   5.615   4.005   0.157  0.1639  1.0034 -1.4671
   30MOL   H25016548   5.598   3.844   0.116 -0.9558  1.1325 -1.2659
   30MOL   H25116549   6.104   4.268   0.309  0.1411  0.1925  0.0314
   30MOL   H25216550   6.239   4.468   0.384  0.8532  0.3690 -0.7670
   30MOL   H25316551   6.266   4.711   0.373  0.3150 -0.2099 -0.3873
   30MOL   O25416552   5.496   3.861   0.327  0.4148 -0.3675 -0.0496
   30MOL   C25516553   5.617   3.860   0.359  0.3918 -0.2930 -0.3863
   30MOL   O25616554   5.715   3.875   0.271  0.4507  0.0563  0.1286
   30MOL   C25716555   5.665   3.827   0.500  0.4126  0.2921 -0.2513
   30MOL   C25816556   5.575   3.797   0.609  0.1256  0.2804 -0.2216
   30MOL   C25916557   5.612   3.783   0.743 -1.0974  0.0791  0.2729
   30MOL   C26016558   5.527   3.761   0.850 -0.7531 -0.3990 -0.0860
   30MOL   C26116559   5.568   3.734   0.982 -0.5574 -0.3589  0.5508
   30MOL   C26216560   5.704   3.715   1.004 -0.5334 -0.4024 -0.4811
   30MOL   C26316561   5.752   3.665   1.135 -0.0066  1.0177  0.5024
   30MOL   O26416562   5.888   3.656   1.157  0.1435  0.5945 -0.5978
   30MOL   C26516563   5.941   3.585   1.257 -0.5774  0.7778  0.2383
   30MOL   C26616564   6.017   3.475   1.176  0.7353  0.5899  0.0277
   30MOL   O26716565   5.673   3.640   1.223 -0.0819 -0.0860 -0.4111
   30MOL   C26816566   5.792   3.740   0.902 -0.5527 -0.1327  0.6365
   30MOL   C26916567   5.750   3.779   0.770  0.8679 -0.1244  0.3943
   30MOL   C27016568   5.844   3.799   0.666  0.0840 -0.4513 -0.1024
   30MOL   C27116569   5.806   3.827   0.528  0.6231 -0.2823  0.0809
   30MOL   H27216570   5.468   3.789   0.595 -0.4723  2.3738  2.7084
   30MOL   H27316571   5.422   3.785   0.846 -0.4281  1.6596  2.7226
   30MOL   H27416572   5.507   3.707   1.066 -0.4833 -0.9726  0.4048
   30MOL   H27516573   5.871   3.530   1.320  1.3782 -1.3526  0.6229
   30MOL   H27616574   6.007   3.643   1.321  0.4346 -1.0717  0.9138
   30MOL   H27716575   5.948   3.429   1.105  0.2067  2.4860 -0.7259
   30MOL   H27816576   6.086   3.539   1.121  0.6116  0.5145 -0.2175
   30MOL   H27916577   5.897   3.734   0.927 -0.2285 -0.5122 -0.7440
   30MOL   H28016578   5.947   3.772   0.684 -0.3715 -2.8431 -0.9277
   30MOL   H28116579   5.878   3.851   0.452 -0.2965  0.8361 -0.4587
   30MOL   O28216580   6.263   3.475   1.305  0.9007  0.5930  0.1508
   30MOL   C28316581   6.190   3.376   1.299  0.3858  0.1135  0.7080
   30MOL   O28416582   6.073   3.368   1.244 -0.0827  0.2793 -0.0831
   30MOL   C28516583   6.240   3.239   1.345  0.0746  0.4509 -0.5292
   30MOL   C28616584   6.160   3.123   1.328  0.1733  1.0480  0.5751
   30MOL   C28716585   6.199   2.998   1.378  0.2706  0.2003 -0.7098
   30MOL   C28816586   6.115   2.885   1.366 -0.3519  0.1992  0.9097
   30MOL   C28916587   6.163   2.762   1.417 -0.0567  0.3310  0.7533
   30MOL   C29016588   6.284   2.755   1.494  0.2602  0.6689  0.8772
   30MOL   C29116589   6.311   2.629   1.558 -0.3348  0.5673 -0.0409
   30MOL   O29216590   6.426   2.632   1.629  0.1724  0.5012 -0.0387
   30MOL   C29316591   6.480   2.524   1.709 -0.1130 -0.5905  0.1629
   30MOL   C29416592   6.426   2.536   1.851  0.6238  0.3016 -0.1461
   30MOL   O29516593   6.240   2.525   1.546  0.0092 -0.2347  0.6115
   30MOL   C29616594   6.362   2.870   1.516 -0.3518 -0.0525  0.0378
   30MOL   C29716595   6.322   2.991   1.452  0.4833 -0.2225 -0.0872
   30MOL   C29816596   6.404   3.105   1.469 -0.0084  0.1420 -0.2113
   30MOL   C29916597   6.369   3.228   1.412  0.2112  0.3920  0.1790
   30MOL   H30016598   6.065   3.137   1.279  0.3911  0.8969  0.1029
   30MOL   H30116599   6.026   2.893   1.304  0.7333 -1.6930 -0.9501
   30MOL   H30216600   6.104   2.672   1.405  1.2606 -0.5713  0.9037
   30MOL   H30316601   6.588   2.535   1.706 -0.1952  0.1466 -0.0535
   30MOL   H30416602   6.447   2.430   1.664 -0.8742 -0.2701  0.0371
   30MOL   H30516603   6.429   2.437   1.897 -1.3444  0.0533 -0.5214
   30MOL   H30616604   6.489   2.594   1.918 -0.6200 -1.2058  2.3911
   30MOL   H30716605   6.448   2.866   1.581  1.0834 -0.2560 -1.8575
   30MOL   H30816606   6.494   3.102   1.529  0.5072 -2.2095 -1.0477
   30MOL   H30916607   6.437   3.309   1.430 -0.5390  0.6404  2.0279
   30MOL   O31016608   6.194   2.430   1.986  0.0220 -0.0222 -0.4174
   30MOL   C31116609   6.189   2.528   1.913 -0.8872 -0.7203 -0.0034
   30MOL   O31216610   6.291   2.593   1.853  0.0362 -0.1004 -0.4634
   30MOL   C31316611   6.063   2.602   1.880 -0.5864  0.3154  0.0912
   30MOL   C31416612   5.940   2.544   1.908  0.1577  0.7325 -0.8367
   30MOL   C31516613   5.821   2.607   1.868 -0.3813  0.2483 -0.9284
   30MOL   C31616614   5.697   2.540   1.890 -0.9098  0.2626 -0.1973
   30MOL   C31716615   5.573   2.593   1.841 -0.0171  0.0722  0.5662
   30MOL   C31816616   5.579   2.719   1.777  0.6058 -0.5032 -0.1170
   30MOL   C31916617   5.447   2.776   1.729 -0.3849  0.6223  0.1129
   30MOL   O32016618   5.463   2.850   1.616  0.2309 -0.5919  0.2266
   30MOL   C32116619   5.358   2.936   1.566  0.3961  0.7627  0.0034
   30MOL   C32216620   5.363   3.066   1.650  0.4217  0.5644 -0.2115
   30MOL   O32316621   5.337   2.756   1.782  0.9196  0.1197  0.2050
   30MOL   C32416622   5.703   2.781   1.748 -0.0475  0.4059  0.7458
   30MOL   C32516623   5.820   2.730   1.796 -0.0743  0.0939  0.1019
   30MOL   C32616624   5.944   2.787   1.770 -0.4603  0.0986 -0.3886
   30MOL   C32716625   6.062   2.729   1.814  0.6128 -1.2314  0.0362
   30MOL   H32816626   5.936   2.450   1.960 -0.0901  1.2918  0.1668
   30MOL   H32916627   5.698   2.442   1.934  0.2875 -0.6352 -2.1446
   30MOL   H33016628   5.477   2.547   1.858 -0.0848 -0.7769 -1.8929
   30MOL   H33116629   5.264   2.883   1.578 -1.2397  3.2988 -0.9376
   30MOL   H33216630   5.356   2.947   1.458  2.8371 -1.7098 -0.3302
   30MOL   H33316631   5.275   3.127   1.630  0.0079 -0.4274 -1.4708
   30MOL   H33416632   5.354   3.038   1.755 -0.4398  1.6171  0.0038
   30MOL   H33516633   5.694   2.865   1.681  0.0297 -2.0729 -2.5016
   30MOL   H33616634   5.962   2.880   1.719 -1.7139  1.0825  0.9389
   30MOL   H33716635   6.156   2.779   1.793 -0.4207  1.1078  0.8025
   30MOL   O33816636   5.421   3.258   1.472  0.4464  0.7088  0.3956
   30MOL   C33916637   5.509   3.220   1.544  0.0366 -0.2964  0.4580
   30MOL   O34016638   5.490   3.127   1.638  0.6189 -0.4405  0.4975
   30MOL   C34116639   5.642   3.281   1.552 -0.4523 -0.5981 -0.3465
   30MOL   C34216640   5.752   3.206   1.605 -0.3465  0.1168  0.3307
   30MOL   C34316641   5.881   3.268   1.621  0.1661 -0.1841 -0.2540
   30MOL   C34416642   5.994   3.197   1.649  0.3278  0.0772  1.1135
   30MOL   C34516643   6.118   3.261   1.658 -0.5402 -0.0842 -0.5214
   30MOL   C34616644   6.132   3.399   1.645  0.4534 -0.0622  0.3475
   30MOL   C34716645   6.259   3.463   1.668 -0.9970 -0.4257  0.0201
   30MOL   O34816646   6.246   3.594   1.664 -0.2276 -0.0186  0.1454
   30MOL   C34916647   6.361   3.679   1.671  0.2481  0.7638 -0.5954
   30MOL   C35016648   6.442   3.671   1.541 -0.0250 -0.2865  0.5687
   30MOL   O35116649   6.365   3.405   1.689  0.3439 -0.3028 -0.4078
   30MOL   C35216650   6.018   3.474   1.597 -0.8427  0.3536 -0.8428
   30MOL   C35316651   5.893   3.410   1.590  0.1253 -0.2853  0.2121
   30MOL   C35416652   5.782   3.481   1.542  0.2869 -0.8433  0.8118
   30MOL   C35516653   5.660   3.421   1.521  0.2222 -0.1193 -0.6507
   30MOL   H35616654   5.733   3.101   1.625  0.2874 -0.3479 -1.3971
   30MOL   H35716655   5.981   3.091   1.662  2.3924 -0.4476 -0.7365
   30MOL   H35816656   6.200   3.202   1.696  0.8754  2.9490  1.3359
   30MOL   H35916657   6.425   3.643   1.751 -3.5234 -1.0792  1.7669
   30MOL   H36016658   6.331   3.781   1.694 -0.7992  0.2175  0.5239
   30MOL   H36116659   6.530   3.734   1.554 -0.3615  0.1717  0.6113
   30MOL   H36216660   6.473   3.568   1.522  2.9876  0.9900 -2.0360
   30MOL   H36316661   6.032   3.580   1.585  1.2830 -0.1226 -2.9865
   30MOL   H36416662   5.791   3.580   1.500  1.1061 -1.5413 -0.7410
   30MOL   H36516663   5.577   3.470   1.472 -0.2429  2.2252  2.3924
   30MOL   O36616664   6.493   3.926   1.434  0.2861  0.3542 -0.2459
   30MOL   C36716665   6.405   3.855   1.385 -0.0093 -0.2668  0.2043
   30MOL   O36816666   6.369   3.726   1.433 -0.0576  0.3238  0.4797
   30MOL   C36916667   6.314   3.904   1.282  0.4297 -0.0268  0.5435
   30MOL   C37016668   6.330   4.036   1.236  0.0412  0.0637  0.1864
   30MOL   C37116669   6.259   4.091   1.130  1.1983 -0.2909  0.2104
   30MOL   C37216670   6.290   4.221   1.089  0.8659 -0.7238  0.3425
   30MOL   C37316671   6.233   4.267   0.966  0.3666 -0.6016  0.6602
   30MOL   C37416672   6.139   4.188   0.899 -0.9534  0.0654  0.9894
   30MOL   C37516673   6.103   4.234   0.756  1.0439  0.0477 -0.2496
   30MOL   O37616674   6.035   4.140   0.687 -0.1619 -0.1787  0.0602
   30MOL   C37716675   5.999   4.168   0.548 -0.2049  0.3935 -0.0870
   30MOL   C37816676   5.858   4.226   0.535 -0.0439 -0.6856  0.0375
   30MOL   O37916677   6.139   4.337   0.713  0.0957 -0.0243  0.3758
   30MOL   C38016678   6.099   4.064   0.947 -0.3046  0.2682  0.0977
   30MOL   C38116679   6.162   4.010   1.063  0.1922  0.2062 -0.0547
   30MOL   C38216680   6.129   3.882   1.121 -0.1452  0.0138 -0.3225
   30MOL   C38316681   6.215   3.825   1.222  0.3210  0.0837  0.0762
   30MOL   H38416682   6.398   4.101   1.289 -0.2625  0.4465  0.1073
   30MOL   H38516683   6.370   4.277   1.134  0.7594  0.9487 -1.5071
   30MOL   H38616684   6.269   4.358   0.922 -0.2758  0.5069  2.3663
   30MOL   H38716685   5.996   4.072   0.497  0.4505 -0.1145  0.8013
   30MOL   H38816686   6.081   4.227   0.507  3.7326 -1.7299  4.1352
   30MOL   H38916687   5.822   4.201   0.435  2.0149 -0.0776 -0.8745
   30MOL   H39016688   5.801   4.189   0.620  2.9262  2.2702  3.4287
   30MOL   H39116689   6.032   3.998   0.893  1.4199 -2.1209  0.7852
   30MOL   H39216690   6.062   3.818   1.067 -0.6918  0.5898 -0.3312
   30MOL   H39316691   6.199   3.724   1.255 -0.5567  0.4254  0.7253
   30MOL   O39416692   5.671   4.416   0.618  0.4068 -0.0740 -0.0680
   30MOL   C39516693   5.787   4.449   0.601 -0.3140  0.1663  0.0198
   30MOL   O39616694   5.882   4.368   0.555 -0.0261  0.2135  0.1303
   30MOL   C39716695   5.841   4.588   0.622  0.5640 -0.2533 -0.3382
   30MOL   C39816696   5.750   4.690   0.666 -0.3472 -0.5450 -0.4723
   30MOL   C39916697   5.798   4.819   0.686 -0.5182 -0.8662  0.2086
   30MOL   C40016698   5.705   4.918   0.726 -1.2694  0.1936  0.5536
   30MOL   C40116699   5.755   5.049   0.756  0.0627 -0.0538  0.5997
   30MOL   C40216700   5.889   5.085   0.730 -0.2529  0.5716  0.2887
   30MOL   C40316701   5.940   5.218   0.755 -0.3631 -0.4600 -0.2898
   30MOL   O40416702   5.858   5.296   0.823 -0.2572  0.2000  0.0504
   30MOL   C40516703   5.892   5.424   0.864 -0.2235  0.6271  0.4566
   30MOL   C40616704   5.862   5.522   0.750  0.1796  0.0154  0.0232
   30MOL   O40716705   6.043   5.260   0.710 -0.0093  0.0991  0.0623
   30MOL   C40816706   5.971   4.985   0.678  0.1029 -0.3427  0.7517
   30MOL   C40916707   5.930   4.850   0.657 -0.0953  0.2201  0.5943
   30MOL   C41016708   6.016   4.753   0.611 -0.3652 -0.7142 -0.3947
   30MOL   C41116709   5.973   4.615   0.603  0.6787 -0.1524 -0.1319
   30MOL   H41216710   5.647   4.662   0.680 -0.4867  0.4005  0.4842
   30MOL   H41316711   5.600   4.900   0.740 -1.1034 -4.1297 -2.7006
   30MOL   H41416712   5.691   5.133   0.779  0.5587  0.6182 -0.4348
   30MOL   H41516713   5.998   5.432   0.888 -0.1793 -0.6814  0.7916
   30MOL   H41616714   5.834   5.458   0.951 -0.4760 -0.6876  0.8186
   30MOL   H41716715   5.956   5.548   0.702  0.7809 -0.7320  0.7673
   30MOL   H41816716   5.794   5.492   0.670  1.3906  1.6964 -1.6764
   30MOL   H41916717   6.073   5.014   0.660 -0.0206 -0.2672  0.1781
   30MOL   H42016718   6.116   4.786   0.587 -0.2852 -2.1445 -2.1140
   30MOL   H42116719   6.044   4.544   0.563  1.1571  0.2364  0.0165
   30MOL   O42216720   5.577   5.564   0.777 -0.0445 -0.3129  0.1556
   30MOL   C42316721   5.653   5.640   0.836  0.3525 -0.1725  0.8259
   30MOL   O42416722   5.795   5.630   0.824  0.2678 -0.5900 -0.0223
   30MOL   C42516723   5.612   5.751   0.929  0.3554 -0.0002  0.3914
   30MOL   C42616724   5.474   5.774   0.944  0.5323  0.5044 -1.0421
   30MOL   C42716725   5.432   5.877   1.032 -0.1002  0.2438  0.3903
   30MOL   C42816726   5.290   5.898   1.047 -0.4483  0.0219  0.9756
   30MOL   C42916727   5.247   6.003   1.136  0.0565  0.4529  0.6664
   30MOL   C43016728   5.338   6.071   1.214 -0.1848  0.4727  0.2856
   30MOL   C43116729   5.285   6.170   1.310  0.3980 -0.4102  0.4862
   30MOL   O43216730   5.378   6.229   1.390 -0.1440  0.4784 -0.4755
   30MOL   C43316731   5.324   6.312   1.497  0.0765 -0.0626  0.4786
   30MOL   C43416732   5.303   6.455   1.441  0.1201  0.1187 -0.3797
   30MOL   O43516733   5.166   6.196   1.320  0.3206 -0.3581  0.5373
   30MOL   C43616734   5.472   6.049   1.203  0.5208  0.7246  0.2261
   30MOL   C43716735   5.520   5.955   1.110 -0.6911 -0.1706 -0.0553
   30MOL   C43816736   5.658   5.932   1.091  0.1844 -0.1241  0.1232
   30MOL   C43916737   5.708   5.829   1.003 -0.2263 -0.0212  0.6505
   30MOL   H44016738   5.407   5.708   0.891  0.1563 -0.7249  0.9096
   30MOL   H44116739   5.221   5.848   0.981 -2.2005  0.6470  2.3061
   30MOL   H44216740   5.141   6.020   1.145  0.4040  2.4003  1.1711
   30MOL   H44316741   5.400   6.314   1.575 -0.1637 -1.2820  0.7621
   30MOL   H44416742   5.230   6.286   1.545 -0.3261 -0.5374 -0.5423
   30MOL   H44516743   5.243   6.450   1.351  0.7411  0.6594 -0.8310
   30MOL   H44616744   5.252   6.506   1.522 -0.3927  0.7736 -1.1149
   30MOL   H44716745   5.540   6.106   1.265  0.6763 -0.5987  1.2888
   30MOL   H44816746   5.723   5.988   1.158  0.4034  1.1281 -1.1078
   30MOL   H44916747   5.810   5.796   0.993 -0.8155 -1.6429 -0.2153
   30MOL   O45016748   5.350   6.715   1.484 -0.2973  0.0492 -0.3735
   30MOL   C45116749   5.451   6.650   1.446 -0.4793 -0.1870  0.6106
   30MOL   O45216750   5.428   6.517   1.406 -0.2685 -0.0511  0.0710
   30MOL   C45316751   5.596   6.692   1.435 -0.2328 -0.2556 -0.2971
   30MOL   C45416752   5.689   6.620   1.360 -0.4774 -0.3926  0.0315
   30MOL   C45516753   5.822   6.670   1.344  0.8268  0.3502 -0.4865
   30MOL   C45616754   5.913   6.593   1.268  0.1297  1.1099 -0.3452
   30MOL   C45716755   6.044   6.641   1.244 -0.0875  0.3002  0.0031
   30MOL   C45816756   6.080   6.766   1.305 -0.4834  0.0718  0.7113
   30MOL   C45916757   6.221   6.813   1.294  0.4505 -0.8405  0.0937
   30MOL   O46016758   6.315   6.724   1.255 -0.0578  0.1497  0.5375
   30MOL   C46116759   6.453   6.767   1.243 -0.3384  0.3527  0.1455
   30MOL   C46216760   6.525   6.670   1.149 -0.2528 -0.7433  0.5199
   30MOL   O46316761   6.251   6.931   1.313 -0.2365 -0.3244  0.0508
   30MOL   C46416762   5.987   6.843   1.377  0.3553 -0.8913  0.5517
   30MOL   C46516763   5.857   6.794   1.402 -0.2171 -0.4884  0.2287
   30MOL   C46616764   5.762   6.871   1.470 -0.0222 -0.4895  0.3857
   30MOL   C46716765   5.635   6.816   1.494  0.3161 -0.2952  0.3389
   30MOL   H46816766   5.666   6.527   1.311  1.3812 -0.5748 -0.5449
   30MOL   H46916767   5.876   6.506   1.217  1.1411  0.2993  0.2807
   30MOL   H47016768   6.109   6.576   1.187  0.8114  1.1197  0.0736
   30MOL   H47116769   6.491   6.762   1.345  0.4193  3.2652  0.0622
   30MOL   H47216770   6.456   6.871   1.210 -0.0533 -0.3295 -2.1266
   30MOL   H47316771   6.531   6.567   1.186  0.1772 -0.9673 -0.1490
   30MOL   H47416772   6.470   6.658   1.056 -0.8375 -2.1768  1.0253
   30MOL   H47516773   6.009   6.942   1.414  0.8191 -2.1158  3.8068
   30MOL   H47616774   5.786   6.968   1.511 -0.6607 -0.6074  1.0488
   30MOL   H47716775   5.566   6.869   1.558  0.9767 -0.6301  1.3566
   30MOL   O47816776   6.692   6.569   0.945 -0.0149 -0.0791 -0.4932
   30MOL   C47916777   6.733   6.656   1.019 -0.3017 -0.7169 -0.4997
   30MOL   O48016778   6.655   6.714   1.121  0.2552 -0.2057  0.3590
   30MOL   C48116779   6.872   6.705   1.015 -0.7410  0.0800 -1.1684
   30MOL   C48216780   6.914   6.806   1.106 -0.5190 -0.2019  0.0046
   30MOL   C48316781   7.055   6.832   1.116 -0.0235 -0.1733  0.2487
   30MOL   C48416782   7.103   6.926   1.208  0.2884 -0.7240  0.5169
   30MOL   C48516783   7.239   6.951   1.219 -0.2300 -0.2588  0.6932
   30MOL   C48616784   7.335   6.878   1.145  0.1076  0.0001  0.0165
   30MOL   C48716785   7.477   6.919   1.152 -0.1012 -0.6565  0.1822
   30MOL   O48816786   7.564   6.820   1.113 -0.6193  0.4913  0.1243
   30MOL   C48916787   7.701   6.826   1.125 -0.0414  0.4361  0.6486
   30MOL   C49016788   7.763   6.782   1.257  0.1723 -0.7051 -0.2686
   30MOL   O49116789   7.522   7.025   1.207  0.0788 -0.8400  0.4665
   30MOL   C49216790   7.286   6.779   1.052 -0.1302 -0.3185  0.7544
   30MOL   C49316791   7.147   6.755   1.033 -0.1810  0.0507  0.1563
   30MOL   C49416792   7.097   6.654   0.949  0.2707 -0.0747  0.1775
   30MOL   C49516793   6.961   6.619   0.942 -0.0243 -0.3587 -0.3604
   30MOL   H49616794   6.845   6.864   1.165 -2.1341 -2.0748 -0.0097
   30MOL   H49716795   7.037   6.991   1.265 -0.0992  0.3386 -1.1029
   30MOL   H49816796   7.269   7.030   1.286 -1.3630 -1.4340  2.6392
   30MOL   H49916797   7.730   6.922   1.083 -2.4156  0.1675 -1.7738
   30MOL   H50016798   7.741   6.759   1.049 -1.4150  0.4398 -0.0960
   30MOL   H50116799   7.871   6.784   1.260  0.1713  0.6363 -0.7902
   30MOL   H50216800   7.723   6.837   1.342 -1.8690 -1.7405 -0.5160
   30MOL   H50316801   7.352   6.719   0.991 -0.6946  0.4807 -0.6629
   30MOL   H50416802   7.154   6.595   0.879  0.2686 -0.7505  0.7305
   30MOL   H50516803   6.925   6.539   0.879 -0.4883  0.0728 -0.6417
   30MOL   O50616804   7.909   6.541   1.261 -0.5927  0.0125 -0.4614
   30MOL   C50716805   7.785   6.543   1.266  0.2566 -0.1957 -0.3825
   30MOL   O50816806   7.709   6.652   1.279 -0.0686  0.1529  0.0839
   30MOL   C50916807   7.696   6.430   1.229  0.4973  0.1202 -0.1673
   30MOL   C51016808   7.594   6.452   1.137  0.1365  0.0068  1.1743
   30MOL   C51116809   7.500   6.354   1.109 -0.0062 -0.8306 -0.1794
   30MOL   C51216810   7.385   6.392   1.037  0.4572  0.2060 -0.8295
   30MOL   C51316811   7.300   6.286   0.999  0.5232  0.3609 -0.0943
   30MOL   C51416812   7.321   6.159   1.048 -0.0961  0.1550  0.2043
   30MOL   C51516813   7.225   6.051   1.015 -0.1648 -0.2400  0.0926
   30MOL   O51616814   7.198   5.969   1.115  0.6132  0.1717 -0.1595
   30MOL   C51716815   7.119   5.846   1.095  0.2316 -0.0073  0.5417
   30MOL   C51816816   7.207   5.750   1.016  0.9137 -0.3143 -0.4122
   30MOL   O51916817   7.170   6.035   0.908 -0.3192 -0.0691 -0.0952
   30MOL   C52016818   7.423   6.125   1.142  0.9618 -0.1853  0.0579
   30MOL   C52116819   7.518   6.219   1.159 -0.1048 -0.0638 -0.2347
   30MOL   C52216820   7.637   6.190   1.232  0.4373  0.7411 -0.1573
   30MOL   C52316821   7.720   6.298   1.274 -0.3257 -0.0092 -0.4828
   30MOL   H52416822   7.577   6.547   1.087 -1.4453 -0.1185  1.4682
   30MOL   H52516823   7.359   6.496   1.024 -0.9148  0.0888  0.9166
   30MOL   H52616824   7.207   6.301   0.945 -0.0636  1.3905  1.1847
   30MOL   H52716825   7.021   5.859   1.049 -0.9454  0.8507  3.1895
   30MOL   H52816826   7.103   5.804   1.195  0.8094 -0.3978  0.4717
   30MOL   H52916827   7.174   5.646   1.022 -1.0437  0.2997 -0.0315
   30MOL   H53016828   7.211   5.768   0.909 -0.8528  1.5085 -0.1951
   30MOL   H53116829   7.429   6.024   1.179 -0.9616  0.3470  1.8877
   30MOL   H53216830   7.654   6.091   1.272 -0.0929  0.5407 -0.4201
   30MOL   H53316831   7.802   6.271   1.338 -0.5960  0.1984 -0.0436
   30MOL   O53416832   7.302   5.586   1.224  0.5162 -0.2297 -0.4138
   30MOL   C53516833   7.373   5.673   1.175  0.2940  0.3011  0.1944
   30MOL   O53616834   7.338   5.750   1.064 -0.3191  0.2075  0.1605
   30MOL   C53716835   7.504   5.713   1.236 -0.6840  0.2479 -0.5310
   30MOL   C53816836   7.538   5.659   1.360  0.2050  0.2687  0.5502
   30MOL   C53916837   7.670   5.692   1.415 -0.0417  0.5937 -0.1051
   30MOL   C54016838   7.710   5.644   1.543  0.7547 -0.3087  0.6077
   30MOL   C54116839   7.838   5.671   1.590 -0.2202  0.4738 -0.2327
   30MOL   C54216840   7.928   5.750   1.512 -0.0161  0.1917  0.5175
   30MOL   C54316841   8.054   5.793   1.575  0.2198  0.4112 -0.5220
   30MOL   O54416842   8.125   5.887   1.502 -0.8575 -0.2437 -0.5990
   30MOL   C54516843   8.247   5.944   1.555 -0.0778 -0.0739 -0.0526
   30MOL   C54616844   0.015   6.079   1.493 -0.1369 -0.1953  0.0241
   30MOL   O54716845   8.083   5.751   1.689  0.2647  0.0950 -0.0753
   30MOL   C54816846   7.884   5.809   1.393  0.1992  0.3747  0.5943
   30MOL   C54916847   7.755   5.780   1.345  0.0967 -0.4852  0.9152
   30MOL   C55016848   7.711   5.838   1.229  0.4495  0.0198  0.0101
   30MOL   C55116849   7.593   5.795   1.168 -0.3868  0.5340 -0.2723
   30MOL   H55216850   7.460   5.595   1.397 -0.1429  0.2685 -0.1797
   30MOL   H55316851   7.653   5.566   1.591  0.8755  0.5919  2.2840
   30MOL   H55416852   7.876   5.629   1.682 -0.5585  1.7653  0.5069
   30MOL   H55516853   0.084   5.885   1.525  1.4292  1.0712  1.9016
   30MOL   H55616854   8.239   5.952   1.663 -2.3863 -0.8628 -0.1397
   30MOL   H55716855   8.172   6.136   1.512  0.4400  0.1397  1.9240
   30MOL   H55816856   0.044   6.073   1.388  0.2203  0.1838  0.1002
   30MOL   H55916857   7.946   5.877   1.336 -0.2631  1.0742  0.9363
   30MOL   H56016858   7.772   5.906   1.170 -1.2950  1.9177  0.3626
   30MOL   H56116859   7.574   5.822   1.065  1.7671  1.3870 -0.4683
   30MOL   H56216860   0.104   6.123   1.538 -0.9590  0.8073  0.7024
   31MOL     O116861   0.249   4.614   3.720 -0.4103 -0.0384  0.1380
   31MOL     C216862   0.147   4.662   3.770 -0.0225  0.4682  0.7624
   31MOL     O316863   0.044   4.698   3.693  0.3032 -0.0355  0.0985
   31MOL     C416864   0.128   4.674   3.916  0.0703  0.0035  0.0269
   31MOL     C516865   0.022   4.747   3.964  0.0464  0.6034  0.7694
   31MOL     C616866   8.238   4.750   4.101  0.0701 -0.4412 -0.1344
   31MOL     C716867   8.121   4.825   4.142  0.2529  0.3427  0.1258
   31MOL     C816868   8.097   4.834   4.282  0.1147 -0.0396  0.0152
   31MOL     C916869   8.187   4.772   4.375 -0.1384 -0.3068 -0.2804
   31MOL    C1016870   8.165   4.789   4.525  0.3856 -0.1089 -0.1182
   31MOL    O1116871   0.023   4.746   4.606  0.5463 -0.1705 -0.2834
   31MOL    C1216872   0.010   4.758   4.747 -0.2852  0.1033  0.1088
   31MOL    C1316873   8.218   4.635   4.822 -0.2951  0.5709 -0.2344
   31MOL    O1416874   8.060   4.835   4.569 -0.4724  0.5830 -0.0478
   31MOL    C1516875   0.046   4.703   4.334  0.4774  0.4506  0.0060
   31MOL    C1616876   0.075   4.691   4.196  0.5049  0.3559  0.2669
   31MOL    C1716877   0.187   4.622   4.141 -0.3244  0.8594 -0.0800
   31MOL    C1816878   0.214   4.613   4.006  0.6080 -0.5031 -0.1545
   31MOL    H1916879   8.201   4.797   3.898  0.8145  1.0725  0.3049
   31MOL    H2016880   8.055   4.874   4.073 -1.2991 -1.1857  0.5039
   31MOL    H2116881   8.019   4.904   4.310 -1.7903 -1.5442 -1.3808
   31MOL    H2216882   0.115   4.768   4.775  0.1626 -0.0850 -1.4686
   31MOL    H2316883   8.204   4.845   4.783  1.5960  1.0298  0.8382
   31MOL    H2416884   8.113   4.628   4.795  0.2278 -1.1101 -1.9810
   31MOL    H2516885   0.014   4.543   4.784  2.1420  0.4934  2.6110
   31MOL    H2616886   0.111   4.655   4.406 -0.8531 -0.3688  0.6943
   31MOL    H2716887   0.260   4.574   4.205  0.7529  1.0644 -1.1412
   31MOL    H2816888   0.308   4.573   3.970  0.3018 -0.4871 -0.9712
   31MOL    H2916889   0.026   4.636   3.623 -1.7535 -1.3984  1.7794
   31MOL    O3016890   0.218   4.603   4.945  0.3543  0.2756 -0.4510
   31MOL    C3116891   0.124   4.652   5.003 -0.7781  0.1672  0.4986
   31MOL    O3216892   8.245   4.650   4.961  0.2605  0.8294  0.4618
   31MOL    C3316893   0.134   4.729   5.125  0.5906  0.4212 -0.5095
   31MOL    C3416894   0.021   4.788   5.187  0.1325 -0.1300  0.7569
   31MOL    C3516895   0.037   4.873   5.294  0.6294  0.5097 -0.5741
   31MOL    C3616896   8.170   4.937   5.343 -0.0144 -0.4775  0.2745
   31MOL    C3716897   8.190   5.041   5.434 -0.0098 -0.7090  0.3029
   31MOL    C3816898   0.065   5.084   5.476  0.6070  0.1807  0.0540
   31MOL    C3916899   0.080   5.203   5.563  0.7126 -0.5271 -0.2193
   31MOL    O4016900   8.210   5.240   5.612 -0.4944 -0.4472 -0.4318
   31MOL    C4116901   8.198   5.347   5.705 -0.2440  0.2407  0.4346
   31MOL    C4216902   8.179   5.284   5.844  0.8598  0.3465  0.4211
   31MOL    O4316903   0.187   5.263   5.582 -0.5081  0.3621  0.2652
   31MOL    C4416904   0.180   5.014   5.434  0.7125  0.1740 -0.1221
   31MOL    C4516905   0.166   4.907   5.345  0.4125 -0.0876  0.4067
   31MOL    C4616906   0.275   4.839   5.290  0.1032 -0.0941  0.2253
   31MOL    C4716907   0.260   4.752   5.180  0.0623 -0.3924 -0.0183
   31MOL    H4816908   8.177   4.788   5.133  0.7828 -0.6231 -0.3855
   31MOL    H4916909   8.067   4.916   5.318  0.0039 -2.0353  1.4564
   31MOL    H5016910   8.105   5.100   5.466 -0.3876 -0.2986 -1.4027
   31MOL    H5116911   8.105   5.400   5.682 -1.1938 -1.1917  0.8639
   31MOL    H5216912   0.026   5.424   5.695  0.1830 -0.3988 -1.5457
   31MOL    H5316913   8.147   5.356   5.919  0.6296 -0.8555  1.4919
   31MOL    H5416914   8.094   5.215   5.846  0.0066  1.3364 -0.6456
   31MOL    H5516915   0.280   5.054   5.446  1.5852 -1.7678 -0.6476
   31MOL    H5616916   0.369   4.852   5.341  0.1454  3.0808 -0.5548
   31MOL    H5716917   0.349   4.706   5.140  1.0838  2.7294 -1.5176
   31MOL    O5816918   8.211   5.155   6.096 -0.5976  0.0915  0.1139
   31MOL    C5916919   0.047   5.149   6.006  0.1275 -0.2030 -0.1976
   31MOL    O6016920   0.042   5.216   5.888 -0.3647 -0.1803 -0.3133
   31MOL    C6116921   0.159   5.051   6.014 -0.5977  0.1317  0.2248
   31MOL    C6216922   0.246   5.023   5.904 -0.0068 -0.5387 -0.5821
   31MOL    C6316923   0.346   4.929   5.921  0.3537 -0.2236  0.8343
   31MOL    C6416924   0.439   4.901   5.814  0.2253  0.3297 -0.7694
   31MOL    C6516925   0.563   4.828   5.837  0.1806 -0.0812  0.0981
   31MOL    C6616926   0.579   4.767   5.968 -0.8356  0.3837  0.1720
   31MOL    C6716927   0.704   4.695   6.007  0.0488 -0.1852 -0.3795
   31MOL    O6816928   0.760   4.643   5.902 -0.4147  0.1953  0.0108
   31MOL    C6916929   0.864   4.550   5.921 -0.1857 -0.4397  0.2247
   31MOL    C7016930   0.808   4.407   5.946 -0.9116  0.1072 -0.1059
   31MOL    O7116931   0.738   4.678   6.127 -0.0023  0.2688 -0.2590
   31MOL    C7216932   0.475   4.781   6.067  0.0683 -0.3690 -0.3681
   31MOL    C7316933   0.361   4.861   6.046  0.1057  0.8297 -0.2571
   31MOL    C7416934   0.270   4.873   6.151  0.3042 -0.0723  0.3008
   31MOL    C7516935   0.170   4.976   6.134 -1.0218  0.5021 -0.2586
   31MOL    H7616936   0.231   5.074   5.810  1.6902  0.1221 -0.5067
   31MOL    H7716937   0.444   4.951   5.718  1.0932 -1.5374 -1.7355
   31MOL    H7816938   0.634   4.816   5.757 -1.9230 -0.4843 -1.7526
   31MOL    H7916939   0.938   4.578   5.996  0.6243 -2.3302  0.1573
   31MOL    H8016940   0.911   4.539   5.824 -0.6838 -2.1224  0.1595
   31MOL    H8116941   0.859   4.363   6.032 -0.3926  1.1163  0.1183
   31MOL    H8216942   0.703   4.414   5.974 -1.1624 -1.0614 -0.7269
   31MOL    H8316943   0.488   4.739   6.165  0.5927  0.1125 -0.2248
   31MOL    H8416944   0.278   4.805   6.235  0.9934 -3.4535 -2.3957
   31MOL    H8516945   0.098   4.989   6.214 -1.2483  1.2220 -0.5712
   31MOL    O8616946   1.009   4.261   5.850  0.1452 -0.3238 -0.2559
   31MOL    C8716947   0.895   4.257   5.798 -0.1111 -1.3882 -0.3525
   31MOL    O8816948   0.797   4.324   5.833 -1.3020 -0.5197  0.1253
   31MOL    C8916949   0.860   4.171   5.688 -0.2522  0.2636 -0.5218
   31MOL    C9016950   0.726   4.133   5.666 -0.4542  0.3895  0.4540
   31MOL    C9116951   0.686   4.045   5.564 -0.5305 -0.8584  0.3841
   31MOL    C9216952   0.549   3.998   5.545  0.3863 -0.3237  0.8714
   31MOL    C9316953   0.522   3.895   5.450  0.0686 -0.3159 -0.4400
   31MOL    C9416954   0.626   3.843   5.374  0.2144 -0.0409  0.3871
   31MOL    C9516955   0.596   3.749   5.262 -0.2871 -0.2412  0.1651
   31MOL    O9616956   0.698   3.740   5.166 -0.1858  0.1290  0.2465
   31MOL    C9716957   0.689   3.654   5.066  0.6280  0.0791  0.4183
   31MOL    C9816958   0.663   3.734   4.939  0.0897 -0.1674  0.1590
   31MOL    O9916959   0.494   3.682   5.256  0.6254 -0.2274  0.0259
   31MOL   C10016960   0.758   3.890   5.388  0.3501  0.0071 -0.1780
   31MOL   C10116961   0.787   3.985   5.488 -0.0132 -1.1163 -0.3588
   31MOL   C10216962   0.918   4.026   5.500 -0.5303 -0.1527  0.0722
   31MOL   C10316963   0.954   4.120   5.597 -0.4784  0.1199  0.2742
   31MOL   H10416964   0.649   4.175   5.729 -0.4569  1.4444 -0.2393
   31MOL   H10516965   0.473   4.030   5.615 -1.0225 -1.2537 -0.2022
   31MOL   H10616966   0.420   3.869   5.429  0.8234 -0.5659 -4.1681
   31MOL   H10716967   0.617   3.575   5.088  1.5249 -0.8716 -0.0129
   31MOL   H10816968   0.790   3.616   5.049  0.6575  1.0905 -1.8029
   31MOL   H10916969   0.695   3.837   4.956  0.4974 -0.2676 -0.0092
   31MOL   H11016970   0.703   3.698   4.845  1.0737  0.7662  0.2124
   31MOL   H11116971   0.836   3.848   5.326  1.1051  2.4329 -0.9159
   31MOL   H11216972   0.991   3.982   5.433 -0.0283  1.1156 -0.2337
   31MOL   H11316973   1.056   4.149   5.617 -1.5547  3.6134  1.0284
   31MOL   O11416974   0.489   3.958   4.978  0.8762  0.0145  0.5194
   31MOL   C11516975   0.443   3.843   4.949  0.5989 -0.3089 -0.3377
   31MOL   O11616976   0.520   3.733   4.916  0.6947 -0.4698 -0.5086
   31MOL   C11716977   0.295   3.814   4.936  0.0695  0.3895  0.5790
   31MOL   C11816978   0.254   3.678   4.953  0.0602 -0.5021 -0.1108
   31MOL   C11916979   0.123   3.636   4.919  0.1355  0.0626  0.1378
   31MOL   C12016980   0.077   3.499   4.929 -0.0868 -0.0985  0.0302
   31MOL   C12116981   8.185   3.477   4.907  0.3983 -0.0935 -0.0167
   31MOL   C12216982   8.096   3.586   4.901  0.1438  1.0243 -0.2477
   31MOL   C12316983   7.949   3.568   4.884 -0.2863  0.0079 -0.6479
   31MOL   O12416984   7.914   3.439   4.909 -0.0893  0.0784 -0.4318
   31MOL   C12516985   7.776   3.408   4.910  0.1541  0.1320  0.2610
   31MOL   C12616986   7.741   3.319   5.026  0.3195 -0.1705  0.0396
   31MOL   O12716987   7.868   3.652   4.839  0.2270  0.1409 -0.0136
   31MOL   C12816988   8.146   3.717   4.887  0.5862  0.4309 -0.7142
   31MOL   C12916989   0.032   3.743   4.891 -0.1299  0.1352 -0.5086
   31MOL   C13016990   0.070   3.874   4.874 -0.1416 -0.6997  0.3908
   31MOL   C13116991   0.202   3.910   4.901  0.4279  0.2145  0.0751
   31MOL   H13216992   0.330   3.603   4.971  0.1495 -0.3374  0.1958
   31MOL   H13316993   0.141   3.415   4.952  1.3216  1.1790  0.8779
   31MOL   H13416994   8.146   3.376   4.910  1.7514 -0.6303 -0.0816
   31MOL   H13516995   7.753   3.368   4.812  2.1883 -0.4916  0.0169
   31MOL   H13616996   7.709   3.495   4.909  1.8441  1.4968 -3.3022
   31MOL   H13716997   7.766   3.367   5.121  2.0219  0.2136 -0.5855
   31MOL   H13816998   7.636   3.293   5.024  0.3361 -0.3994  1.4308
   31MOL   H13916999   8.074   3.795   4.868 -1.0272 -0.8520 -0.0977
   31MOL   H14017000   8.246   3.950   4.850  1.5559  0.0349 -2.6784
   31MOL   H14117001   0.232   4.012   4.885  1.5881 -0.4987 -2.3894
   31MOL   O14217002   7.666   3.121   4.852  0.3994 -0.1099  0.2443
   31MOL   C14317003   7.771   3.108   4.920  1.0091  0.6110  0.1408
   31MOL   O14417004   7.810   3.194   5.012  0.0115  0.1028  0.4196
   31MOL   C14517005   7.867   3.000   4.895  0.5377 -0.6244  0.0229
   31MOL   C14617006   7.988   2.997   4.974 -0.2080  0.4143 -0.3065
   31MOL   C14717007   8.074   2.890   4.953  0.5774  0.7845 -0.2774
   31MOL   C14817008   8.192   2.894   5.025 -0.6500 -0.6254  0.5294
   31MOL   C14917009   0.049   2.807   4.992 -1.1880  0.1603  0.0119
   31MOL   C15017010   0.020   2.699   4.908  1.0670 -0.1351  0.0635
   31MOL   C15117011   0.126   2.595   4.877  0.4521 -0.7656 -0.1463
   31MOL   O15217012   0.219   2.582   4.969 -0.1996 -0.4481  0.1789
   31MOL   C15317013   0.329   2.492   4.954  0.4722  0.0795 -0.1856
   31MOL   C15417014   0.287   2.363   5.027 -0.0075  1.0677  0.0468
   31MOL   O15517015   0.105   2.520   4.785  0.5677  0.3404 -0.0141
   31MOL   C15617016   8.147   2.690   4.838 -0.5087  0.5085 -0.7891
   31MOL   C15717017   8.054   2.795   4.853 -0.2075  1.2155 -0.4692
   31MOL   C15817018   7.940   2.794   4.781 -0.3459  0.4715  0.3540
   31MOL   C15917019   7.847   2.905   4.792  0.5867 -0.2654  0.5946
   31MOL   H16017020   8.021   3.084   5.030  3.0139 -0.4797 -0.7011
   31MOL   H16117021   8.200   2.970   5.102 -1.7466  0.3087 -0.2760
   31MOL   H16217022   0.145   2.809   5.040 -1.6011 -1.0534  0.8994
   31MOL   H16317023   0.418   2.536   4.998  0.5701 -0.3002 -0.0013
   31MOL   H16417024   0.341   2.464   4.849 -0.4724  0.0867 -0.2931
   31MOL   H16517025   0.195   2.316   4.991  2.3141 -4.5203  0.9095
   31MOL   H16617026   0.359   2.286   5.003  0.2422  0.7974  1.6173
   31MOL   H16717027   8.123   2.607   4.774 -1.6234 -0.3749  0.7356
   31MOL   H16817028   7.930   2.714   4.710  1.5654  2.0034 -1.7330
   31MOL   H16917029   7.769   2.903   4.718  0.6697  0.0644  0.5004
   31MOL   O17017030   0.523   2.354   5.198  0.0336 -0.5580 -0.4674
   31MOL   C17117031   0.410   2.355   5.247  0.2154 -0.2852 -0.3767
   31MOL   O17217032   0.294   2.364   5.174  0.2485 -0.7120  0.5688
   31MOL   C17317033   0.393   2.365   5.397  0.7144 -1.5600  0.2554
   31MOL   C17417034   0.483   2.304   5.483  0.2204 -0.3482 -0.2988
   31MOL   C17517035   0.461   2.308   5.624  0.0196  0.1245  0.3939
   31MOL   C17617036   0.553   2.242   5.708 -0.4889 -0.6639 -0.6645
   31MOL   C17717037   0.528   2.239   5.846  1.1325  0.5794  0.1579
   31MOL   C17817038   0.420   2.303   5.902  0.4871  0.3534 -0.5039
   31MOL   C17917039   0.386   2.286   6.042 -0.8693  0.6309  0.0044
   31MOL   O18017040   0.459   2.196   6.110  0.2176 -0.2628  0.4942
   31MOL   C18117041   0.449   2.162   6.251  0.5399 -0.2202  0.1391
   31MOL   C18217042   0.532   2.258   6.336 -0.0744  0.1878  0.7620
   31MOL   O18317043   0.291   2.339   6.101  0.2506  0.3050  0.5164
   31MOL   C18417044   0.330   2.367   5.816  0.0577 -0.1973 -0.4205
   31MOL   C18517045   0.345   2.370   5.677 -0.6874 -0.1830 -0.0157
   31MOL   C18617046   0.253   2.438   5.597 -0.8755  0.4254  0.6577
   31MOL   C18717047   0.276   2.435   5.456 -0.1337  0.0395  0.2105
   31MOL   H18817048   0.572   2.256   5.446  0.4093  1.1383 -1.8188
   31MOL   H18917049   0.640   2.203   5.657 -0.4125  2.0435 -2.7139
   31MOL   H19017050   0.611   2.211   5.909  1.9802 -1.3940 -1.7872
   31MOL   H19117051   0.479   2.063   6.284  1.4692  0.0592  0.1418
   31MOL   H19217052   0.342   2.176   6.268  0.2127 -2.6581  0.2173
   31MOL   H19317053   0.584   2.199   6.411 -0.7316 -0.9438  0.3404
   31MOL   H19417054   0.618   2.300   6.283  0.8606  0.3572  2.3832
   31MOL   H19517055   0.248   2.421   5.862  0.5301 -0.1836  0.4187
   31MOL   H19617056   0.178   2.502   5.639 -0.4808  0.4380  1.3479
   31MOL   H19717057   0.207   2.496   5.399  1.3111  1.4881 -0.0357
   31MOL   O19817058   0.326   2.248   6.529 -0.3853 -0.2626  0.5030
   31MOL   C19917059   0.348   2.352   6.466 -0.0569  0.8179  0.2202
   31MOL   O20017060   0.448   2.364   6.372 -0.2559  0.1121  0.1421
   31MOL   C20117061   0.262   2.471   6.469 -0.0821  0.2668 -0.7046
   31MOL   C20217062   0.270   2.563   6.362 -0.1971  0.4707 -0.2766
   31MOL   C20317063   0.181   2.670   6.367  0.3918  0.0956  0.3398
   31MOL   C20417064   0.187   2.762   6.263 -0.0238 -0.0163 -0.5067
   31MOL   C20517065   0.089   2.865   6.258  0.0454 -0.6936 -0.3763
   31MOL   C20617066   8.239   2.884   6.354 -0.0434 -0.0184  0.6204
   31MOL   C20717067   8.140   2.986   6.338  0.5272  0.3385 -0.2814
   31MOL   O20817068   8.083   3.023   6.447  0.8015 -0.2163 -0.3642
   31MOL   C20917069   7.989   3.131   6.443 -0.1158  0.4289  0.0665
   31MOL   C21017070   7.854   3.071   6.413  0.6888  0.4781  0.5817
   31MOL   O21117071   8.116   3.035   6.223 -0.1475 -0.5299  0.2427
   31MOL   C21217072   8.234   2.787   6.463 -0.5160  0.1599 -0.5957
   31MOL   C21317073   0.090   2.690   6.473 -0.5712 -0.1240  0.9394
   31MOL   C21417074   0.087   2.598   6.578  0.6108 -0.4051  0.5144
   31MOL   C21517075   0.169   2.487   6.579  0.0165  0.0348  0.2522
   31MOL   H21617076   0.349   2.561   6.288  0.6804 -1.3343  0.6807
   31MOL   H21717077   0.264   2.757   6.187 -1.0205 -5.1096 -1.3647
   31MOL   H21817078   0.103   2.929   6.171  1.2004 -1.2546 -0.6174
   31MOL   H21917079   8.009   3.208   6.367  0.1149  0.5712  0.2686
   31MOL   H22017080   7.987   3.173   6.544 -0.3213 -0.1243  0.2916
   31MOL   H22117081   7.854   2.987   6.343 -2.0394  0.5914  0.3861
   31MOL   H22217082   7.830   3.031   6.511  3.6247 -0.8807  0.8067
   31MOL   H22317083   8.161   2.794   6.542  1.1361  0.7245  0.9249
   31MOL   H22417084   0.020   2.611   6.662  0.8878  0.7711  0.5586
   31MOL   H22517085   0.163   2.411   6.655 -0.6284  0.6860  0.8612
   31MOL   O22617086   7.719   3.260   6.566  0.3723  0.6347 -0.1838
   31MOL   C22717087   7.703   3.264   6.441 -0.2925 -0.3247  0.7152
   31MOL   O22817088   7.771   3.172   6.358 -0.6016  0.1418 -0.1612
   31MOL   C22917089   7.607   3.349   6.363 -0.2227 -0.0593 -0.5482
   31MOL   C23017090   7.579   3.309   6.231 -0.0466 -0.2213  0.0743
   31MOL   C23117091   7.500   3.395   6.152  0.3844 -0.0127 -0.3746
   31MOL   C23217092   7.482   3.354   6.013 -0.8274 -0.6347 -0.3826
   31MOL   C23317093   7.404   3.437   5.929 -0.2208 -0.4673  0.8771
   31MOL   C23417094   7.340   3.552   5.989 -0.5537  0.4688 -0.1088
   31MOL   C23517095   7.241   3.626   5.908 -0.3624  0.2981 -0.4073
   31MOL   O23617096   7.237   3.752   5.938 -0.9723  0.4713  0.1997
   31MOL   C23717097   7.154   3.850   5.874 -0.0310 -0.7444 -0.0654
   31MOL   C23817098   7.062   3.904   5.986  0.1672 -0.1529  0.1441
   31MOL   O23917099   7.165   3.578   5.818  0.0199 -0.1413 -0.7308
   31MOL   C24017100   7.358   3.587   6.124  0.0463 -0.4057 -0.2852
   31MOL   C24117101   7.436   3.512   6.211 -0.6257  0.6899 -0.3472
   31MOL   C24217102   7.459   3.538   6.347 -0.2248  0.0513  0.2104
   31MOL   C24317103   7.544   3.456   6.425 -0.8485 -0.4150  0.3573
   31MOL   H24417104   7.623   3.220   6.189  1.8878  1.1001 -0.8184
   31MOL   H24517105   7.543   3.273   5.976  2.4477  1.2897  0.5442
   31MOL   H24617106   7.385   3.419   5.824 -1.7948  0.9088  0.8980
   31MOL   H24717107   7.088   3.808   5.798  1.2144 -1.0345 -0.9958
   31MOL   H24817108   7.220   3.928   5.837 -0.1486 -0.1003  1.0550
   31MOL   H24917109   6.995   3.976   5.941  0.3748 -0.2672 -0.3558
   31MOL   H25017110   6.991   3.836   6.032  0.4782 -0.2123  0.5470
   31MOL   H25117111   7.307   3.677   6.155 -1.5600 -1.0418 -1.0296
   31MOL   H25217112   7.412   3.624   6.391 -2.4241 -0.7388 -0.5411
   31MOL   H25317113   7.571   3.477   6.527  0.6639 -1.9050  0.2725
   31MOL   O25417114   7.196   4.161   5.997 -0.3377  0.0112  0.1547
   31MOL   C25517115   7.213   4.077   6.083  0.0065  0.0311  0.0784
   31MOL   O25617116   7.146   3.956   6.094 -0.2991  0.0339  0.0395
   31MOL   C25717117   7.299   4.098   6.200 -0.2760 -0.1788  0.1610
   31MOL   C25817118   7.312   4.227   6.252 -0.0901  0.3784  0.8020
   31MOL   C25917119   7.381   4.253   6.364  0.6081 -0.5813 -0.2080
   31MOL   C26017120   7.378   4.382   6.416  0.0646  0.3616  0.2647
   31MOL   C26117121   7.440   4.400   6.541  0.0598 -0.3940  0.4114
   31MOL   C26217122   7.501   4.300   6.614  0.1301 -0.2485  0.3726
   31MOL   C26317123   7.570   4.334   6.740  0.0566  0.6983  0.5244
   31MOL   O26417124   7.609   4.234   6.809 -0.0424  0.1107  0.0644
   31MOL   C26517125   7.631   4.246   6.945 -0.9114  0.2219  0.1008
   31MOL   C26617126   7.594   4.120   7.014  0.0272  0.0580 -0.3430
   31MOL   O26717127   7.595   4.444   6.769  0.7077 -0.9415 -0.4837
   31MOL   C26817128   7.506   4.176   6.558 -0.3691  0.0921 -0.2907
   31MOL   C26917129   7.436   4.147   6.439 -0.3739  0.4699 -0.0767
   31MOL   C27017130   7.424   4.015   6.390 -0.7117  0.1298  0.3856
   31MOL   C27117131   7.357   3.995   6.268  0.2553  0.0204  0.2091
   31MOL   H27217132   7.263   4.310   6.203 -1.1230  0.1907  1.5237
   31MOL   H27317133   7.332   4.461   6.358  0.6776  0.1041 -0.5866
   31MOL   H27417134   7.434   4.496   6.591 -2.3921 -0.8263  1.0330
   31MOL   H27517135   7.581   4.333   6.988 -0.7696 -0.7189  2.2539
   31MOL   H27617136   7.732   4.268   6.979 -1.4775  0.5865  1.5935
   31MOL   H27717137   7.540   4.139   7.107  0.5497  1.1941 -0.2645
   31MOL   H27817138   7.528   4.055   6.957 -0.8071  0.4770  0.1456
   31MOL   H27917139   7.558   4.096   6.609 -1.4494  0.3156  1.1714
   31MOL   H28017140   7.467   3.925   6.432 -0.8433 -0.0700  0.0937
   31MOL   H28117141   7.347   3.895   6.230  1.8460  0.5726 -1.7863
   31MOL   O28217142   7.718   3.957   6.836 -0.1433 -0.9397 -0.1003
   31MOL   C28317143   7.762   3.966   6.951  0.0385 -0.3952 -0.3880
   31MOL   O28417144   7.706   4.043   7.048 -0.0940  0.1245  0.3638
   31MOL   C28517145   7.881   3.890   6.995 -0.3842  0.2949 -0.5648
   31MOL   C28617146   7.918   3.879   7.134  0.3021 -0.3077 -0.1660
   31MOL   C28717147   8.022   3.790   7.163  0.1865  0.3807 -0.5341
   31MOL   C28817148   8.057   3.777   7.299  0.1631 -0.3640  0.6715
   31MOL   C28917149   8.161   3.688   7.333  0.1523  0.2616 -0.2095
   31MOL   C29017150   8.230   3.615   7.236  1.2134  0.2193  0.3118
   31MOL   C29117151   0.079   3.508   7.280  0.3533 -0.3517 -0.4609
   31MOL   O29217152   0.115   3.505   7.414  0.1545  0.1402 -0.0965
   31MOL   C29317153   0.208   3.410   7.467  0.8114 -0.4895  0.2336
   31MOL   C29417154   0.349   3.477   7.460 -0.3929  0.0692  0.2061
   31MOL   O29517155   0.126   3.427   7.203  0.0212  0.0451  0.0164
   31MOL   C29617156   8.207   3.633   7.100 -0.3538 -0.8421  0.0388
   31MOL   C29717157   8.095   3.715   7.067 -0.1565  0.0478  0.5363
   31MOL   C29817158   8.065   3.735   6.933 -0.5715 -0.1959 -0.7093
   31MOL   C29917159   7.960   3.816   6.898 -0.3504 -0.4574 -0.2290
   31MOL   H30017160   7.861   3.925   7.213  0.4237  0.9875 -0.8123
   31MOL   H30117161   8.018   3.832   7.383  1.9023  1.3694  0.3669
   31MOL   H30217162   8.181   3.665   7.437  0.7463  0.5835 -0.2495
   31MOL   H30317163   0.205   3.315   7.414  4.2952  0.0562 -1.0903
   31MOL   H30417164   0.187   3.380   7.569 -1.2138  0.8157  0.2239
   31MOL   H30517165   0.350   3.579   7.499  2.3213  1.1195 -2.4149
   31MOL   H30617166   0.422   3.417   7.513  0.2265 -0.5060 -1.2615
   31MOL   H30717167   0.012   3.578   7.024 -0.0366 -0.1240 -0.2588
   31MOL   H30817168   8.120   3.678   6.860  0.1003 -0.3415 -0.0877
   31MOL   H30917169   7.931   3.825   6.795 -1.0134  0.4719  0.0296
   31MOL   O31017170   0.471   3.301   7.309 -0.0209  0.4967 -0.0037
   31MOL   C31117171   0.439   3.408   7.257 -0.2091  0.6630  0.4211
   31MOL   O31217172   0.380   3.502   7.326 -0.2882 -0.0566  0.5696
   31MOL   C31317173   0.455   3.433   7.111 -0.1403 -0.1859 -0.7347
   31MOL   C31417174   0.383   3.533   7.045  0.2512 -0.3975  0.4796
   31MOL   C31517175   0.411   3.560   6.908 -0.2297 -0.2595 -0.2378
   31MOL   C31617176   0.341   3.665   6.846 -0.1286 -0.5132  0.1324
   31MOL   C31717177   0.382   3.710   6.715  0.1983  0.7643 -0.0682
   31MOL   C31817178   0.477   3.633   6.641  0.2684  0.8647  0.0912
   31MOL   C31917179   0.503   3.668   6.496  0.4146  0.2239  0.6864
   31MOL   O32017180   0.611   3.608   6.455  0.2142  0.3788 -0.1857
   31MOL   C32117181   0.641   3.611   6.314  0.0632 -0.3204  0.2939
   31MOL   C32217182   0.792   3.590   6.281 -0.1196  0.0102  0.0099
   31MOL   O32317183   0.426   3.737   6.427  0.4094 -0.2167 -0.0801
   31MOL   C32417184   0.534   3.519   6.700  0.7361  0.4725 -0.0020
   31MOL   C32517185   0.499   3.482   6.832  0.7416 -0.1450  0.2698
   31MOL   C32617186   0.556   3.366   6.892  0.1122 -0.4345 -0.2138
   31MOL   C32717187   0.537   3.348   7.034  0.2169 -0.0039 -0.0570
   31MOL   H32817188   0.306   3.593   7.091 -0.4674  0.6785 -2.0333
   31MOL   H32917189   0.264   3.718   6.900  0.5238 -1.8890  2.4548
   31MOL   H33017190   0.339   3.797   6.669  0.2391  0.3402 -0.9271
   31MOL   H33117191   0.617   3.706   6.265 -0.1836 -1.0483 -1.0392
   31MOL   H33217192   0.585   3.531   6.265  1.0575 -1.2269  0.6271
   31MOL   H33317193   0.845   3.680   6.313 -0.0089 -1.0280  2.8363
   31MOL   H33417194   0.843   3.511   6.336 -1.0978 -0.0714  0.8061
   31MOL   H33517195   0.587   3.445   6.642  1.3641  0.6665  0.3162
   31MOL   H33617196   0.618   3.296   6.838  0.3870  0.3280 -0.8975
   31MOL   H33717197   0.586   3.263   7.080 -1.4747 -1.9671 -1.7657
   31MOL   O33817198   0.738   3.347   6.131 -0.4876  0.1584  0.1683
   31MOL   C33917199   0.769   3.452   6.078  0.7654  0.5787  0.0149
   31MOL   O34017200   0.800   3.570   6.140  0.0655 -0.3846  0.2482
   31MOL   C34117201   0.785   3.466   5.934  0.3640 -0.4312  0.0678
   31MOL   C34217202   0.846   3.363   5.861  0.0361  0.2772  0.5675
   31MOL   C34317203   0.860   3.375   5.720 -0.5893  0.3222  0.3110
   31MOL   C34417204   0.936   3.280   5.648  0.1339  0.6592  0.6165
   31MOL   C34517205   0.962   3.293   5.510  0.1341  0.7545  0.5092
   31MOL   C34617206   0.917   3.409   5.449  0.5882  0.1306  0.0136
   31MOL   C34717207   0.949   3.438   5.307  0.2089 -0.6977  0.4705
   31MOL   O34817208   1.026   3.339   5.247  0.2126 -0.6790  0.1398
   31MOL   C34917209   1.087   3.348   5.122  0.5272 -0.2847  0.2286
   31MOL   C35017210   1.227   3.377   5.144 -0.1072 -0.4468  0.0483
   31MOL   O35117211   0.921   3.544   5.254  0.1390 -0.4835 -0.0251
   31MOL   C35217212   0.851   3.514   5.525 -0.1338  0.2032  0.4262
   31MOL   C35317213   0.823   3.495   5.655  0.9034 -0.6674 -0.0802
   31MOL   C35417214   0.757   3.602   5.727 -0.4019  0.4197 -0.1176
   31MOL   C35517215   0.744   3.580   5.867 -0.1222 -0.9099  0.6191
   31MOL   H35617216   0.874   3.278   5.921 -0.1070 -0.6524 -0.6686
   31MOL   H35717217   0.962   3.188   5.698 -0.3579 -0.1616 -0.6055
   31MOL   H35817218   1.024   3.227   5.453 -0.4254 -0.0065  0.7799
   31MOL   H35917219   1.058   3.431   5.056  0.6073  0.4861  1.1568
   31MOL   H36017220   1.081   3.250   5.074  0.0996 -0.1452 -0.0152
   31MOL   H36117221   1.275   3.394   5.047  1.2466  1.3721  1.0185
   31MOL   H36217222   1.239   3.465   5.206 -1.2826 -0.3705  0.1825
   31MOL   H36317223   0.820   3.606   5.478  0.4530  1.2737  2.0691
   31MOL   H36417224   0.729   3.695   5.680 -1.0396 -0.0654 -0.7206
   31MOL   H36517225   0.699   3.662   5.921 -0.2317  0.2872 -1.2309
   31MOL   O36617226   1.491   3.320   5.158  0.3919 -0.2840  0.0678
   31MOL   C36717227   1.415   3.241   5.217 -0.2896  0.0215  0.0550
   31MOL   O36817228   1.279   3.266   5.213  0.0239  0.7804 -0.5345
   31MOL   C36917229   1.453   3.117   5.287 -0.0560  0.9257  0.1139
   31MOL   C37017230   1.355   3.033   5.350  0.4610  0.5445 -0.6725
   31MOL   C37117231   1.392   2.905   5.403 -0.0096 -0.1834  0.1404
   31MOL   C37217232   1.296   2.823   5.467 -0.4294  0.1165  0.0237
   31MOL   C37317233   1.330   2.704   5.529 -0.4980  0.2664  0.2361
   31MOL   C37417234   1.463   2.659   5.521 -0.1783 -0.2172 -0.4796
   31MOL   C37517235   1.511   2.532   5.586  0.3014  0.7312  0.0351
   31MOL   O37617236   1.415   2.476   5.665 -0.7273  0.5696  0.1519
   31MOL   C37717237   1.434   2.357   5.738  0.0698 -0.6588 -0.3325
   31MOL   C37817238   1.305   2.283   5.761  0.3080  0.8105 -0.5097
   31MOL   O37917239   1.624   2.492   5.587  0.1910 -0.1898  0.2526
   31MOL   C38017240   1.567   2.744   5.458 -0.5552  0.4246 -0.1779
   31MOL   C38117241   1.529   2.867   5.399 -0.0333 -0.7416  0.6308
   31MOL   C38217242   1.628   2.952   5.337 -0.2226  0.0460  0.1592
   31MOL   C38317243   1.593   3.071   5.274  0.1837 -0.6924  0.2089
   31MOL   H38417244   1.249   3.055   5.358  0.3739  0.8515 -2.4714
   31MOL   H38517245   1.195   2.860   5.474 -0.8419 -0.8462 -0.7680
   31MOL   H38617246   1.252   2.650   5.580  0.0208 -1.0673 -0.3426
   31MOL   H38717247   1.494   2.373   5.827 -0.3226 -0.9564 -0.0154
   31MOL   H38817248   1.491   2.292   5.672 -1.7897 -2.5308 -0.1589
   31MOL   H38917249   1.251   2.283   5.667 -1.3178  3.0548  0.3951
   31MOL   H39017250   1.319   2.183   5.803 -1.1878  1.6438  2.0550
   31MOL   H39117251   1.666   2.703   5.447 -0.8309 -0.9716  2.2050
   31MOL   H39217252   1.732   2.927   5.347 -0.2824 -0.1041  0.4069
   31MOL   H39317253   1.669   3.140   5.241  1.1739 -0.8193  2.1494
   31MOL   O39417254   1.367   2.373   6.032  0.2222  0.4260 -0.3915
   31MOL   C39517255   1.256   2.387   5.974  0.2371 -0.2974 -0.3878
   31MOL   O39617256   1.220   2.357   5.843  0.3690  0.0475 -0.1077
   31MOL   C39717257   1.152   2.468   6.035  0.2253 -0.3532  0.8348
   31MOL   C39817258   1.019   2.434   6.032  0.5406 -0.0843 -0.2589
   31MOL   C39917259   0.919   2.516   6.092 -0.4941  0.0255  0.3332
   31MOL   C40017260   0.786   2.479   6.091 -0.1805  0.4341 -0.3105
   31MOL   C40117261   0.684   2.571   6.136 -0.4791  0.8235  0.1941
   31MOL   C40217262   0.724   2.698   6.182  0.1013  0.4773 -0.0405
   31MOL   C40317263   0.617   2.794   6.222  0.7318 -0.2809  0.0994
   31MOL   O40417264   0.656   2.911   6.278 -0.6283 -0.1377  0.1656
   31MOL   C40517265   0.572   3.008   6.321  0.6383  0.6513  0.1718
   31MOL   C40617266   0.511   3.090   6.200 -0.3313 -0.0490  0.3658
   31MOL   O40717267   0.493   2.772   6.217 -0.4859 -0.1128 -0.7249
   31MOL   C40817268   0.867   2.732   6.189 -0.1676  0.0381  0.5364
   31MOL   C40917269   0.960   2.642   6.138 -0.0078  0.0383 -0.0698
   31MOL   C41017270   1.097   2.684   6.144 -0.1234 -0.3497 -0.0014
   31MOL   C41117271   1.192   2.596   6.084 -0.1418  0.2919 -0.3491
   31MOL   H41217272   0.987   2.340   5.989 -1.0086  1.0527 -1.6741
   31MOL   H41317273   0.763   2.380   6.053 -0.2818 -0.4386  1.9641
   31MOL   H41417274   0.580   2.547   6.124 -0.3261 -0.5220  1.4382
   31MOL   H41517275   0.621   3.077   6.390 -0.2778  1.9187 -0.4318
   31MOL   H41617276   0.501   2.950   6.381  0.5175 -1.2318 -1.7257
   31MOL   H41717277   0.585   3.159   6.160 -0.7251  0.0833 -0.1370
   31MOL   H41817278   0.489   3.021   6.119 -1.3630  0.0258  0.5760
   31MOL   H41917279   0.899   2.827   6.229 -0.0460 -0.5465  1.8464
   31MOL   H42017280   1.122   2.774   6.198  1.4960 -0.2396 -0.8766
   31MOL   H42117281   1.295   2.630   6.084 -0.4362  1.2644  1.5043
   31MOL   O42217282   0.496   3.317   6.332 -0.6556 -0.1848 -0.2663
   31MOL   C42317283   0.392   3.263   6.307 -0.1542  0.7179 -0.1228
   31MOL   O42417284   0.387   3.156   6.232 -0.0431 -0.1713 -0.1642
   31MOL   C42517285   0.255   3.320   6.340  0.0107 -0.0717 -0.1416
   31MOL   C42617286   0.233   3.423   6.439 -0.1827  0.3661 -0.2538
   31MOL   C42717287   0.104   3.481   6.459  0.0317  0.2092  0.2298
   31MOL   C42817288   0.083   3.599   6.536  0.0402  0.1715  0.7056
   31MOL   C42917289   8.206   3.660   6.542  0.2555 -0.5872  1.2082
   31MOL   C43017290   8.096   3.598   6.486  0.2527 -0.3764  0.4418
   31MOL   C43117291   7.961   3.661   6.493 -0.8603  0.6772  0.3198
   31MOL   O43217292   7.952   3.795   6.524 -0.0561  0.3055 -0.2917
   31MOL   C43317293   7.826   3.857   6.518 -0.3098  0.3140  0.7416
   31MOL   C43417294   7.834   3.998   6.445  0.5603 -0.6756  0.4143
   31MOL   O43517295   7.863   3.596   6.458 -0.1478 -0.0155  0.4553
   31MOL   C43617296   8.114   3.500   6.392 -0.6230 -0.0337  0.2291
   31MOL   C43717297   8.242   3.433   6.381 -0.9120 -0.1163 -1.0799
   31MOL   C43817298   0.011   3.327   6.292 -0.6296 -0.6116 -0.6227
   31MOL   C43917299   0.138   3.268   6.271  0.0339 -0.1595 -0.3410
   31MOL   H44017300   0.320   3.452   6.496  0.0979 -0.2228 -0.3737
   31MOL   H44117301   0.167   3.636   6.593  1.0009 -1.4798  0.3813
   31MOL   H44217302   8.188   3.733   6.620 -1.1862  0.0535  0.2803
   31MOL   H44317303   7.791   3.860   6.621 -0.8642 -0.0509  0.5667
   31MOL   H44417304   7.759   3.804   6.450 -0.2979  0.8835  0.2716
   31MOL   H44517305   7.885   4.007   6.349  2.3375 -0.3045  1.3658
   31MOL   H44617306   7.733   4.035   6.428  0.2529 -1.3368  0.7928
   31MOL   H44717307   8.022   3.466   6.347 -1.0758  0.9862  0.3773
   31MOL   H44817308   8.176   3.294   6.233 -0.3202  0.5129 -1.7105
   31MOL   H44917309   0.145   3.182   6.206  1.7380 -0.6182  0.4211
   31MOL   O45017310   7.795   4.270   6.470 -0.0826  0.0678 -0.3904
   31MOL   C45117311   7.869   4.214   6.547  0.2185  0.0779  0.5919
   31MOL   O45217312   7.900   4.084   6.534  0.5188  0.5856 -0.3089
   31MOL   C45317313   7.928   4.281   6.664  0.3583  0.3166  0.4957
   31MOL   C45417314   7.984   4.199   6.762  0.5641 -0.7402  0.3694
   31MOL   C45517315   8.041   4.257   6.879 -0.3882 -0.5148 -0.8706
   31MOL   C45617316   8.120   4.180   6.968  0.5182 -0.1463 -0.2460
   31MOL   C45717317   8.180   4.235   7.079  0.1437  0.1253  0.1984
   31MOL   C45817318   8.163   4.372   7.106 -0.2557  0.0976  0.4643
   31MOL   C45917319   8.197   4.432   7.236 -0.5527  0.1848 -0.2109
   31MOL   O46017320   8.171   4.572   7.248  0.3926 -0.4569 -0.0855
   31MOL   C46117321   8.241   4.645   7.343  0.0978 -0.4368 -0.4044
   31MOL   C46217322   0.125   4.694   7.292 -0.1393 -0.5054  0.9734
   31MOL   O46317323   0.009   4.372   7.323 -0.1170  0.0376  0.2972
   31MOL   C46417324   8.094   4.452   7.010 -0.1458  0.1321  0.6034
   31MOL   C46517325   8.035   4.394   6.898 -0.4848 -0.3928  0.1998
   31MOL   C46617326   7.969   4.474   6.806 -0.4202 -0.4215  0.3801
   31MOL   C46717327   7.921   4.422   6.682 -0.1059 -0.0275 -0.9090
   31MOL   H46817328   7.981   4.091   6.757 -1.7877 -0.9286  4.0531
   31MOL   H46917329   8.132   4.074   6.947  1.0349  0.2981 -2.3252
   31MOL   H47017330   8.226   4.165   7.147 -1.6218  0.1415  1.4291
   31MOL   H47117331   0.002   4.587   7.435  0.2139  1.0142  0.5228
   31MOL   H47217332   8.180   4.731   7.371  0.0352 -0.8303  0.6840
   31MOL   H47317333   0.196   4.662   7.368  0.9403 -1.6771 -0.4744
   31MOL   H47417334   0.159   4.635   7.206  1.3065  0.3178  0.9526
   31MOL   H47517335   8.070   4.555   7.033  0.5428  0.4385 -0.0283
   31MOL   H47617336   7.958   4.579   6.828  2.5292 -0.0231  0.2323
   31MOL   H47717337   7.868   4.490   6.617 -0.4484  2.0332  1.4352
   31MOL   O47817338   0.093   4.815   7.053  0.2312 -0.2819  0.1140
   31MOL   C47917339   0.123   4.882   7.152 -0.6849  0.8702 -0.0792
   31MOL   O48017340   0.155   4.826   7.273 -0.3764 -0.1631  0.4782
   31MOL   C48117341   0.144   5.031   7.145 -0.0114  0.5457 -0.7805
   31MOL   C48217342   0.177   5.103   7.264 -0.5959 -0.0367  0.1907
   31MOL   C48317343   0.199   5.241   7.258  0.0552  0.8489  0.4501
   31MOL   C48417344   0.217   5.323   7.370  0.2889  0.0662 -0.1758
   31MOL   C48517345   0.221   5.464   7.354  0.3221  0.6704 -0.2080
   31MOL   C48617346   0.218   5.526   7.228  0.0242  0.1240 -0.2047
   31MOL   C48717347   0.226   5.677   7.228 -0.6966  0.3240  0.6171
   31MOL   O48817348   0.225   5.732   7.109  0.0324  0.3266 -0.1954
   31MOL   C48917349   0.220   5.877   7.091  0.6692 -0.0306  0.1210
   31MOL   C49017350   0.206   5.895   6.942 -0.2253  0.0237  0.7690
   31MOL   O49117351   0.227   5.747   7.333 -0.1407  0.3510 -0.3656
   31MOL   C49217352   0.210   5.444   7.117 -0.3997  0.3886 -0.7050
   31MOL   C49317353   0.186   5.308   7.133  0.4254 -0.0119 -0.2630
   31MOL   C49417354   0.149   5.236   7.017  0.3458 -0.3542  0.0208
   31MOL   C49517355   0.140   5.100   7.020 -0.4166  0.5919  0.0604
   31MOL   H49617356   0.185   5.049   7.357 -0.6756  1.0896  0.8495
   31MOL   H49717357   0.210   5.284   7.470 -0.5004  0.3875 -0.1024
   31MOL   H49817358   0.232   5.515   7.449 -0.7611 -1.1376  0.9147
   31MOL   H49917359   0.308   5.924   7.134  2.9870 -4.0281  0.0039
   31MOL   H50017360   0.134   5.918   7.144  2.0095  2.6164  0.2953
   31MOL   H50117361   0.222   5.996   6.906 -0.4264 -0.2249 -0.0299
   31MOL   H50217362   0.289   5.838   6.900  0.8682  1.8995  0.3557
   31MOL   H50317363   0.210   5.490   7.019  1.0166  0.8617 -0.4948
   31MOL   H50417364   0.135   5.291   6.925  0.4108 -2.3580 -1.2195
   31MOL   H50517365   0.109   5.050   6.930 -0.2099  1.2497 -0.3775
   31MOL   O50617366   8.208   6.003   7.000 -0.5543  0.9223 -0.5137
   31MOL   C50717367   8.218   5.916   6.912 -0.3843  0.3762  0.3252
   31MOL   O50817368   0.079   5.843   6.887 -0.2183  0.6566 -0.1653
   31MOL   C50917369   8.111   5.893   6.811 -0.0833  0.3770  0.7046
   31MOL   C51017370   8.150   5.834   6.689 -0.5598  0.7748  0.9508
   31MOL   C51117371   8.056   5.826   6.584  0.0123  0.1158 -0.0780
   31MOL   C51217372   8.095   5.776   6.458 -0.1244  0.2884  0.3841
   31MOL   C51317373   7.995   5.759   6.354 -0.0741  0.8744  0.3005
   31MOL   C51417374   7.868   5.820   6.371 -0.5822 -0.8075  0.2349
   31MOL   C51517375   7.776   5.819   6.264  0.7057 -0.4430 -0.5193
   31MOL   O51617376   7.688   5.909   6.284  0.1034 -0.7090 -0.2346
   31MOL   C51717377   7.599   5.949   6.190 -0.4015  0.1273  0.6188
   31MOL   C51817378   7.480   5.850   6.186  0.5695 -0.0899  0.2372
   31MOL   O51917379   7.784   5.747   6.166  0.4553 -0.1846  0.0021
   31MOL   C52017380   7.833   5.873   6.496  0.2054 -0.0459 -0.5046
   31MOL   C52117381   7.925   5.881   6.600 -0.6717  0.2587 -0.6784
   31MOL   C52217382   7.885   5.939   6.729  0.2729 -0.0784 -0.3747
   31MOL   C52317383   7.980   5.933   6.832 -0.5625  0.2535 -0.2260
   31MOL   H52417384   0.001   5.798   6.670 -0.6831  0.7026  0.4476
   31MOL   H52517385   8.198   5.754   6.436  0.2490  1.6898  0.6349
   31MOL   H52617386   8.026   5.708   6.264  0.2869  1.0059  0.3518
   31MOL   H52717387   7.643   5.959   6.091 -0.5351  1.0013  0.6483
   31MOL   H52817388   7.569   6.047   6.226  0.1786  1.3053 -1.9423
   31MOL   H52917389   7.486   5.772   6.262  0.4953 -1.2936 -0.9712
   31MOL   H53017390   7.390   5.912   6.197  0.5400 -0.3939  1.8255
   31MOL   H53117391   7.738   5.920   6.516  0.5852  0.7189 -0.5042
   31MOL   H53217392   7.787   5.979   6.749  0.7908  1.7476 -1.4032
   31MOL   H53317393   7.969   5.963   6.935  0.1367  1.7149 -0.5744
   31MOL   O53417394   7.396   5.965   5.959 -0.4272 -0.1732 -0.0222
   31MOL   C53517395   7.428   5.850   5.950 -0.3437 -0.2592  0.1102
   31MOL   O53617396   7.474   5.784   6.060 -0.3994 -0.1979 -0.3484
   31MOL   C53717397   7.431   5.775   5.829  0.9181  0.4548 -0.1921
   31MOL   C53817398   7.460   5.635   5.832  0.1061 -0.3365  0.0336
   31MOL   C53917399   7.442   5.557   5.719 -1.0878  0.1654 -0.3198
   31MOL   C54017400   7.447   5.417   5.729  0.2883 -0.0722 -0.7517
   31MOL   C54117401   7.421   5.338   5.613 -0.4040 -0.3042  0.2727
   31MOL   C54217402   7.391   5.399   5.488 -0.6655 -0.1275 -0.3161
   31MOL   C54317403   7.357   5.322   5.365  0.4567 -0.4108 -0.7857
   31MOL   O54417404   7.392   5.190   5.370  0.3271 -0.7941 -0.4849
   31MOL   C54517405   7.376   5.111   5.255  0.1795  0.8019  0.5567
   31MOL   C54617406   7.420   4.975   5.302 -0.6709 -0.0084 -0.1281
   31MOL   O54717407   7.304   5.376   5.268 -0.1914  0.1992  0.0843
   31MOL   C54817408   7.385   5.536   5.485 -0.3311  0.7525  0.2323
   31MOL   C54917409   7.407   5.617   5.596  0.0285 -0.3498  0.5153
   31MOL   C55017410   7.380   5.756   5.587  0.4313 -0.1649  0.3380
   31MOL   C55117411   7.391   5.833   5.708  0.4765 -0.3052 -0.0629
   31MOL   H55217412   7.468   5.579   5.924  0.7871 -1.6588 -0.8160
   31MOL   H55317413   7.471   5.367   5.822 -1.1831  0.6560  0.0384
   31MOL   H55417414   7.426   5.230   5.615  0.1470 -0.2765  0.5254
   31MOL   H55517415   7.452   5.154   5.191  0.9408 -1.1062  0.1366
   31MOL   H55617416   7.271   5.099   5.227  0.1601 -0.4705  1.1279
   31MOL   H55717417   7.355   4.934   5.380 -1.3876  2.1311  0.4538
   31MOL   H55817418   7.526   4.976   5.327 -1.1950  0.4317  2.1870
   31MOL   H55917419   7.354   5.583   5.393  1.6788  0.8255 -0.4414
   31MOL   H56017420   7.350   5.812   5.499  0.1291  1.4937  1.4732
   31MOL   H56117421   7.352   5.933   5.698  0.4322 -0.5624 -2.6783
   31MOL   H56217422   7.408   4.908   5.218  0.4732 -0.0768 -0.2305
   32MOL     O117423   2.529   5.028   5.245  0.2833 -0.0849  0.3054
   32MOL     C217424   2.436   4.963   5.206  0.2244  0.1170 -0.7208
   32MOL     O317425   2.432   4.913   5.079  0.0082 -0.5641 -0.7214
   32MOL     C417426   2.308   4.944   5.283  0.8125 -0.1648 -0.3042
   32MOL     C517427   2.306   4.989   5.415  0.3481 -0.5818 -0.7221
   32MOL     C617428   2.195   4.975   5.503 -0.3375 -0.7067  0.5107
   32MOL     C717429   2.194   5.035   5.626 -0.4897 -0.5965  0.5896
   32MOL     C817430   2.076   5.039   5.704  0.4277  0.5291  0.3299
   32MOL     C917431   1.959   4.976   5.659  0.5778 -0.4869  0.7378
   32MOL    C1017432   1.840   4.965   5.741  0.7055 -0.3022 -0.1482
   32MOL    O1117433   1.758   4.860   5.703 -0.0303 -0.0663  0.0228
   32MOL    C1217434   1.653   4.817   5.783  0.4056  0.1258  0.1581
   32MOL    C1317435   1.712   4.724   5.890 -0.0101 -0.3834  0.2984
   32MOL    O1417436   1.809   5.041   5.830 -0.2422 -0.2958  0.6209
   32MOL    C1517437   1.962   4.915   5.528  0.0367 -0.3480  0.3165
   32MOL    C1617438   2.077   4.916   5.452  0.3839 -1.0695  0.3873
   32MOL    C1717439   2.075   4.878   5.314 -0.6386 -0.4588  0.7236
   32MOL    C1817440   2.190   4.882   5.231  0.1708  0.4154  0.3343
   32MOL    H1917441   2.387   5.048   5.457 -0.8987  0.5458  0.1288
   32MOL    H2017442   2.286   5.076   5.667 -1.1567  0.2488  1.2697
   32MOL    H2117443   2.073   5.087   5.801  0.8148 -1.1992  1.2215
   32MOL    H2217444   1.600   4.900   5.829 -0.1418  1.0497 -2.0952
   32MOL    H2317445   1.579   4.767   5.721  0.9192 -2.2549  1.4007
   32MOL    H2417446   1.728   4.623   5.852  1.5435 -0.6381  1.5746
   32MOL    H2517447   1.802   4.777   5.920 -0.9837  0.8563  1.0871
   32MOL    H2617448   1.876   4.871   5.478 -0.3530  0.5288  0.2038
   32MOL    H2717449   1.983   4.847   5.268  0.3551 -0.0543 -1.5904
   32MOL    H2817450   2.186   4.842   5.131  1.3395  3.7683 -1.1241
   32MOL    H2917451   2.509   4.947   5.037 -0.5755 -2.3616 -3.3629
   32MOL    O3017452   1.654   4.931   6.073  0.4484 -0.2204 -0.2142
   32MOL    C3117453   1.618   4.817   6.101  0.6010 -0.0936 -0.4745
   32MOL    O3217454   1.629   4.710   6.005 -0.2069  0.1460  0.5163
   32MOL    C3317455   1.537   4.786   6.224  0.1663 -0.9472  0.3727
   32MOL    C3417456   1.509   4.890   6.315 -0.8057  0.3099 -0.5347
   32MOL    C3517457   1.429   4.860   6.431 -0.8738 -0.0034  0.1153
   32MOL    C3617458   1.381   4.963   6.513 -0.1319 -0.4241 -0.4889
   32MOL    C3717459   1.309   4.925   6.631 -0.0695 -0.1967  0.6002
   32MOL    C3817460   1.273   4.792   6.658  0.1242 -0.0272 -0.1277
   32MOL    C3917461   1.158   4.749   6.751  1.2044 -0.7100  0.5322
   32MOL    O4017462   1.111   4.858   6.805  0.1103 -0.0706  0.2174
   32MOL    C4117463   0.986   4.853   6.878  0.2847 -0.7728 -0.2521
   32MOL    C4217464   0.880   4.862   6.770  0.2263 -0.2040  0.0061
   32MOL    O4317465   1.112   4.636   6.760  0.1467 -0.4117  0.5872
   32MOL    C4417466   1.310   4.691   6.569 -0.3459 -0.1332  0.1897
   32MOL    C4517467   1.390   4.724   6.458  0.1650 -0.5514 -0.5554
   32MOL    C4617468   1.418   4.622   6.368  0.5626 -0.1941 -0.2226
   32MOL    C4717469   1.496   4.654   6.256  0.4640 -0.2722  0.1538
   32MOL    H4817470   1.537   4.990   6.286  0.4165 -0.4889 -2.2015
   32MOL    H4917471   1.419   5.063   6.497  0.6202 -0.1746  2.5766
   32MOL    H5017472   1.270   5.003   6.695 -0.4223 -0.4913  0.7390
   32MOL    H5117473   0.982   4.921   6.963  0.1240 -2.5085  1.1577
   32MOL    H5217474   0.987   4.754   6.925  2.6515 -0.6717 -0.0092
   32MOL    H5317475   0.912   4.799   6.687  0.4008  0.0641 -0.1307
   32MOL    H5417476   0.783   4.824   6.801 -0.5632 -0.2931 -2.4668
   32MOL    H5517477   1.260   4.596   6.573 -0.3576 -0.2576 -2.0506
   32MOL    H5617478   1.397   4.519   6.392  1.1324 -0.4812 -0.9558
   32MOL    H5717479   1.525   4.575   6.188 -0.9863 -0.0035 -0.8005
   32MOL    O5817480   0.700   5.036   6.867  0.1205  0.1365  0.2181
   32MOL    C5917481   0.770   5.080   6.783 -0.0675  0.0425  0.2727
   32MOL    O6017482   0.864   4.997   6.728 -0.7260  0.3333 -0.0497
   32MOL    C6117483   0.777   5.218   6.731 -0.2587  0.7025 -0.0540
   32MOL    C6217484   0.897   5.297   6.747  0.3532  0.2788 -0.3792
   32MOL    C6317485   0.913   5.413   6.676  0.4135  0.3360  0.4617
   32MOL    C6417486   1.035   5.490   6.679 -0.4085 -0.2205 -0.4792
   32MOL    C6517487   1.032   5.622   6.634 -0.6408 -0.2381 -0.3528
   32MOL    C6617488   0.917   5.680   6.581 -0.5743  0.2896 -0.3290
   32MOL    C6717489   0.915   5.823   6.542  0.1763  0.2865 -0.5696
   32MOL    O6817490   1.033   5.869   6.557 -0.2760 -0.0604 -0.0620
   32MOL    C6917491   1.082   5.988   6.492  0.8811  0.2372 -0.0011
   32MOL    C7017492   1.201   6.042   6.576  0.1619  0.1932 -0.2605
   32MOL    O7117493   0.818   5.883   6.493 -0.1346  0.5698 -0.1709
   32MOL    C7217494   0.803   5.600   6.568 -0.5229 -0.6397  0.0108
   32MOL    C7317495   0.800   5.469   6.616  0.1321 -0.2692 -0.1013
   32MOL    C7417496   0.679   5.401   6.608  0.2581 -0.5768  0.7936
   32MOL    C7517497   0.669   5.272   6.662  0.5005 -0.5350 -0.1683
   32MOL    H7617498   0.978   5.261   6.809  0.4699 -0.5766 -1.0115
   32MOL    H7717499   1.129   5.456   6.719 -0.3738  1.9875  1.3986
   32MOL    H7817500   1.122   5.676   6.659 -1.5007  0.6681  0.8038
   32MOL    H7917501   1.001   6.060   6.489  2.1573  1.6486 -3.2794
   32MOL    H8017502   1.104   5.976   6.386  0.6683  0.2418 -0.0465
   32MOL    H8117503   1.282   5.970   6.566 -1.2570 -1.4739 -0.0487
   32MOL    H8217504   1.233   6.140   6.541  0.6000  0.5457  1.1105
   32MOL    H8317505   0.715   5.648   6.527  0.4633  1.5049  0.3278
   32MOL    H8417506   0.594   5.445   6.559 -1.4731 -0.3086  3.9154
   32MOL    H8517507   0.572   5.225   6.666 -0.9368  2.3492  0.3239
   32MOL    O8617508   1.069   6.261   6.656  0.0078 -0.1849  0.2291
   32MOL    C8717509   1.098   6.173   6.740  0.5121  0.3990 -0.0381
   32MOL    O8817510   1.169   6.060   6.714 -0.3772 -0.1074 -0.1870
   32MOL    C8917511   1.054   6.190   6.885 -0.0381  0.1327 -0.3281
   32MOL    C9017512   1.104   6.112   6.991 -0.2374 -0.6015  0.5716
   32MOL    C9117513   1.073   6.128   7.125 -0.4859 -0.0718 -0.4644
   32MOL    C9217514   1.114   6.040   7.232  0.4705  0.3323 -0.5360
   32MOL    C9317515   1.088   6.081   7.368  0.2882  0.0848 -0.0369
   32MOL    C9417516   1.025   6.205   7.395  0.0830 -0.7406  0.0976
   32MOL    C9517517   1.012   6.254   7.532  0.2879  0.3101  0.2752
   32MOL    O9617518   1.008   6.391   7.541 -0.3613 -0.1561  0.4493
   32MOL    C9717519   1.026   6.463   7.655  0.7433 -0.3727 -0.1900
   32MOL    C9817520   1.168   6.443   7.715 -0.2606 -0.4700  0.0281
   32MOL    O9917521   1.006   6.185   7.642 -0.0906 -0.1136  0.3519
   32MOL   C10017522   0.980   6.285   7.289  0.6014 -0.1649 -0.0037
   32MOL   C10117523   0.997   6.242   7.157 -0.0826 -0.5914  0.2982
   32MOL   C10217524   0.940   6.319   7.054 -0.1194 -0.4913 -0.0439
   32MOL   C10317525   0.964   6.288   6.917 -0.3990 -0.4812  0.3546
   32MOL   H10417526   1.178   6.041   6.957  0.7553  1.2882 -1.3856
   32MOL   H10517527   1.164   5.947   7.210 -0.1888 -0.2809  0.5081
   32MOL   H10617528   1.112   6.013   7.449  2.0681 -0.3169 -0.8698
   32MOL   H10717529   0.952   6.431   7.728 -1.4443  2.1737 -1.2114
   32MOL   H10817530   1.012   6.570   7.638  0.8782 -0.2728  0.3169
   32MOL   H10917531   1.178   6.488   7.813  1.0873 -0.7836  0.0444
   32MOL   H11017532   1.187   6.340   7.746  3.3907  0.1494 -0.0007
   32MOL   H11117533   0.918   6.367   7.324  0.7137  2.1832 -4.9583
   32MOL   H11217534   0.880   6.405   7.077  0.3014  0.1111 -1.1468
   32MOL   H11317535   0.916   6.339   6.834 -1.1463  1.6574  2.0728
   32MOL   O11417536   1.354   6.314   7.560  0.3288  0.1503  0.2195
   32MOL   C11517537   1.327   6.427   7.539 -0.5647 -0.0204  0.0666
   32MOL   O11617538   1.265   6.505   7.624  0.4792  0.3683 -0.0968
   32MOL   C11717539   1.377   6.509   7.425  0.3285 -0.2861  0.4012
   32MOL   C11817540   1.358   6.466   7.289  0.0367  0.5232  0.1325
   32MOL   C11917541   1.394   6.553   7.179 -0.0934  0.0700 -0.2922
   32MOL   C12017542   1.380   6.520   7.042 -0.2296 -0.3117 -0.5483
   32MOL   C12117543   1.411   6.610   6.938 -0.0962 -0.5550  0.6726
   32MOL   C12217544   1.460   6.739   6.973  0.0961  0.1224 -0.1216
   32MOL   C12317545   1.489   6.844   6.869  0.3325 -0.5089  0.1803
   32MOL   O12417546   1.478   6.803   6.739 -0.7649 -0.0480 -0.4894
   32MOL   C12517547   1.508   6.893   6.628  0.5214  0.6693  0.4069
   32MOL   C12617548   1.656   6.901   6.599  0.5113  0.0192  0.9038
   32MOL   O12717549   1.528   6.958   6.910 -0.6337  0.1802  0.7627
   32MOL   C12817550   1.473   6.775   7.108 -0.9848  0.1528  0.2695
   32MOL   C12917551   1.439   6.683   7.207  0.3892 -0.5446  0.0406
   32MOL   C13017552   1.461   6.726   7.334  0.5686 -0.3503  0.1950
   32MOL   C13117553   1.437   6.636   7.441  0.2092 -0.1728 -0.3320
   32MOL   H13217554   1.320   6.368   7.265  0.4175  0.4064 -0.0012
   32MOL   H13317555   1.336   6.425   7.017  0.0187 -1.4286  3.0345
   32MOL   H13417556   1.392   6.570   6.840 -0.3829 -0.8956  0.8638
   32MOL   H13517557   1.466   6.991   6.650  1.7011  1.6663 -1.6636
   32MOL   H13617558   1.463   6.861   6.534  0.4433 -2.0439  1.3105
   32MOL   H13717559   1.682   7.004   6.572 -0.3740  0.3980  1.4873
   32MOL   H13817560   1.715   6.868   6.685  0.6401 -2.2835 -0.0441
   32MOL   H13917561   1.497   6.877   7.132  2.3637 -0.4097 -0.4623
   32MOL   H14017562   1.509   6.820   7.355 -0.5384  0.2552  0.0583
   32MOL   H14117563   1.454   6.673   7.541  1.7880 -0.9741 -0.2911
   32MOL   O14217564   1.694   6.630   6.611 -0.5874 -0.2614 -0.3341
   32MOL   C14317565   1.723   6.690   6.507 -0.8353 -0.1205 -0.0574
   32MOL   O14417566   1.711   6.822   6.493  0.2585 -0.0127 -0.3677
   32MOL   C14517567   1.795   6.631   6.392  0.2131  0.1650  0.1837
   32MOL   C14617568   1.857   6.506   6.425  0.3790  0.0051  0.1866
   32MOL   C14717569   1.932   6.443   6.321  0.1101 -0.1855  0.1457
   32MOL   C14817570   2.008   6.322   6.344  0.7488  0.0032  0.4502
   32MOL   C14917571   2.086   6.265   6.240  0.2573 -0.8622  0.1802
   32MOL   C15017572   2.100   6.328   6.114  0.0309  0.5335 -0.3104
   32MOL   C15117573   2.191   6.272   6.007  0.2430 -0.8487  0.7645
   32MOL   O15217574   2.261   6.170   6.045  0.0916 -0.3338  0.0461
   32MOL   C15317575   2.357   6.119   5.953  0.4277  0.2067  0.1856
   32MOL   C15417576   2.302   5.995   5.886 -0.5049 -0.0541  0.0046
   32MOL   O15517577   2.189   6.318   5.891 -0.2100 -0.1098  0.5432
   32MOL   C15617578   2.027   6.445   6.098  1.0316  0.4405  0.4173
   32MOL   C15717579   1.944   6.506   6.192 -0.1187 -0.2038  0.0120
   32MOL   C15817580   1.864   6.617   6.159  0.5356 -0.5067 -0.2717
   32MOL   C15917581   1.793   6.686   6.264  0.0592  0.0677  0.2690
   32MOL   H16017582   1.848   6.455   6.520 -0.1048 -1.2043 -0.4876
   32MOL   H16117583   2.002   6.272   6.440  2.1344  2.3438  1.8031
   32MOL   H16217584   2.149   6.179   6.256  3.3562  1.5158  1.1613
   32MOL   H16317585   2.453   6.093   5.999 -0.4028 -2.9245  0.2307
   32MOL   H16417586   2.396   6.191   5.880  0.7279 -2.1482 -2.0230
   32MOL   H16517587   2.276   6.004   5.781 -0.6629 -2.5889 -0.1998
   32MOL   H16617588   2.386   5.925   5.887  0.6158  1.2780  1.9265
   32MOL   H16717589   2.039   6.502   6.006 -1.6202  1.6661  0.7970
   32MOL   H16817590   1.882   6.663   6.063  2.6895 -1.2491 -0.2507
   32MOL   H16917591   1.745   6.781   6.244  0.4399  0.2076  0.0214
   32MOL   O17017592   2.305   5.821   6.108  0.1204 -0.0021  0.3115
   32MOL   C17117593   2.202   5.868   6.064 -0.1904 -0.1688  0.0639
   32MOL   O17217594   2.193   5.942   5.951  0.8020  0.0387 -0.3710
   32MOL   C17317595   2.075   5.845   6.123  0.4983 -0.3031  0.7579
   32MOL   C17417596   1.970   5.941   6.114  1.0085 -0.0887  0.4079
   32MOL   C17517597   1.845   5.923   6.180  0.0415 -0.2993 -0.2494
   32MOL   C17617598   1.747   6.026   6.164  0.1595  0.4691  0.5490
   32MOL   C17717599   1.623   6.011   6.229  0.1771  0.9801 -0.0303
   32MOL   C17817600   1.596   5.901   6.311 -0.6133 -0.7608 -0.0243
   32MOL   C17917601   1.457   5.868   6.365 -0.2458  0.6526 -0.4696
   32MOL   O18017602   1.452   5.744   6.423 -0.6209  0.0946 -0.3734
   32MOL   C18117603   1.326   5.700   6.486 -0.2530  0.1539 -0.2438
   32MOL   C18217604   1.348   5.549   6.518  0.1640  0.0290  0.4896
   32MOL   O18317605   1.358   5.934   6.334 -0.5387 -0.2499 -0.3682
   32MOL   C18417606   1.700   5.806   6.329 -0.4616  0.1624 -0.4957
   32MOL   C18517607   1.823   5.814   6.262  0.2437  0.1887  0.4252
   32MOL   C18617608   1.928   5.714   6.279  0.6014 -0.2641  0.2864
   32MOL   C18717609   2.042   5.728   6.198 -0.9287 -0.1627 -0.0346
   32MOL   H18817610   1.995   6.036   6.069  1.4120 -0.7715 -0.8547
   32MOL   H18917611   1.771   6.111   6.103 -0.2291  0.5286  0.4788
   32MOL   H19017612   1.540   6.076   6.207  0.3856  1.2487 -0.0295
   32MOL   H19117613   1.234   5.707   6.428  0.0984 -3.3568 -1.2964
   32MOL   H19217614   1.308   5.760   6.576 -2.7389  1.7590 -1.7326
   32MOL   H19317615   1.454   5.527   6.532 -0.3172 -1.1227  2.4321
   32MOL   H19417616   1.300   5.519   6.611  0.2350  1.7052  1.0754
   32MOL   H19517617   1.698   5.722   6.397 -0.4398  0.7103  0.1903
   32MOL   H19617618   1.908   5.625   6.336  1.1076  0.1465  1.1188
   32MOL   H19717619   2.113   5.647   6.207 -2.1165 -1.6694 -3.2396
   32MOL   O19817620   1.250   5.294   6.554  0.5982  0.1376  0.2791
   32MOL   C19917621   1.236   5.346   6.443 -0.0382  0.3509 -0.3654
   32MOL   O20017622   1.291   5.470   6.412 -0.0878  0.2521 -0.1388
   32MOL   C20117623   1.153   5.288   6.340 -0.4230  0.5458  0.3758
   32MOL   C20217624   1.094   5.363   6.236 -0.5499 -0.3772  0.3455
   32MOL   C20317625   1.020   5.301   6.132 -0.0424 -0.0751 -0.2646
   32MOL   C20417626   0.978   5.387   6.028 -0.7708 -0.0796 -0.1984
   32MOL   C20517627   0.906   5.337   5.920 -0.1303  0.2635  0.3585
   32MOL   C20617628   0.876   5.198   5.920 -0.2481  0.3710 -0.0973
   32MOL   C20717629   0.792   5.140   5.808 -0.2204  0.2552  0.1896
   32MOL   O20817630   0.752   5.233   5.716  0.2055  0.6506 -0.3329
   32MOL   C20917631   0.638   5.200   5.644  0.3456 -0.3372  0.0890
   32MOL   C21017632   0.508   5.229   5.729 -0.3247  0.0295 -0.0598
   32MOL   O21117633   0.791   5.022   5.786  0.0648 -0.2906  0.0081
   32MOL   C21217634   0.918   5.113   6.028 -0.0870 -0.5198 -0.1578
   32MOL   C21317635   0.992   5.162   6.133  0.6897 -1.2227 -0.3244
   32MOL   C21417636   1.041   5.088   6.239  0.2504  0.1240  0.0249
   32MOL   C21517637   1.117   5.151   6.337 -0.3766  0.0257 -0.6032
   32MOL   H21617638   1.120   5.468   6.228 -0.2339 -0.4445  0.4915
   32MOL   H21717639   0.984   5.495   6.030  0.2543 -0.0508 -3.1258
   32MOL   H21817640   0.862   5.400   5.843 -1.9531 -0.8699  0.4572
   32MOL   H21917641   0.643   5.097   5.608 -0.4887 -0.3252 -0.0841
   32MOL   H22017642   0.648   5.258   5.553 -3.1184 -0.0886 -0.2134
   32MOL   H22117643   0.421   5.184   5.682  0.2633 -0.0995 -1.0324
   32MOL   H22217644   0.517   5.195   5.833  1.8814 -2.8115 -1.1219
   32MOL   H22317645   0.873   5.015   6.029  1.1013 -1.0664  0.0765
   32MOL   H22417646   1.035   4.980   6.246 -1.7389  0.1673 -0.7236
   32MOL   H22517647   1.155   5.088   6.416  0.4741  1.1928 -0.0535
   32MOL   O22617648   0.596   5.426   5.915  0.0823  0.5368  0.3639
   32MOL   C22717649   0.513   5.456   5.827 -0.3520  0.6512 -0.4798
   32MOL   O22817650   0.486   5.370   5.721 -0.2553 -0.6809  0.0049
   32MOL   C22917651   0.443   5.588   5.821 -0.8952  0.4173  0.1015
   32MOL   C23017652   0.319   5.591   5.745 -0.8696  0.4324  0.1508
   32MOL   C23117653   0.256   5.711   5.713 -0.1428  0.5215 -0.1946
   32MOL   C23217654   0.139   5.724   5.636  0.3584  0.0501 -0.3844
   32MOL   C23317655   0.069   5.844   5.618 -0.2299  0.2050  0.3749
   32MOL   C23417656   0.122   5.964   5.678 -0.5614  0.7298  0.4784
   32MOL   C23517657   0.053   6.092   5.671 -0.9721  0.1845 -0.6210
   32MOL   O23617658   8.182   6.086   5.623 -0.7549  0.2428  0.2772
   32MOL   C23717659   8.111   6.205   5.600 -0.3718  0.5205  0.3809
   32MOL   C23817660   8.028   6.247   5.722  0.1500  0.0206  0.1558
   32MOL   O23917661   0.116   6.193   5.712 -0.4208 -0.8152  0.0484
   32MOL   C24017662   0.244   5.954   5.749 -0.4685 -0.0069  0.2143
   32MOL   C24117663   0.308   5.832   5.770 -0.7795  0.5277  0.6719
   32MOL   C24217664   0.422   5.827   5.846  0.0586 -0.1444 -0.4015
   32MOL   C24317665   0.496   5.707   5.868 -0.1196  0.5439  0.7648
   32MOL   H24417666   0.292   5.501   5.691  2.3305  0.3698 -1.4543
   32MOL   H24517667   0.096   5.635   5.593 -0.4500  0.1516  0.2059
   32MOL   H24617668   8.225   5.840   5.564  1.0567  0.0915 -1.8649
   32MOL   H24717669   8.040   6.174   5.523 -1.7700  2.8051  0.7050
   32MOL   H24817670   8.174   6.287   5.567  0.4618  1.1627  3.3793
   32MOL   H24917671   7.960   6.322   5.681 -0.3269 -1.4959 -1.9288
   32MOL   H25017672   7.962   6.175   5.770  0.8531  0.7496  2.2503
   32MOL   H25117673   0.299   6.031   5.800  1.4782 -1.0024 -0.3518
   32MOL   H25217674   0.467   5.920   5.876  1.3496 -1.3327  1.5061
   32MOL   H25317675   0.589   5.720   5.921  0.0370 -0.1608  0.6558
   32MOL   O25417676   8.141   6.501   5.715 -0.0038 -0.2034  0.4962
   32MOL   C25517677   8.160   6.428   5.809 -1.2414 -0.4730  0.2402
   32MOL   O25617678   8.104   6.304   5.821  0.3652 -0.4036 -0.0653
   32MOL   C25717679   0.001   6.463   5.920 -0.1681 -0.7690 -0.1876
   32MOL   C25817680   0.008   6.393   6.043  0.6843  0.1528 -0.2675
   32MOL   C25917681   0.101   6.442   6.143 -0.3339  0.3609  0.6740
   32MOL   C26017682   0.106   6.373   6.266 -0.6355 -0.4916  0.8112
   32MOL   C26117683   0.203   6.420   6.363 -0.4723 -0.2507 -0.2373
   32MOL   C26217684   0.291   6.530   6.340  0.4586  0.2132  0.2519
   32MOL   C26317685   0.373   6.576   6.456  0.1694 -0.2908 -0.0248
   32MOL   O26417686   0.440   6.684   6.421 -0.3492  0.0823 -0.0998
   32MOL   C26517687   0.518   6.751   6.522 -0.3422  0.7627  0.3697
   32MOL   C26617688   0.659   6.683   6.549  0.3605  0.0077  0.5077
   32MOL   O26717689   0.376   6.521   6.563  0.5622 -0.1579  1.0848
   32MOL   C26817690   0.284   6.591   6.220 -0.2243  0.0935  0.3839
   32MOL   C26917691   0.194   6.548   6.123 -0.2586  0.1042 -0.0991
   32MOL   C27017692   0.187   6.612   5.999  0.0793 -0.6050  0.4822
   32MOL   C27117693   0.092   6.570   5.901  0.0145 -0.0683  0.2230
   32MOL   H27217694   8.190   6.309   6.056 -2.1612  2.1540 -1.4539
   32MOL   H27317695   0.035   6.300   6.303 -0.8078 -0.4546  0.5524
   32MOL   H27417696   0.215   6.372   6.459 -1.7913 -2.1326 -0.9945
   32MOL   H27517697   0.472   6.762   6.621  1.3773 -0.9138  1.3886
   32MOL   H27617698   0.540   6.850   6.483  2.0613  0.6053  1.2023
   32MOL   H27717699   0.654   6.574   6.544 -0.5774  0.0737 -0.1807
   32MOL   H27817700   0.741   6.700   6.480  0.7511  1.5251  1.3099
   32MOL   H27917701   0.359   6.664   6.192 -0.3648  0.5556  1.1930
   32MOL   H28017702   0.253   6.696   5.983 -0.9738  0.2198  0.4034
   32MOL   H28117703   0.087   6.629   5.811  1.2046  0.3312  0.3974
   32MOL   O28217704   0.634   6.492   6.746 -0.3824  0.0583 -0.2057
   32MOL   C28317705   0.672   6.606   6.774  0.5964  0.6164 -0.7179
   32MOL   O28417706   0.689   6.702   6.686 -0.0580  0.7062 -0.1475
   32MOL   C28517707   0.686   6.657   6.913 -0.7570  0.0574  0.3612
   32MOL   C28617708   0.671   6.567   7.014 -0.6163 -0.1212  0.9191
   32MOL   C28717709   0.678   6.603   7.148  0.3698  0.1179 -0.1274
   32MOL   C28817710   0.663   6.503   7.245  0.4540 -0.1336  1.0999
   32MOL   C28917711   0.673   6.542   7.379  0.3419  0.2976 -0.6636
   32MOL   C29017712   0.673   6.681   7.414 -0.2548 -0.5600 -0.6261
   32MOL   C29117713   0.673   6.721   7.558  0.2907  0.3977 -0.8191
   32MOL   O29217714   0.641   6.856   7.584 -0.1284  0.5078  0.2473
   32MOL   C29317715   0.679   6.934   7.694  0.0309 -0.3347  0.5796
   32MOL   C29417716   0.795   7.026   7.671 -0.3673  0.2644 -0.1948
   32MOL   O29517717   0.702   6.645   7.653 -0.0538  0.2099  0.7510
   32MOL   C29617718   0.692   6.781   7.316 -0.6737  0.4125  0.1135
   32MOL   C29717719   0.694   6.740   7.179 -0.6370  0.4128  0.1271
   32MOL   C29817720   0.713   6.827   7.071 -0.7287 -0.0312  1.0144
   32MOL   C29917721   0.712   6.792   6.939 -1.1022 -0.0326 -0.1332
   32MOL   H30017722   0.650   6.465   6.986 -0.3078 -0.3949  1.6834
   32MOL   H30117723   0.659   6.396   7.230 -0.6186  0.1120 -0.4521
   32MOL   H30217724   0.664   6.471   7.460  1.5837  0.3598 -0.4585
   32MOL   H30317725   0.718   6.859   7.763 -2.7591 -0.6615  1.9148
   32MOL   H30417726   0.591   6.989   7.731 -0.2176  0.9725 -1.8778
   32MOL   H30517727   0.823   7.084   7.759 -1.9316 -0.6746  0.9482
   32MOL   H30617728   0.877   6.954   7.672 -2.0589 -1.6978  1.1707
   32MOL   H30717729   0.700   6.885   7.346  0.0002  0.9146 -1.7522
   32MOL   H30817730   0.726   6.933   7.088 -0.4225  0.2383 -0.7552
   32MOL   H30917731   0.726   6.867   6.863  3.7375 -0.0400  0.5579
   32MOL   O31017732   0.637   7.254   7.625 -0.2040 -0.1821  0.3760
   32MOL   C31117733   0.712   7.215   7.535  0.0949 -0.2701 -0.3484
   32MOL   O31217734   0.790   7.107   7.552  0.5624  0.4554  0.4599
   32MOL   C31317735   0.728   7.269   7.399 -0.5610  0.9115 -0.1964
   32MOL   C31417736   0.806   7.211   7.297  0.2278 -0.5387 -0.0641
   32MOL   C31517737   0.811   7.264   7.169  0.4286  0.3221  0.2529
   32MOL   C31617738   0.875   7.193   7.061 -0.0323  0.1588 -0.1385
   32MOL   C31717739   0.871   7.259   6.933 -0.0857  0.3819  0.5829
   32MOL   C31817740   0.800   7.380   6.913  0.1354  0.9080  0.3490
   32MOL   C31917741   0.787   7.432   6.775 -0.1950  1.2136  0.3369
   32MOL   O32017742   0.688   7.520   6.767 -0.0227 -0.3629 -0.1171
   32MOL   C32117743   0.664   7.589   6.646  0.2462 -0.6576  0.6419
   32MOL   C32217744   0.567   7.706   6.654  0.3410  0.3118 -0.1480
   32MOL   O32317745   0.855   7.387   6.678  0.2915  0.2216  0.3016
   32MOL   C32417746   0.741   7.440   7.022  0.3034  0.3843  0.1179
   32MOL   C32517747   0.742   7.384   7.145 -0.4612 -0.0038 -0.4710
   32MOL   C32617748   0.665   7.443   7.250  0.1176 -0.3627  1.2335
   32MOL   C32717749   0.654   7.382   7.374  0.1083 -0.8018 -0.4346
   32MOL   H32817750   0.866   7.122   7.315 -1.0869 -1.7967 -1.7952
   32MOL   H32917751   0.912   7.092   7.060  1.0438  0.5210  1.5182
   32MOL   H33017752   0.927   7.219   6.850 -1.6438 -4.1416  1.6061
   32MOL   H33117753   0.611   7.525   6.575 -0.5099  0.8940 -0.2148
   32MOL   H33217754   0.759   7.610   6.597 -1.7521  0.4395 -2.9588
   32MOL   H33317755   0.524   7.718   6.554 -0.3012 -0.5927  0.0111
   32MOL   H33417756   0.498   7.694   6.737 -1.4773  1.9735 -1.3941
   32MOL   H33517757   0.692   7.535   7.004  1.5743  0.6939 -1.8135
   32MOL   H33617758   0.601   7.526   7.223 -0.1014 -0.1651  2.2976
   32MOL   H33717759   0.593   7.429   7.449  0.1162 -1.8096  0.2124
   32MOL   O33817760   0.653   7.801   6.905  0.4444  0.4194  0.2432
   32MOL   C33917761   0.698   7.847   6.801 -0.9112 -0.9069 -1.1869
   32MOL   O34017762   0.644   7.824   6.676 -0.2974 -0.4176  0.4550
   32MOL   C34117763   0.813   7.937   6.795  0.3921 -0.4397  0.4084
   32MOL   C34217764   0.811   8.045   6.700 -0.1033 -0.2561  0.1655
   32MOL   C34317765   0.926   8.124   6.681 -0.5743  0.2674 -0.1339
   32MOL   C34417766   0.922   8.224   6.589 -0.1321 -0.2023 -0.8117
   32MOL   C34517767   1.039   0.047   6.567 -0.1538 -0.3794 -0.7027
   32MOL   C34617768   1.159   0.023   6.635  0.5078  0.0594 -0.2094
   32MOL   C34717769   1.284   0.101   6.606  0.4246 -0.1378  0.5305
   32MOL   O34817770   1.281   0.186   6.504  0.5399 -0.0708 -0.3922
   32MOL   C34917771   1.405   0.234   6.450  0.7706 -0.7235 -0.0787
   32MOL   C35017772   1.464   0.143   6.348  0.3101 -0.0034  0.6404
   32MOL   O35117773   1.385   0.091   6.671 -0.2648 -0.5515 -0.0688
   32MOL   C35217774   1.156   8.175   6.736  0.1056 -0.4638 -0.3052
   32MOL   C35317775   1.041   8.097   6.759 -0.0145  0.0774 -0.7401
   32MOL   C35417776   1.039   7.993   6.855  0.1048 -0.0615  0.1935
   32MOL   C35517777   0.920   7.916   6.877 -0.1729  0.5925 -0.4099
   32MOL   H35617778   0.718   8.070   6.651  0.3458 -0.2229 -0.6794
   32MOL   H35717779   0.830   8.244   6.537 -0.6931  1.5732  0.7844
   32MOL   H35817780   1.046   0.124   6.492  0.4317 -0.4473 -0.7230
   32MOL   H35917781   1.479   0.262   6.525 -0.5771  1.3156  0.5320
   32MOL   H36017782   1.365   0.325   6.405  2.4858 -0.1623 -0.4750
   32MOL   H36117783   1.510   0.053   6.389  3.8964 -0.0636 -3.1166
   32MOL   H36217784   1.384   0.129   6.275  0.2981 -2.2547  1.0517
   32MOL   H36317785   1.247   8.144   6.786 -1.6294 -1.1257  2.5505
   32MOL   H36417786   1.129   7.956   6.901 -0.2348 -1.7295 -0.4281
   32MOL   H36517787   0.930   7.830   6.942  2.2724  1.1865  0.0509
   32MOL   O36617788   1.711   0.189   6.450 -0.7134 -0.3166  0.2620
   32MOL   C36717789   1.687   0.232   6.336 -0.0367  0.9984 -0.6074
   32MOL   O36817790   1.570   0.218   6.282 -0.9522  0.0467  0.2365
   32MOL   C36917791   1.784   0.308   6.254  0.0494 -0.3417 -0.3716
   32MOL   C37017792   1.755   0.375   6.131 -0.1531 -0.7616 -0.2588
   32MOL   C37117793   1.854   0.427   6.047 -0.3087 -0.1779 -0.7660
   32MOL   C37217794   1.828   0.488   5.926 -1.2030 -0.2038 -0.7074
   32MOL   C37317795   1.933   0.551   5.852 -0.0063 -0.2575  0.0657
   32MOL   C37417796   2.065   0.545   5.903 -0.0550  0.3096  0.2697
   32MOL   C37517797   2.177   0.591   5.817 -0.0658 -0.9233  0.0523
   32MOL   O37617798   2.294   0.596   5.888 -0.2515  0.3643 -0.0071
   32MOL   C37717799   2.416   0.639   5.827 -0.1231 -0.4929  0.3427
   32MOL   C37817800   2.505   0.521   5.776 -0.0065  0.2302 -0.4564
   32MOL   O37917801   2.176   0.619   5.693 -0.1140 -0.2335 -0.0832
   32MOL   C38017802   2.089   0.481   6.017 -0.8283 -0.2873  0.4556
   32MOL   C38117803   1.990   0.430   6.094  0.6081 -0.9014  0.2869
   32MOL   C38217804   2.021   0.367   6.212  1.2193  0.2422  0.5909
   32MOL   C38317805   1.922   0.308   6.292  0.5783 -0.8102  0.2873
   32MOL   H38417806   1.651   0.377   6.100 -0.8636  1.2644  1.9793
   32MOL   H38517807   1.726   0.500   5.891 -0.6563  2.3248 -1.5188
   32MOL   H38617808   1.913   0.596   5.756 -0.4804  0.5463  0.5369
   32MOL   H38717809   2.477   0.703   5.890 -0.6353 -1.5328  1.9079
   32MOL   H38817810   2.396   0.702   5.740  0.0848  0.4610  0.9806
   32MOL   H38917811   2.455   0.446   5.715  0.1981 -1.4567  1.4021
   32MOL   H39017812   2.583   0.567   5.717  0.6000  0.5258  0.5659
   32MOL   H39117813   2.192   0.476   6.047 -0.4226 -3.5634 -1.3451
   32MOL   H39217814   2.125   0.350   6.233  1.0682  0.8248  1.8724
   32MOL   H39317815   1.959   0.260   6.381  1.3584 -0.0538  0.3775
   32MOL   O39417816   2.738   0.600   5.899  0.4825  0.2099  0.0680
   32MOL   C39517817   2.673   0.507   5.944 -0.1416 -1.0655  0.0014
   32MOL   O39617818   2.564   0.457   5.889 -0.3869  0.2451 -0.1329
   32MOL   C39717819   2.715   0.447   6.070 -1.2898  0.4751 -0.5980
   32MOL   C39817820   2.642   0.344   6.136 -0.3030 -0.3765 -0.2419
   32MOL   C39917821   2.684   0.298   6.260 -0.4854 -0.7766  0.0297
   32MOL   C40017822   2.620   0.189   6.320  0.2957 -0.9543 -0.3141
   32MOL   C40117823   2.660   0.140   6.444  0.3997 -0.2362  0.5899
   32MOL   C40217824   2.774   0.193   6.504  0.0583 -0.0313 -0.6907
   32MOL   C40317825   2.815   0.139   6.635  0.6552 -0.6925 -0.6745
   32MOL   O40417826   2.709   0.087   6.696  0.1440 -0.2820  0.0958
   32MOL   C40517827   2.725   0.017   6.817  0.9839 -0.2177  0.6797
   32MOL   C40617828   2.593   8.202   6.850 -0.1730 -0.4843  0.2190
   32MOL   O40717829   2.934   0.117   6.667 -0.0164  0.2318 -0.0538
   32MOL   C40817830   2.845   0.299   6.443 -0.0157 -0.5775  0.2940
   32MOL   C40917831   2.796   0.356   6.325  0.4573  0.1918 -0.1981
   32MOL   C41017832   2.869   0.456   6.253  0.3137  0.3192  0.2680
   32MOL   C41117833   2.830   0.507   6.131 -0.4325 -0.8313 -0.4263
   32MOL   H41217834   2.563   0.282   6.096 -0.7758  0.1492 -0.1333
   32MOL   H41317835   2.530   0.144   6.280 -0.2100  1.1589 -1.6142
   32MOL   H41417836   2.607   0.053   6.481  2.5677 -0.7183  2.6402
   32MOL   H41517837   2.741   0.081   6.905 -1.8733  0.8157  0.4950
   32MOL   H41617838   2.801   8.189   6.806 -1.0550 -1.9176 -1.9078
   32MOL   H41717839   2.539   8.220   6.758 -0.1631 -0.8496  0.1403
   32MOL   H41817840   2.597   8.094   6.870  0.6362 -0.2498  1.4359
   32MOL   H41917841   2.945   0.329   6.470 -0.2962  0.6245  0.0252
   32MOL   H42017842   2.954   0.499   6.303  1.1234  1.0583 -1.6875
   32MOL   H42117843   2.890   0.582   6.081  1.1068 -0.7178  1.5375
   32MOL   O42217844   2.658   8.175   7.116 -0.1203 -1.0776  0.7139
   32MOL   C42317845   2.564   8.243   7.083  0.4687  0.1367  0.0547
   32MOL   O42417846   2.531   0.025   6.954  0.1151  0.4243 -0.2931
   32MOL   C42517847   2.458   0.040   7.180 -0.1405 -0.5158 -0.4839
   32MOL   C42617848   2.449   8.237   7.315 -0.7311  0.6225 -0.0366
   32MOL   C42717849   2.357   0.037   7.409 -1.2899  0.2598  0.4627
   32MOL   C42817850   2.351   8.246   7.547  1.0727 -0.2151  0.4173
   32MOL   C42917851   2.260   0.056   7.628 -0.3728 -1.2992  0.2036
   32MOL   C43017852   2.179   0.160   7.590  0.0628 -0.3400 -0.3055
   32MOL   C43117853   2.088   0.222   7.689 -0.2434 -0.4141 -1.1960
   32MOL   O43217854   2.008   0.327   7.642 -0.0732  0.0159  0.2747
   32MOL   C43317855   1.897   0.400   7.715  0.0381 -0.1819 -0.7370
   32MOL   C43417856   1.788   0.290   7.743 -0.8383 -0.4597 -0.3686
   32MOL   O43517857   2.077   0.191   7.813  0.3979  0.3593  1.0211
   32MOL   C43617858   2.172   0.198   7.456  0.2398 -0.6811 -0.1822
   32MOL   C43717859   2.266   0.140   7.361  0.2498  0.4190 -0.2716
   32MOL   C43817860   2.265   0.187   7.227 -0.0778  0.3772 -0.1821
   32MOL   C43917861   2.367   0.139   7.141 -0.3132 -0.4902  0.1290
   32MOL   H44017862   2.526   8.170   7.349 -1.1407  1.0665  1.8330
   32MOL   H44117863   2.418   8.171   7.586  0.1201  0.0791  2.7073
   32MOL   H44217864   2.265   0.029   7.732  0.3890 -0.6222  0.3404
   32MOL   H44317865   1.854   0.489   7.670 -1.7898  1.3253  3.6600
   32MOL   H44417866   1.950   0.437   7.804  1.7553 -0.0915 -1.7723
   32MOL   H44517867   1.754   0.256   7.645  0.0736 -0.6225 -0.6346
   32MOL   H44617868   1.822   0.210   7.808 -2.8764 -2.4481 -1.6710
   32MOL   H44717869   2.113   0.277   7.411 -0.1633 -0.5132  0.6437
   32MOL   H44817870   2.193   0.254   7.183 -3.3556 -2.2879  0.9534
   32MOL   H44917871   2.366   0.177   7.040  1.0203  0.6590  0.5220
   32MOL   O45017872   1.602   0.179   7.896 -0.1825 -0.0113  0.0810
   32MOL   C45117873   1.583   0.297   7.865 -0.1416  0.5829  0.7370
   32MOL   O45217874   1.675   0.362   7.796 -0.3297 -0.3180  0.7732
   32MOL   C45317875   1.463   0.379   7.893 -0.6138 -0.2319 -0.6147
   32MOL   C45417876   1.368   0.336   7.988  0.2413 -1.0074 -0.2072
   32MOL   C45517877   1.247   0.406   8.004 -0.3181 -0.1356 -0.3558
   32MOL   C45617878   1.144   0.354   8.085 -0.3290 -0.0317  0.0615
   32MOL   C45717879   1.026   0.421   8.109 -0.5594  0.4096  0.1994
   32MOL   C45817880   1.000   0.538   8.033 -0.1383 -0.2920  0.2040
   32MOL   C45917881   0.878   0.620   8.056  0.6246 -0.2789  0.1609
   32MOL   O46017882   0.782   0.551   8.125  0.0390  0.2215  0.5449
   32MOL   C46117883   0.661   0.616   8.152  0.6257 -0.5039  0.2806
   32MOL   C46217884   0.568   0.638   8.033 -0.2011 -0.3398  0.5364
   32MOL   O46317885   0.855   0.734   8.009 -0.5450  0.3267 -0.1211
   32MOL   C46417886   1.097   0.593   7.946  0.5293 -0.5913 -0.9821
   32MOL   C46517887   1.222   0.528   7.936  0.0626 -0.1610  0.5652
   32MOL   C46617888   1.322   0.571   7.845  0.0956 -0.2173  0.9279
   32MOL   C46717889   1.435   0.495   7.816 -0.3587 -0.1597  0.1795
   32MOL   H46817890   1.388   0.244   8.041 -0.1018 -0.3945  0.9812
   32MOL   H46917891   1.144   0.268   8.150  0.7241  1.6665  2.3804
   32MOL   H47017892   0.954   0.375   8.176  1.0257  0.5949  2.0677
   32MOL   H47117893   0.692   0.707   8.202 -0.1683 -0.8712  1.4825
   32MOL   H47217894   0.610   0.551   8.224 -1.7393 -0.9593 -1.7293
   32MOL   H47317895   0.627   0.665   7.945 -2.4239 -0.6069 -1.0838
   32MOL   H47417896   0.521   0.545   8.000 -0.4021  0.0657 -0.3400
   32MOL   H47517897   1.066   0.681   7.892  1.3076 -0.2154 -0.8379
   32MOL   H47617898   1.313   0.666   7.794  0.0054 -0.0356  1.2727
   32MOL   H47717899   1.504   0.528   7.739  1.5396 -1.2566  1.3798
   32MOL   O47817900   0.350   0.607   8.198  0.0389  0.5226  0.6056
   32MOL   C47917901   0.373   0.713   8.138  0.0933 -0.2610 -0.1080
   32MOL   O48017902   0.474   0.738   8.057 -0.2084  0.0509 -0.1858
   32MOL   C48117903   0.289   0.830   8.152  0.0445 -0.1981  0.7498
   32MOL   C48217904   0.276   0.929   8.056 -0.7080 -0.2616  0.0196
   32MOL   C48317905   0.189   1.039   8.074 -0.6580 -0.6336  0.1645
   32MOL   C48417906   0.180   1.137   7.972  0.5378  0.0360 -0.3432
   32MOL   C48517907   0.111   1.257   8.002  0.8175  0.3402 -0.0841
   32MOL   C48617908   0.038   1.267   8.124  0.0047 -0.0209  0.4214
   32MOL   C48717909   8.206   1.391   8.157  0.4011 -0.0185 -0.2478
   32MOL   O48817910   8.173   1.381   0.044 -0.1912  0.0015  0.6148
   32MOL   C48917911   8.087   1.483   0.103  0.3807 -0.0532 -0.0215
   32MOL   C49017912   8.165   1.616   0.122 -0.9098  0.1192 -0.4479
   32MOL   O49117913   8.185   1.484   8.086  0.1102 -0.3885 -0.0961
   32MOL   C49217914   0.037   1.161   8.215  0.3732 -0.7532 -0.7072
   32MOL   C49317915   0.115   1.046   8.196 -0.5794  0.8328 -0.0618
   32MOL   C49417916   0.125   0.944   0.043 -0.0793 -0.5330  0.3820
   32MOL   C49517917   0.213   0.832   0.024 -0.3286  0.9718  0.6085
   32MOL   H49617918   0.340   0.927   7.968  1.2549  0.0650  1.4053
   32MOL   H49717919   0.234   1.125   7.879  0.7136  1.3112 -0.4255
   32MOL   H49817920   0.108   1.335   7.928  1.3816  0.4337 -0.0145
   32MOL   H49917921   8.056   1.463   0.206 -0.3032  3.4571  0.5204
   32MOL   H50017922   7.995   1.496   0.047  0.6871  0.3581 -0.4345
   32MOL   H50117923   0.008   1.588   0.172 -0.8755  0.0977 -0.5257
   32MOL   H50217924   8.179   1.664   0.025  0.0226 -0.1739 -0.4593
   32MOL   H50317925   8.231   1.176   0.057 -1.1794 -0.1653 -1.7151
   32MOL   H50417926   0.076   0.961   0.138 -0.8166  0.8269 -0.2274
   32MOL   H50517927   0.218   0.765   0.108  0.5589 -0.3616 -0.4926
   32MOL   O50617928   8.241   1.811   0.308 -0.3254 -0.0410  0.0730
   32MOL   C50717929   8.123   1.790   0.279  0.0269 -0.9511  0.1161
   32MOL   O50817930   8.080   1.700   0.198  0.0805  0.4343  0.1205
   32MOL   C50917931   8.009   1.876   0.337  1.2568  0.3816 -0.0492
   32MOL   C51017932   8.031   1.972   0.438  0.0547  0.3481  0.5979
   32MOL   C51117933   7.930   2.062   0.476 -0.0753  0.1712  0.2596
   32MOL   C51217934   7.944   2.149   0.584 -0.6775  1.4822  1.1278
   32MOL   C51317935   7.842   2.245   0.611  0.4593 -0.4164 -0.5422
   32MOL   C51417936   7.735   2.263   0.518  0.2638 -0.1614  0.4020
   32MOL   C51517937   7.638   2.376   0.534 -0.6250  0.0154  0.0217
   32MOL   O51617938   7.693   2.492   0.573  0.1525  0.0893 -0.0869
   32MOL   C51717939   7.602   2.600   0.604 -0.4751  0.2545  0.7817
   32MOL   C51817940   7.530   2.655   0.474 -0.5157 -0.9741 -0.2958
   32MOL   O51917941   7.520   2.356   0.512 -0.2833  0.1542 -0.1403
   32MOL   C52017942   7.708   2.158   0.425 -0.8688 -0.0862  0.5593
   32MOL   C52117943   7.804   2.053   0.410 -0.8732  0.5463 -0.0297
   32MOL   C52217944   7.777   1.949   0.315  1.1793 -0.2800 -0.2625
   32MOL   C52317945   7.879   1.860   0.286  0.0614  0.0560 -0.3861
   32MOL   H52417946   8.129   1.968   0.484  0.0253  0.5652  0.6799
   32MOL   H52517947   8.039   2.140   0.634  0.8604  3.8468 -1.2089
   32MOL   H52617948   7.856   2.311   0.696  3.6909 -1.9341  0.1985
   32MOL   H52717949   7.664   2.681   0.643  1.4515 -0.7295 -0.1221
   32MOL   H52817950   7.536   2.564   0.683 -0.3429 -0.6967  0.4613
   32MOL   H52917951   7.607   2.651   0.397  0.7410  1.9699  0.7340
   32MOL   H53017952   7.459   2.580   0.438 -0.5789 -1.1791  0.2397
   32MOL   H53117953   7.619   2.166   0.365 -1.8685 -0.9698  1.8968
   32MOL   H53217954   7.680   1.940   0.267 -0.1803 -1.7823  2.6549
   32MOL   H53317955   7.863   1.794   0.202 -0.8596 -0.2051 -0.0199
   32MOL   O53417956   7.288   2.713   0.594  0.2260  0.8744  0.1211
   32MOL   C53517957   7.347   2.802   0.537 -0.3145 -0.3754 -0.8764
   32MOL   O53617958   7.475   2.789   0.489  0.1863  0.3829  0.0781
   32MOL   C53717959   7.306   2.943   0.521 -0.7449 -0.5987  0.3311
   32MOL   C53817960   7.382   3.044   0.453  0.6775  0.1923  0.3281
   32MOL   C53917961   7.341   3.173   0.456 -0.0700 -1.1440 -0.3979
   32MOL   C54017962   7.423   3.264   0.384 -0.7824 -0.0834  0.5634
   32MOL   C54117963   7.389   3.395   0.397 -0.5349  0.1898  0.3411
   32MOL   C54217964   7.277   3.441   0.465 -0.6422 -0.5874 -1.4405
   32MOL   C54317965   7.250   3.591   0.486 -0.7462  0.4081  0.4723
   32MOL   O54417966   7.160   3.607   0.583 -0.1800 -0.1147 -0.1256
   32MOL   C54517967   7.115   3.737   0.632  0.6197 -0.1977 -0.2484
   32MOL   C54617968   7.203   3.780   0.756  0.2284  0.5282  0.0064
   32MOL   O54717969   7.308   3.677   0.419  0.4223  0.3450  0.3312
   32MOL   C54817970   7.190   3.346   0.520 -0.7127 -0.0946  0.1530
   32MOL   C54917971   7.224   3.208   0.529  0.0391  0.2563 -0.0008
   32MOL   C55017972   7.142   3.113   0.586  0.3956 -0.1030  0.4795
   32MOL   C55117973   7.186   2.982   0.584 -0.0439 -0.3598  0.4635
   32MOL   H55217974   7.480   3.019   0.415  0.2306  0.2445 -0.8908
   32MOL   H55317975   7.512   3.240   0.329 -0.0565 -0.7192  1.9888
   32MOL   H55417976   7.462   3.458   0.348 -1.0717  0.6998  0.1848
   32MOL   H55517977   7.009   3.739   0.657  0.4581 -3.4083 -0.3612
   32MOL   H55617978   7.132   3.808   0.551  1.2224  1.7005  1.5057
   32MOL   H55717979   7.304   3.802   0.722  0.6313 -1.6606 -0.3005
   32MOL   H55817980   7.198   3.709   0.838  0.5462 -0.1372 -0.5386
   32MOL   H55917981   7.100   3.385   0.567  0.7316  1.3197  1.8309
   32MOL   H56017982   7.047   3.143   0.629  0.9219 -0.3164  1.8094
   32MOL   H56117983   7.122   2.902   0.619 -0.3176  0.1857  1.2343
   32MOL   H56217984   7.172   3.869   0.810 -1.1093 -0.3002  0.6235
   33MOL     O117985   7.176   1.585   1.063  0.3038  0.4677 -0.1431
   33MOL     C217986   7.248   1.655   0.996 -0.2607 -0.4064  0.3816
   33MOL     O317987   7.338   1.603   0.913 -0.5637 -0.1438 -0.1574
   33MOL     C417988   7.232   1.803   1.003  0.0145 -0.4980  0.3062
   33MOL     C517989   7.316   1.883   0.918  0.5726 -0.2380 -0.6005
   33MOL     C617990   7.307   2.026   0.930  0.7531  0.3768 -0.0983
   33MOL     C717991   7.381   2.100   0.841 -0.0127 -0.1314 -0.1432
   33MOL     C817992   7.375   2.238   0.847 -0.2397  0.3570 -0.0486
   33MOL     C917993   7.294   2.309   0.940 -0.2568 -0.6828 -0.3129
   33MOL    C1017994   7.282   2.455   0.939  0.1729 -0.1501 -0.2817
   33MOL    O1117995   7.183   2.499   1.017 -0.0268  0.3688  0.1049
   33MOL    C1217996   7.169   2.633   1.056  0.3205  0.2251 -0.5819
   33MOL    C1317997   7.237   2.657   1.194  0.6176 -0.2841 -0.6201
   33MOL    O1417998   7.359   2.531   0.869  0.2278  0.5739 -0.6036
   33MOL    C1517999   7.224   2.233   1.034 -0.2266 -0.1570  0.0135
   33MOL    C1618000   7.233   2.090   1.029 -0.0313  0.2576  0.0460
   33MOL    C1718001   7.158   2.010   1.118 -0.7103  0.5563 -0.4628
   33MOL    C1818002   7.158   1.866   1.102 -0.2279 -0.0583 -0.7496
   33MOL    H1918003   7.381   1.842   0.841  2.2619 -1.5651  1.4767
   33MOL    H2018004   7.430   2.047   0.760  1.5911  0.0875  0.6639
   33MOL    H2118005   7.433   2.282   0.768  0.8328 -0.5925  0.1851
   33MOL    H2218006   7.208   2.698   0.978 -1.0083 -0.8060 -2.1312
   33MOL    H2318007   7.062   2.646   1.076  0.5075 -0.5310  1.0714
   33MOL    H2418008   7.202   2.751   1.235  0.2761 -0.8487  0.4049
   33MOL    H2518009   7.198   2.581   1.261  1.4293 -1.0915 -1.0485
   33MOL    H2618010   7.177   2.287   1.115 -1.4508 -1.7198  0.3692
   33MOL    H2718011   7.077   2.050   1.178 -0.0089 -0.1632  0.9817
   33MOL    H2818012   7.104   1.800   1.169 -0.1399  1.2507  0.6377
   33MOL    H2918013   7.348   1.512   0.935  0.9110  0.3256  1.2061
   33MOL    O3018014   7.412   2.450   1.278 -0.1060 -0.2743  0.0681
   33MOL    C3118015   7.452   2.547   1.210 -0.2325  0.8236  0.0776
   33MOL    O3218016   7.376   2.665   1.180  0.1778  0.6426  0.2075
   33MOL    C3318017   7.595   2.553   1.159 -0.2678 -0.1008 -0.1924
   33MOL    C3418018   7.629   2.652   1.061  0.7850  0.0984  0.2406
   33MOL    C3518019   7.764   2.665   1.023 -0.1934 -0.7093  0.1407
   33MOL    C3618020   7.795   2.754   0.918  0.2388 -0.4535  0.3415
   33MOL    C3718021   7.927   2.780   0.884  0.1838  0.7041 -1.0359
   33MOL    C3818022   8.029   2.714   0.951  0.0590  0.0157 -0.0400
   33MOL    C3918023   8.173   2.747   0.928 -0.1305  0.1754 -1.1364
   33MOL    O4018024   8.184   2.874   0.883  0.0543  0.0163 -0.6918
   33MOL    C4118025   0.061   2.915   0.845 -0.5431  0.1573 -0.1000
   33MOL    C4218026   0.046   2.994   0.718  0.3368  0.3060  0.3512
   33MOL    O4318027   0.015   2.664   0.936 -0.0044  0.0665  0.0706
   33MOL    C4418028   7.992   2.614   1.049 -0.5011 -0.1438  0.9162
   33MOL    C4518029   7.863   2.590   1.095 -0.5656  0.1597  0.0195
   33MOL    C4618030   7.834   2.491   1.189  0.4592  0.1495 -0.2086
   33MOL    C4718031   7.697   2.474   1.222 -0.3054 -0.2792 -0.0295
   33MOL    H4818032   7.561   2.718   1.008  1.3671  1.2896  0.9582
   33MOL    H4918033   7.714   2.819   0.887 -1.0099 -1.1829  1.9788
   33MOL    H5018034   7.938   2.861   0.813 -1.5900  1.4372 -0.4961
   33MOL    H5118035   0.138   2.838   0.847 -0.2369  0.4892  1.4954
   33MOL    H5218036   0.085   2.991   0.920 -0.8574 -0.2927  0.4576
   33MOL    H5318037   8.199   3.045   0.716  0.6754  0.9666  0.9762
   33MOL    H5418038   0.128   3.064   0.705  0.0819  0.2702 -1.6688
   33MOL    H5518039   8.075   2.569   1.101  0.5061 -0.8701 -1.2596
   33MOL    H5618040   7.916   2.436   1.233 -0.3836  0.4110  1.7411
   33MOL    H5718041   7.671   2.400   1.297  3.6321 -1.4395  0.3220
   33MOL    O5818042   8.060   2.902   0.586 -0.1210  0.3663 -0.0034
   33MOL    C5918043   8.170   2.853   0.562 -0.3436  0.2318  0.4491
   33MOL    O6018044   0.038   2.897   0.613  0.3842 -0.1027 -0.0081
   33MOL    C6118045   8.174   2.732   0.473  0.2860  0.2685  0.4958
   33MOL    C6218046   8.060   2.663   0.441 -0.4318  0.7736 -0.3859
   33MOL    C6318047   8.060   2.548   0.356 -0.8905 -0.2511  0.3635
   33MOL    C6418048   7.943   2.476   0.321  0.2798  0.7335  0.5267
   33MOL    C6518049   7.945   2.357   0.244 -0.4690 -0.7005  0.5934
   33MOL    C6618050   8.068   2.312   0.197 -0.3516 -0.2867  0.4940
   33MOL    C6718051   8.088   2.188   0.115  0.8604 -0.1097  0.8066
   33MOL    O6818052   7.977   2.131   0.082 -0.5373  0.4392  0.2300
   33MOL    C6918053   7.977   2.010   0.006  0.5425 -0.6608 -0.1475
   33MOL    C7018054   8.007   2.022   8.099  0.0994  0.1023 -0.0853
   33MOL    O7118055   8.196   2.150   0.071  0.0871 -0.3780 -0.0414
   33MOL    C7218056   8.192   2.381   0.226  0.4157 -0.3163 -0.6688
   33MOL    C7318057   8.186   2.501   0.308  0.2532 -0.2594  0.0814
   33MOL    C7418058   0.051   2.578   0.332  0.4498  0.0997 -0.6597
   33MOL    C7518059   0.051   2.687   0.421 -0.1685  0.3747  0.1733
   33MOL    H7618060   7.966   2.693   0.482 -1.7754 -1.8227 -1.4527
   33MOL    H7718061   7.845   2.513   0.345 -0.6551 -0.7356 -0.9019
   33MOL    H7818062   7.854   2.306   0.217 -1.4258  1.6147 -0.7451
   33MOL    H7918063   7.878   1.965   0.016 -0.0623  0.0483 -2.3960
   33MOL    H8018064   8.051   1.946   0.053 -1.2746 -1.6690  1.4171
   33MOL    H8118065   8.099   2.081   8.094 -0.1789  0.4999 -0.5647
   33MOL    H8218066   8.017   1.922   8.057  2.3691  1.5350 -3.1448
   33MOL    H8318067   0.033   2.340   0.182 -0.0145 -2.0970  0.0757
   33MOL    H8418068   0.139   2.547   0.279  0.8618 -2.4326  1.4202
   33MOL    H8518069   0.137   2.745   0.450 -0.0898 -0.6238  1.9776
   33MOL    O8618070   7.719   1.967   8.072 -0.0897 -0.5261 -0.0362
   33MOL    C8718071   7.777   2.061   8.016 -0.6180  0.3525  1.2663
   33MOL    O8818072   7.901   2.104   8.040 -0.1678  0.4706 -0.3071
   33MOL    C8918073   7.706   2.122   7.897 -0.4857 -0.3695  0.3119
   33MOL    C9018074   7.576   2.080   7.858 -0.2896  0.1837  0.4893
   33MOL    C9118075   7.516   2.141   7.745  0.0171  0.0437 -0.1913
   33MOL    C9218076   7.389   2.092   7.707 -0.0549  0.0749 -0.4490
   33MOL    C9318077   7.319   2.147   7.596 -0.0807  0.5634  0.1036
   33MOL    C9418078   7.379   2.256   7.527  0.2427  0.2297  0.1591
   33MOL    C9518079   7.324   2.317   7.404 -0.0766 -0.5812 -0.3471
   33MOL    O9618080   7.239   2.237   7.349  0.0768 -0.5065 -0.0817
   33MOL    C9718081   7.174   2.276   7.229 -0.5080  0.0836 -0.7426
   33MOL    C9818082   7.060   2.373   7.270  0.7395 -0.6372  0.0169
   33MOL    O9918083   7.365   2.423   7.357 -0.1085  0.4634 -0.9037
   33MOL   C10018084   7.504   2.316   7.574 -0.4307  0.1898 -0.2407
   33MOL   C10118085   7.574   2.252   7.679 -0.3042 -0.2664 -0.2609
   33MOL   C10218086   7.697   2.292   7.720 -0.2765  0.1601  0.0282
   33MOL   C10318087   7.768   2.229   7.823  0.2207 -0.0118 -0.5516
   33MOL   H10418088   7.514   2.022   7.924  1.1503 -1.6082  0.3170
   33MOL   H10518089   7.340   2.027   7.778 -1.0962  0.4731 -0.8040
   33MOL   H10618090   7.215   2.120   7.588 -0.7001  2.3668  1.6861
   33MOL   H10718091   7.130   2.192   7.177 -1.3236 -0.8853  1.4408
   33MOL   H10818092   7.244   2.319   7.158  2.1303 -0.0992  1.6745
   33MOL   H10918093   6.991   2.320   7.336  1.6953  0.4648  1.9393
   33MOL   H11018094   7.099   2.458   7.326  2.3267 -0.0039 -2.0067
   33MOL   H11118095   7.549   2.399   7.523  1.4316 -1.0327 -0.6172
   33MOL   H11218096   7.745   2.381   7.681  2.0006 -0.5517  1.0973
   33MOL   H11318097   7.863   2.268   7.855 -0.3427 -0.0533  1.2436
   33MOL   O11418098   7.122   2.553   7.067 -0.1087  0.8247 -0.5069
   33MOL   C11518099   7.007   2.511   7.073  0.1334 -0.4851 -0.5344
   33MOL   O11618100   6.970   2.416   7.164 -0.5625  0.8324 -0.1590
   33MOL   C11718101   6.899   2.564   6.990 -0.2201 -0.5631 -0.3463
   33MOL   C11818102   6.768   2.549   7.028 -0.1165 -0.2249  0.7215
   33MOL   C11918103   6.662   2.595   6.948  0.3621  0.6616  0.2992
   33MOL   C12018104   6.527   2.587   6.988 -0.3460  0.2777  0.1904
   33MOL   C12118105   6.423   2.616   6.896 -0.0681  0.4151 -0.3638
   33MOL   C12218106   6.452   2.660   6.765 -0.7031 -0.0026  0.1509
   33MOL   C12318107   6.349   2.698   6.673  1.1494  1.0053  0.1277
   33MOL   O12418108   6.391   2.716   6.550 -0.2208  0.4085 -0.5733
   33MOL   C12518109   6.305   2.786   6.453  0.5790 -0.1314 -0.2995
   33MOL   C12618110   6.319   2.941   6.437 -0.1096  0.2838  0.2431
   33MOL   O12718111   6.234   2.728   6.714 -0.2670  0.0205 -0.4410
   33MOL   C12818112   6.588   2.679   6.735  0.1711  0.3481  0.7979
   33MOL   C12918113   6.692   2.649   6.823  0.5365  0.2736 -0.1416
   33MOL   C13018114   6.829   2.664   6.782  0.7087 -0.1506 -0.3627
   33MOL   C13118115   6.932   2.621   6.868 -0.3449  0.0504 -0.3100
   33MOL   H13218116   6.752   2.512   7.128  2.3576 -0.9476  0.8969
   33MOL   H13318117   6.501   2.547   7.085  1.0438  1.6779  1.1648
   33MOL   H13418118   6.318   2.609   6.922 -0.0809  2.0682  0.0823
   33MOL   H13518119   6.203   2.754   6.472  0.1456  1.3705 -0.0406
   33MOL   H13618120   6.327   2.728   6.364 -1.3685 -0.9587 -0.2458
   33MOL   H13718121   6.423   2.972   6.421 -0.2476  0.9491  0.6060
   33MOL   H13818122   6.264   2.968   6.347  1.2130 -0.7943 -0.9007
   33MOL   H13918123   6.612   2.698   6.632 -1.1334 -0.5066  0.3285
   33MOL   H14018124   6.863   2.716   6.694  1.4620  0.6504  0.3935
   33MOL   H14118125   7.036   2.635   6.842  0.0967 -1.2927  0.7192
   33MOL   O14218126   6.071   3.021   6.465  0.3459  0.0359 -0.2888
   33MOL   C14318127   6.145   3.043   6.556  0.6719  0.5544 -0.6635
   33MOL   O14418128   6.273   3.004   6.553 -0.0476  0.2766 -0.2128
   33MOL   C14518129   6.099   3.108   6.684 -0.8399  0.3354 -1.0494
   33MOL   C14618130   6.184   3.161   6.785  0.6710  0.2487 -0.4396
   33MOL   C14718131   6.134   3.222   6.899 -0.2514 -0.7169 -0.1832
   33MOL   C14818132   6.221   3.267   6.997 -0.8915  0.4923  0.3881
   33MOL   C14918133   6.182   3.315   7.123 -0.0911 -0.1893  0.3293
   33MOL   C15018134   6.045   3.324   7.154  0.6581 -0.7493  0.4183
   33MOL   C15118135   5.989   3.355   7.284 -0.4031 -0.6360  0.1915
   33MOL   O15218136   6.071   3.314   7.385  0.7470 -0.0091  0.2029
   33MOL   C15318137   6.024   3.312   7.517  0.7175  0.7484 -0.4069
   33MOL   C15418138   5.941   3.187   7.546  0.5819 -0.0960  0.0686
   33MOL   O15518139   5.876   3.388   7.311 -0.3453  0.2999 -0.0959
   33MOL   C15618140   5.949   3.278   7.053  0.4582  0.2794 -0.6328
   33MOL   C15718141   5.998   3.220   6.932  0.5250  0.5091 -0.6727
   33MOL   C15818142   5.908   3.168   6.837  0.9296 -0.7663  0.3745
   33MOL   C15918143   5.960   3.114   6.718 -0.4901 -0.2057 -0.0778
   33MOL   H16018144   6.292   3.166   6.776  0.5405  1.4739 -1.4602
   33MOL   H16118145   6.328   3.267   6.978 -0.8684  0.5440  0.5203
   33MOL   H16218146   6.250   3.361   7.193 -0.6980  0.2801  0.6156
   33MOL   H16318147   5.965   3.399   7.544  0.5378  0.5976 -0.3175
   33MOL   H16418148   6.112   3.307   7.580 -0.8182  1.1216  1.8116
   33MOL   H16518149   5.892   3.191   7.644 -1.6874  0.7793 -1.0719
   33MOL   H16618150   5.858   3.176   7.477 -2.1031  1.2335  2.9682
   33MOL   H16718151   5.843   3.283   7.074  0.0743 -1.3407 -2.0524
   33MOL   H16818152   5.800   3.162   6.841  0.8802 -0.5023 -0.5768
   33MOL   H16918153   5.894   3.059   6.651  1.6079 -1.9679 -0.7595
   33MOL   O17018154   6.108   3.087   7.731 -0.3208  0.5357  0.1462
   33MOL   C17118155   6.075   3.016   7.635 -0.3547  1.1878 -0.0215
   33MOL   O17218156   6.010   3.062   7.529 -0.1363  0.4172  0.1001
   33MOL   C17318157   6.091   2.867   7.631  0.1763  0.1265  0.4756
   33MOL   C17418158   6.162   2.803   7.734  0.5177 -0.3276 -0.0247
   33MOL   C17518159   6.171   2.662   7.748 -0.0548 -0.0635  0.2610
   33MOL   C17618160   6.221   2.600   7.868  0.4650  0.2411 -0.1341
   33MOL   C17718161   6.213   2.459   7.880 -0.0293  0.3303 -0.7091
   33MOL   C17818162   6.174   2.379   7.774 -0.3317  1.0989  0.1673
   33MOL   C17918163   6.168   2.226   7.788 -0.0355 -0.9960 -0.2291
   33MOL   O18018164   6.078   2.166   7.713  0.3612 -0.0905 -0.7982
   33MOL   C18118165   6.075   2.025   7.720 -0.4742  0.7030  0.2847
   33MOL   C18218166   6.008   1.994   7.857  0.1935 -0.0594 -0.2784
   33MOL   O18318167   6.261   2.167   7.849  0.2239  0.3031 -0.0995
   33MOL   C18418168   6.124   2.443   7.661  0.2944  0.1261 -0.0486
   33MOL   C18518169   6.124   2.585   7.644 -0.1002 -0.2589 -0.0175
   33MOL   C18618170   6.056   2.644   7.533  0.5220  0.3826  0.4008
   33MOL   C18718171   6.044   2.785   7.527  0.0775  0.6523 -0.1156
   33MOL   H18818172   6.197   2.858   7.819 -0.0638  0.1002 -0.0587
   33MOL   H18918173   6.258   2.645   7.958  1.1532 -0.8185  0.1210
   33MOL   H19018174   6.242   2.415   7.974 -0.1057 -1.0005 -1.3016
   33MOL   H19118175   6.173   1.977   7.714 -0.7555  0.3437 -1.8863
   33MOL   H19218176   6.017   1.979   7.640  0.2637 -0.7119  0.5500
   33MOL   H19318177   6.008   1.885   7.869  2.2811 -0.0499 -0.1153
   33MOL   H19418178   6.067   2.037   7.938  0.8613  0.6019 -1.1095
   33MOL   H19518179   6.076   2.383   7.585  1.4823 -2.6573  1.3633
   33MOL   H19618180   6.015   2.584   7.453  0.7882  1.3775 -0.4938
   33MOL   H19718181   6.004   2.825   7.435  0.4222  0.7254 -0.2367
   33MOL   O19818182   5.793   1.923   7.693 -0.2401 -0.0170 -0.0268
   33MOL   C19918183   5.773   1.995   7.791  0.2935  0.1858 -0.3578
   33MOL   O20018184   5.873   2.047   7.867 -0.5233 -0.2885  0.0501
   33MOL   C20118185   5.639   2.034   7.844 -0.4262  0.4233  0.6969
   33MOL   C20218186   5.619   2.109   7.957  0.3152  0.4861  0.0014
   33MOL   C20318187   5.487   2.143   7.997  0.4296 -0.1115  0.3119
   33MOL   C20418188   5.472   2.237   8.098 -0.7769 -0.0552  0.3962
   33MOL   C20518189   5.343   2.267   8.142  0.7621 -0.2650 -0.1280
   33MOL   C20618190   5.227   2.219   8.077 -0.2144  0.0392 -0.4146
   33MOL   C20718191   5.091   2.265   8.118  0.0941  0.3182  0.1398
   33MOL   O20818192   4.995   2.207   8.050 -0.0753 -0.2267  0.1479
   33MOL   C20918193   4.864   2.255   8.067 -0.3146 -0.3100 -0.0041
   33MOL   C21018194   4.828   2.342   7.949 -0.2250  0.3449  0.2710
   33MOL   O21118195   5.075   2.357   8.197  0.2055  0.7631  0.2459
   33MOL   C21218196   5.245   2.135   7.961 -0.0809 -0.2864 -0.1259
   33MOL   C21318197   5.375   2.094   7.925 -0.1392 -0.0668  0.6432
   33MOL   C21418198   5.397   2.021   7.805  1.1837  0.6915  0.3176
   33MOL   C21518199   5.525   1.993   7.773 -0.1571  0.4137 -0.0518
   33MOL   H21618200   5.702   2.141   8.018  0.2706 -0.0523  0.3511
   33MOL   H21718201   5.558   2.269   8.155  0.6293  1.3714 -2.4621
   33MOL   H21818202   5.341   2.332   8.228  1.7725  0.4004 -0.6026
   33MOL   H21918203   4.852   2.317   8.155  0.8785 -1.0564  0.6951
   33MOL   H22018204   4.789   2.177   8.081 -0.0351 -0.3442  1.3633
   33MOL   H22118205   4.830   2.280   7.859 -0.1618  1.2702 -0.3715
   33MOL   H22218206   4.726   2.379   7.963  0.2628  1.6437  0.4462
   33MOL   H22318207   5.161   2.106   7.901 -0.8339  1.6656 -0.0328
   33MOL   H22418208   5.322   1.988   7.734  2.9204  0.6990 -1.5589
   33MOL   H22518209   5.536   1.933   7.684 -1.3585 -2.7375  1.8331
   33MOL   O22618210   4.768   2.596   7.856 -0.5669 -0.2229  0.1000
   33MOL   C22718211   4.885   2.564   7.873 -0.5901 -0.3312 -0.0206
   33MOL   O22818212   4.917   2.459   7.941 -0.0262 -0.3263 -0.1226
   33MOL   C22918213   5.003   2.638   7.820  0.3666  0.2248 -0.3457
   33MOL   C23018214   4.980   2.751   7.736  0.0794 -0.2146 -0.1731
   33MOL   C23118215   5.082   2.822   7.667 -0.0975 -0.3127  0.0459
   33MOL   C23218216   5.061   2.930   7.577 -0.0678 -0.5553 -0.4056
   33MOL   C23318217   5.165   2.976   7.494  0.2255 -0.3409  0.4340
   33MOL   C23418218   5.292   2.916   7.504 -0.4704 -0.1290 -0.1182
   33MOL   C23518219   5.395   2.964   7.399 -0.0788  0.1426  0.3352
   33MOL   O23618220   5.504   2.884   7.405  0.1054 -0.1701 -0.5468
   33MOL   C23718221   5.610   2.897   7.311  0.4258  0.3332  0.1437
   33MOL   C23818222   5.584   2.857   7.163 -0.3085 -0.3120  0.2488
   33MOL   O23918223   5.383   3.056   7.320 -0.6110  0.6862  0.0704
   33MOL   C24018224   5.320   2.822   7.602  1.1114  0.5190  0.7494
   33MOL   C24118225   5.216   2.768   7.680  0.4939  0.2217 -0.7567
   33MOL   C24218226   5.234   2.663   7.770 -0.9788 -0.4365  0.0257
   33MOL   C24318227   5.132   2.594   7.835 -0.6154 -0.2738 -0.0435
   33MOL   H24418228   4.881   2.769   7.696  0.4719  0.9839 -0.6351
   33MOL   H24518229   4.963   2.974   7.568  0.3491  0.3646 -0.4835
   33MOL   H24618230   5.139   3.047   7.417  1.5039  0.8631  1.0750
   33MOL   H24718231   5.696   2.840   7.344 -0.0376 -0.8320 -0.6516
   33MOL   H24818232   5.645   3.001   7.312  0.2701  0.4226 -2.0753
   33MOL   H24918233   5.526   2.937   7.119  0.2540 -0.1526 -0.2101
   33MOL   H25018234   5.681   2.855   7.114  0.1846  1.0678  1.1333
   33MOL   H25118235   5.416   2.773   7.608  0.6777 -0.4798 -0.1845
   33MOL   H25218236   5.335   2.629   7.790 -1.5367 -1.2135  1.5112
   33MOL   H25318237   5.156   2.503   7.888 -0.3532 -0.5941 -0.6984
   33MOL   O25418238   5.700   2.615   7.141 -0.0858  0.1051 -0.1712
   33MOL   C25518239   5.581   2.622   7.147 -0.3074  0.4590 -1.0666
   33MOL   O25618240   5.512   2.742   7.151  0.2021 -0.4337  0.3152
   33MOL   C25718241   5.490   2.509   7.154 -0.0013  0.0803 -0.1456
   33MOL   C25818242   5.351   2.532   7.163 -0.2438  0.3527  0.0054
   33MOL   C25918243   5.269   2.417   7.173  0.0940  1.0729  0.7112
   33MOL   C26018244   5.135   2.439   7.166  0.1792 -0.1472 -0.0411
   33MOL   C26118245   5.047   2.329   7.188  0.9999 -0.3491  0.8963
   33MOL   C26218246   5.099   2.197   7.198 -0.9539  0.1636  0.3426
   33MOL   C26318247   4.998   2.089   7.222  0.0650 -0.3876 -0.5340
   33MOL   O26418248   5.044   1.968   7.187 -0.3277 -0.6805 -1.0559
   33MOL   C26518249   4.953   1.858   7.212  0.4441 -0.0414  1.0012
   33MOL   C26618250   4.964   1.812   7.351  0.1076  0.1690  0.0488
   33MOL   O26718251   4.880   2.110   7.251 -0.0986  0.2395  0.5851
   33MOL   C26818252   5.238   2.174   7.197  0.0399  0.2035 -0.4751
   33MOL   C26918253   5.322   2.285   7.176  0.1950  0.2182  0.2723
   33MOL   C27018254   5.461   2.270   7.150  0.1031 -0.7502  0.1969
   33MOL   C27118255   5.546   2.382   7.150  1.0794 -0.3921 -0.4155
   33MOL   H27218256   5.316   2.633   7.152 -0.8336  0.0651 -0.7785
   33MOL   H27318257   5.102   2.542   7.170  2.2666  0.4654  1.8404
   33MOL   H27418258   4.942   2.351   7.204  0.2683 -2.2616 -1.1163
   33MOL   H27518259   4.967   1.772   7.146  0.5696  1.2239 -0.6527
   33MOL   H27618260   4.849   1.881   7.186  0.3153  0.9551  2.3511
   33MOL   H27718261   4.953   1.894   7.422  0.8513  0.1564  0.1855
   33MOL   H27818262   4.878   1.746   7.364  0.0436  0.4828  1.2696
   33MOL   H27918263   5.288   2.079   7.202  1.0916  0.6834 -1.6504
   33MOL   H28018264   5.507   2.173   7.135  1.8328 -0.0278  0.6903
   33MOL   H28118265   5.648   2.369   7.119  1.1594 -0.8018  0.0271
   33MOL   O28218266   5.204   1.891   7.427  0.4975 -0.1259 -0.6192
   33MOL   C28318267   5.195   1.774   7.400  0.3435 -0.0076 -0.7849
   33MOL   O28418268   5.077   1.724   7.379  0.2273 -0.0368  0.1915
   33MOL   C28518269   5.316   1.681   7.397 -0.0517  0.0990 -0.5518
   33MOL   C28618270   5.311   1.540   7.357  0.0958 -0.2354  0.3009
   33MOL   C28718271   5.429   1.460   7.361  0.5489  0.4248 -0.5015
   33MOL   C28818272   5.431   1.322   7.338  0.4371 -0.4899  0.7112
   33MOL   C28918273   5.549   1.242   7.348 -0.8904 -0.9706  0.0508
   33MOL   C29018274   5.673   1.305   7.376  0.0582  0.0024 -0.6386
   33MOL   C29118275   5.796   1.223   7.380 -0.1750  0.5032 -0.3199
   33MOL   O29218276   5.906   1.304   7.394 -0.0849  0.6372  0.2654
   33MOL   C29318277   6.031   1.247   7.389 -0.5871 -0.4501 -0.0742
   33MOL   C29418278   6.049   1.157   7.511 -0.2206  1.0626  0.3416
   33MOL   O29518279   5.802   1.101   7.352 -0.6238  0.3665 -0.3416
   33MOL   C29618280   5.674   1.446   7.399  0.7698  0.3230 -0.3343
   33MOL   C29718281   5.555   1.519   7.398  0.5980  0.6648 -0.9791
   33MOL   C29818282   5.560   1.658   7.441  0.3035 -0.1203 -0.3753
   33MOL   C29918283   5.442   1.734   7.442  0.1670 -0.4964  0.1314
   33MOL   H30018284   5.220   1.492   7.324  1.5952 -2.5669 -0.5665
   33MOL   H30118285   5.336   1.275   7.316 -0.1412 -0.1181  2.3080
   33MOL   H30218286   5.547   1.136   7.326  1.1676 -1.0062 -0.1061
   33MOL   H30318287   6.097   1.334   7.396 -0.5677 -0.5146  0.6105
   33MOL   H30418288   6.053   1.191   7.298 -0.2855  0.4126 -0.5338
   33MOL   H30518289   6.002   1.199   7.600 -1.4428  0.8447 -0.1968
   33MOL   H30618290   5.998   1.062   7.495  0.4952  0.3118  2.3721
   33MOL   H30718291   5.770   1.490   7.425  0.3952  0.9768 -0.0412
   33MOL   H30818292   5.655   1.699   7.471  0.2939 -0.0791 -0.4006
   33MOL   H30918293   5.450   1.836   7.477  0.4117 -0.0599 -1.2070
   33MOL   O31018294   6.188   1.110   7.756 -0.0321 -0.7382  0.2696
   33MOL   C31118295   6.250   1.128   7.649 -0.1013  0.3719 -0.9692
   33MOL   O31218296   6.190   1.142   7.529  0.2756 -0.1365  0.1535
   33MOL   C31318297   6.396   1.134   7.629 -0.3333 -0.4383 -0.1470
   33MOL   C31418298   6.455   1.187   7.515 -0.6421 -0.7052 -0.1663
   33MOL   C31518299   6.596   1.197   7.498  0.5672 -0.1500  0.1815
   33MOL   C31618300   6.650   1.252   7.375 -0.2582 -0.3802  0.2368
   33MOL   C31718301   6.788   1.267   7.357  0.0503 -0.0647  0.3096
   33MOL   C31818302   6.870   1.229   7.474  0.6804  0.3045  0.2475
   33MOL   C31918303   7.018   1.248   7.467 -0.4864  0.5084 -0.2515
   33MOL   O32018304   7.056   1.335   7.371 -0.6074 -0.3595 -0.2457
   33MOL   C32118305   7.189   1.372   7.358  0.6349  0.9565  0.3208
   33MOL   C32218306   7.264   1.288   7.250 -0.4537 -0.1167 -0.9435
   33MOL   O32318307   7.095   1.186   7.534  0.0649  0.1402  0.0611
   33MOL   C32418308   6.817   1.187   7.593 -0.2906 -0.0546  0.2218
   33MOL   C32518309   6.680   1.161   7.611 -0.1775  0.1186  0.7716
   33MOL   C32618310   6.629   1.111   7.729  0.0101 -0.1578 -0.8556
   33MOL   C32718311   6.485   1.112   7.739 -0.6206  0.5072  0.3746
   33MOL   H32818312   6.393   1.228   7.437 -0.8801  0.4297  0.6081
   33MOL   H32918313   6.589   1.298   7.299  2.2707 -0.2249 -1.7738
   33MOL   H33018314   6.815   1.323   7.269 -0.0069  2.6412  1.9514
   33MOL   H33118315   7.251   1.368   7.448 -0.6990  0.4613  1.2417
   33MOL   H33218316   7.191   1.478   7.332  3.1822  1.1909  1.2570
   33MOL   H33318317   7.213   1.284   7.154  0.9318 -1.9001 -1.6330
   33MOL   H33418318   7.357   1.342   7.236 -0.9905  0.6937 -1.4461
   33MOL   H33518319   6.887   1.168   7.673  1.9380 -1.0052 -1.9019
   33MOL   H33618320   6.696   1.092   7.812 -0.0495  1.6041 -0.4005
   33MOL   H33718321   6.450   1.089   7.838  0.1947  2.0267  1.0203
   33MOL   O33818322   7.243   1.075   7.097  0.6671 -0.0493 -0.1508
   33MOL   C33918323   7.281   1.059   7.214  0.9591 -0.3669 -0.3965
   33MOL   O34018324   7.292   1.160   7.299 -0.2019  0.1156  0.4041
   33MOL   C34118325   7.331   0.929   7.273 -0.0732  0.1471 -0.4027
   33MOL   C34218326   7.401   0.919   7.396  0.1091 -0.4726 -0.3550
   33MOL   C34318327   7.453   0.794   7.440 -0.5855  0.8108  0.9314
   33MOL   C34418328   7.530   0.791   7.554  0.4097 -0.2180 -1.1004
   33MOL   C34518329   7.581   0.669   7.605  0.4700  0.1668  0.7165
   33MOL   C34618330   7.545   0.548   7.539 -0.3005  0.0382 -0.6271
   33MOL   C34718331   7.587   0.412   7.594  0.2300 -0.7628  0.4030
   33MOL   O34818332   7.484   0.331   7.628  0.2387  0.0363 -0.2120
   33MOL   C34918333   7.512   0.207   7.681  0.9504 -1.0438 -0.5810
   33MOL   C35018334   7.530   0.100   7.567 -0.2515 -0.0801  0.2303
   33MOL   O35118335   7.706   0.386   7.603  0.2976 -0.1910 -0.2582
   33MOL   C35218336   7.464   0.556   7.422  0.1758 -0.4528  0.7539
   33MOL   C35318337   7.419   0.677   7.372 -0.1440  0.1621  1.0066
   33MOL   C35418338   7.346   0.683   7.258 -0.4194  0.7356  0.3356
   33MOL   C35518339   7.308   0.810   7.205  0.8042 -0.1593 -0.2110
   33MOL   H35618340   7.405   1.001   7.466  1.3153 -1.4969  0.7899
   33MOL   H35718341   7.556   0.886   7.599 -0.1619 -0.7092  0.2847
   33MOL   H35818342   7.649   0.652   7.688 -0.9266  0.6997  1.9848
   33MOL   H35918343   7.433   0.176   7.749  2.2470 -1.4850  0.7409
   33MOL   H36018344   7.604   0.221   7.737  0.4918  1.8981 -0.5075
   33MOL   H36118345   7.600   0.143   7.496  1.3257 -0.9813  1.1839
   33MOL   H36218346   7.580   0.008   7.599  1.0666  0.4004 -0.4105
   33MOL   H36318347   7.430   0.464   7.377  0.0735 -0.8944  1.7283
   33MOL   H36418348   7.334   0.589   7.206 -2.9341  1.6067 -0.7497
   33MOL   H36518349   7.242   0.821   7.121  3.2367 -2.1080 -2.4596
   33MOL   O36618350   7.414   0.224   7.355 -0.7068  0.4966  0.8536
   33MOL   C36718351   7.355   0.131   7.406  0.2153 -0.7862  0.4184
   33MOL   O36818352   7.399   0.065   7.516  0.2198  0.4720  0.5200
   33MOL   C36918353   7.224   0.084   7.356  0.8108 -0.4622 -0.2420
   33MOL   C37018354   7.148   8.227   7.417  0.3321 -0.3350  0.2197
   33MOL   C37118355   7.020   8.193   7.363  0.0113  0.8543  0.3594
   33MOL   C37218356   6.946   8.097   7.437  0.0089  0.6326 -0.5662
   33MOL   C37318357   6.816   8.063   7.390  0.0853 -0.2904 -0.2970
   33MOL   C37418358   6.762   8.125   7.274  0.2690  0.6230 -0.4142
   33MOL   C37518359   6.629   8.086   7.220 -0.4961  0.5251  0.0513
   33MOL   O37618360   6.604   8.119   7.090  0.6354  0.5382 -0.1764
   33MOL   C37718361   6.482   8.082   7.028 -0.3815  0.3374 -0.3676
   33MOL   C37818362   6.410   8.196   6.952 -0.7837 -0.1002 -0.2707
   33MOL   O37918363   6.547   8.024   7.285 -0.5664  0.1395  0.1331
   33MOL   C38018364   6.842   8.216   7.201 -0.2970 -0.4115  0.1938
   33MOL   C38118365   6.970   0.007   7.249  0.0477  0.0573  0.6154
   33MOL   C38218366   7.041   0.111   7.187  0.3391 -0.3341  0.0773
   33MOL   C38318367   7.168   0.148   7.238 -0.1323  0.7008  0.1828
   33MOL   H38418368   7.185   8.184   7.509  0.8282  2.0299  1.1516
   33MOL   H38518369   6.983   8.051   7.528  1.3340 -0.2423 -1.5200
   33MOL   H38618370   6.762   7.982   7.436 -0.1396  0.3085  0.4912
   33MOL   H38718371   6.409   8.056   7.105  2.3314 -0.8456  1.8816
   33MOL   H38818372   6.493   7.991   6.970 -0.5993 -0.3798  0.6998
   33MOL   H38918373   6.305   8.166   6.958 -0.7052 -0.1016  1.3347
   33MOL   H39018374   6.396   0.042   7.003 -1.3890 -0.2896 -0.0717
   33MOL   H39118375   6.810   0.005   7.105  0.2874 -1.3522 -0.3865
   33MOL   H39218376   7.006   0.164   7.100  1.1854  0.5591  0.2686
   33MOL   H39318377   7.220   0.227   7.187  2.4871 -1.3792 -0.4669
   33MOL   O39418378   6.594   0.136   6.878 -1.1205 -0.5446  0.1338
   33MOL   C39518379   6.547   0.060   6.798 -0.4397  0.4090 -0.2056
   33MOL   O39618380   6.453   8.208   6.819 -0.2149  0.6560  0.2233
   33MOL   C39718381   6.567   0.082   6.656  0.1772  0.2231  0.0783
   33MOL   C39818382   6.519   8.240   6.558 -0.2419  0.7368 -0.3621
   33MOL   C39918383   6.528   0.022   6.421 -0.4118  0.4180  0.2421
   33MOL   C40018384   6.485   8.186   6.316 -0.3034 -0.8487 -0.2929
   33MOL   C40118385   6.474   8.232   6.184 -0.4676  0.2212 -0.9049
   33MOL   C40218386   6.506   0.116   6.148 -0.8925  0.5006 -0.4463
   33MOL   C40318387   6.480   0.153   6.009 -0.7363 -0.6426 -0.0425
   33MOL   O40418388   6.508   0.282   5.992  0.1192  0.1589 -0.3696
   33MOL   C40518389   6.453   0.359   5.888 -0.5384  0.4293 -0.4834
   33MOL   C40618390   6.311   0.396   5.934 -0.6689  0.0061  0.0684
   33MOL   O40718391   6.410   0.094   5.928 -0.0786 -0.6258 -0.3615
   33MOL   C40818392   6.564   0.198   6.248  0.4078  0.2233 -0.0435
   33MOL   C40918393   6.573   0.148   6.379  0.1127 -0.6010  0.1458
   33MOL   C41018394   6.626   0.239   6.475  0.3345  0.2887  0.2470
   33MOL   C41118395   6.632   0.201   6.611 -0.0263  0.0681 -0.4932
   33MOL   H41218396   6.472   8.144   6.576 -2.9943  1.9890 -0.5942
   33MOL   H41318397   6.442   8.089   6.338 -1.1072 -0.1003  1.5103
   33MOL   H41418398   6.435   8.164   6.109 -0.4390  0.5182 -1.1878
   33MOL   H41518399   6.458   0.296   5.800 -0.0771 -0.0620 -0.1116
   33MOL   H41618400   6.504   0.452   5.863 -0.9648  0.7093 -0.3160
   33MOL   H41718401   6.250   0.416   5.846 -1.1447 -2.9782 -0.3304
   33MOL   H41818402   6.255   0.311   5.974 -0.5273  0.5843  1.5438
   33MOL   H41918403   6.590   0.301   6.230 -0.0580  0.3029 -0.2636
   33MOL   H42018404   6.670   0.335   6.450  0.4187 -0.0257 -0.8845
   33MOL   H42118405   6.682   0.262   6.685 -0.5832  1.0066 -0.8841
   33MOL   O42218406   6.077   0.529   5.983  0.3873 -0.6770 -0.1190
   33MOL   C42318407   6.178   0.554   6.053 -0.4463 -0.3906 -0.4073
   33MOL   O42418408   6.299   0.495   6.030  0.2812  0.3749 -0.1285
   33MOL   C42518409   6.181   0.637   6.181  0.8062  0.6831 -0.4382
   33MOL   C42618410   6.057   0.647   6.254 -0.2056  0.6634  0.6293
   33MOL   C42718411   6.053   0.712   6.381  0.1034 -0.3658  0.0800
   33MOL   C42818412   5.933   0.738   6.444 -0.4245  0.5448  0.1860
   33MOL   C42918413   5.932   0.803   6.572  0.3957 -0.0504 -0.5492
   33MOL   C43018414   6.058   0.838   6.630 -0.0002  1.1181 -0.7128
   33MOL   C43118415   6.054   0.921   6.752  1.0551 -0.0665  0.1141
   33MOL   O43218416   6.175   0.921   6.818  0.0354  0.9613  0.5087
   33MOL   C43318417   6.182   0.951   6.951  0.1159 -0.7664 -0.5445
   33MOL   C43418418   6.253   1.089   6.966  0.6001  0.3448 -0.0499
   33MOL   O43518419   5.960   0.985   6.795 -0.0385  0.2588 -0.4106
   33MOL   C43618420   6.174   0.806   6.568 -0.0866 -0.0267  0.0539
   33MOL   C43718421   6.174   0.749   6.439  0.6522 -0.4492  0.5413
   33MOL   C43818422   6.296   0.725   6.374  0.7605  0.2655 -0.8675
   33MOL   C43918423   6.302   0.675   6.240 -0.1767 -0.4796  0.0398
   33MOL   H44018424   5.971   0.598   6.212  0.2747 -1.0769  1.6417
   33MOL   H44118425   5.839   0.710   6.400 -1.0053  2.9615 -0.2165
   33MOL   H44218426   5.841   0.817   6.630 -0.3071  0.4933 -1.7696
   33MOL   H44318427   6.233   0.869   7.001  0.8051 -0.4270 -0.6880
   33MOL   H44418428   6.088   0.957   7.005 -0.1390 -4.0331 -0.5394
   33MOL   H44518429   6.306   1.115   6.874 -3.1771  0.1059 -2.4185
   33MOL   H44618430   6.183   1.168   6.992 -0.0656 -0.0145 -0.7466
   33MOL   H44718431   6.269   0.837   6.608 -0.3409  0.0725  0.5732
   33MOL   H44818432   6.386   0.753   6.427  0.9702  0.3076 -1.2422
   33MOL   H44918433   6.400   0.660   6.197 -0.4758  0.6178 -1.0730
   33MOL   O45018434   6.520   1.066   6.949  0.1524  0.1330 -0.4340
   33MOL   C45118435   6.468   1.037   7.055  0.6817  0.2405  0.0281
   33MOL   O45218436   6.342   1.073   7.077  0.0413  0.2270 -0.5763
   33MOL   C45318437   6.539   0.979   7.173 -0.1613 -0.4257 -0.2737
   33MOL   C45418438   6.680   0.963   7.170  0.2231 -0.5304 -0.4468
   33MOL   C45518439   6.744   0.908   7.281  0.3256  0.0116 -0.5345
   33MOL   C45618440   6.887   0.898   7.271  0.2135 -0.1390 -0.6147
   33MOL   C45718441   6.962   0.849   7.380  1.1212 -0.0946 -0.2002
   33MOL   C45818442   6.897   0.810   7.503 -0.3565 -0.6574  0.7342
   33MOL   C45918443   6.972   0.751   7.610 -0.4007 -0.3619  0.7187
   33MOL   O46018444   7.105   0.788   7.611 -0.3367  0.4325 -0.3941
   33MOL   C46118445   7.177   0.735   7.723  0.2447  0.5013 -0.2383
   33MOL   C46218446   7.245   0.594   7.704 -0.0902  0.3338  0.1024
   33MOL   O46318447   6.917   0.674   7.687  0.1246  0.2305  0.0609
   33MOL   C46418448   6.761   0.828   7.511  0.0703 -0.1647  0.1265
   33MOL   C46518449   6.681   0.867   7.395 -0.0699 -0.1548  1.0661
   33MOL   C46618450   6.541   0.875   7.396 -0.3949 -0.2763  0.0547
   33MOL   C46718451   6.474   0.936   7.290 -0.5148  0.1124 -0.6721
   33MOL   H46818452   6.736   0.981   7.080  0.0987  2.7937  0.0563
   33MOL   H46918453   6.940   0.948   7.191 -0.3044 -0.7564 -1.3568
   33MOL   H47018454   7.069   0.830   7.378  1.5944  1.9487  2.5630
   33MOL   H47118455   7.129   0.756   7.818  0.6121  0.8763 -0.1308
   33MOL   H47218456   7.264   0.800   7.733 -0.3091  2.1793 -4.9316
   33MOL   H47318457   7.288   0.607   7.604  1.1779  0.0612  0.6010
   33MOL   H47418458   7.335   0.580   7.763 -0.0659  0.4571  0.0943
   33MOL   H47518459   6.703   0.807   7.599 -0.2589 -2.8536 -0.6983
   33MOL   H47618460   6.478   0.844   7.478 -1.1604 -1.2588 -0.8972
   33MOL   H47718461   6.369   0.961   7.295 -0.8201 -1.4346  2.1656
   33MOL   O47818462   7.162   0.408   7.502  0.6731 -0.5648 -0.2561
   33MOL   C47918463   7.120   0.398   7.619 -0.4765 -0.3300 -0.1310
   33MOL   O48018464   7.153   0.485   7.725 -0.5068  0.2921  0.2858
   33MOL   C48118465   7.024   0.294   7.659  0.4402 -0.1324  0.2049
   33MOL   C48218466   7.018   0.262   7.795  0.2456  0.2424  0.6963
   33MOL   C48318467   6.921   0.168   7.838 -0.2914 -0.4428 -0.0295
   33MOL   C48418468   6.913   0.145   7.976  0.1387  0.1499 -0.0220
   33MOL   C48518469   6.821   0.048   8.019 -0.0453 -0.4731 -0.4242
   33MOL   C48618470   6.731   8.240   7.926 -0.3142 -0.0019 -0.5033
   33MOL   C48718471   6.637   8.138   7.976 -0.8325 -0.2388 -0.4074
   33MOL   O48818472   6.617   8.138   8.102 -0.1693  0.4634  0.3131
   33MOL   C48918473   6.536   8.032   8.155 -0.3208  0.2287 -0.3536
   33MOL   C49018474   6.622   7.982   0.031  0.8171 -0.7060 -0.2620
   33MOL   O49118475   6.593   8.058   7.895 -0.3035  0.4357 -0.2971
   33MOL   C49218476   6.729   0.030   7.789  0.3225  0.0882 -0.1865
   33MOL   C49318477   6.826   0.118   7.745 -0.7913 -0.0258 -0.2204
   33MOL   C49418478   6.835   0.150   7.608  0.3257  0.4209 -0.0199
   33MOL   C49518479   6.937   0.235   7.564 -0.3669 -0.5755  0.2968
   33MOL   H49618480   7.091   0.298   7.866  1.2624  0.3829 -0.4106
   33MOL   H49718481   6.975   0.194   8.050 -2.2401  0.1662  2.0346
   33MOL   H49818482   6.821   0.015   8.122 -1.6234  0.3635 -0.1388
   33MOL   H49918483   6.517   7.952   8.085  0.5302  0.8140 -1.2642
   33MOL   H50018484   6.437   8.072   8.176 -0.2507 -0.4984  1.4599
   33MOL   H50118485   6.628   8.066   0.100  0.6668 -0.5040 -0.4934
   33MOL   H50218486   6.561   7.907   0.082 -1.2114  0.5314 -0.8029
   33MOL   H50318487   6.664   8.244   7.710 -1.0705 -0.6413  1.2568
   33MOL   H50418488   6.760   0.106   7.544  1.4977 -0.3831 -0.8529
   33MOL   H50518489   6.952   0.273   7.464  3.8185  1.0082  1.4236
   33MOL   O50618490   6.690   7.728   8.213  0.4967 -0.5516  0.3400
   33MOL   C50718491   6.779   7.811   8.207 -0.1117 -0.5190 -0.2640
   33MOL   O50818492   6.753   7.944   8.245  0.1946 -0.4010 -0.0360
   33MOL   C50918493   6.921   7.791   8.160  0.7334 -1.1265 -0.0863
   33MOL   C51018494   6.963   7.655   8.133  0.2172 -0.5148  0.3411
   33MOL   C51118495   7.096   7.633   8.105 -0.4183  0.0769 -0.5556
   33MOL   C51218496   7.156   7.499   8.103  0.7350  0.0930  1.4803
   33MOL   C51318497   7.296   7.481   8.080  0.6900  0.1206 -0.1405
   33MOL   C51418498   7.383   7.595   8.053  0.3884 -0.3927 -0.0673
   33MOL   C51518499   7.530   7.565   8.033 -0.3816 -0.4369  0.0533
   33MOL   O51618500   7.603   7.670   7.994  0.3129 -0.3104  0.1500
   33MOL   C51718501   7.738   7.657   7.963  0.3792 -0.5119 -0.3527
   33MOL   C51818502   7.758   7.591   7.829 -0.2211 -0.0454 -0.5645
   33MOL   O51918503   7.576   7.446   8.017  0.0627  0.6866 -0.5680
   33MOL   C52018504   7.324   7.717   8.060 -0.3458 -0.0209 -0.1464
   33MOL   C52118505   7.188   7.740   8.088  0.5683  0.7584 -0.5444
   33MOL   C52218506   7.144   7.875   8.098 -0.3387  0.1605 -0.0582
   33MOL   C52318507   7.015   7.897   8.144 -0.0709 -0.1135  0.0692
   33MOL   H52418508   6.888   7.577   8.136 -1.8507  1.3778 -0.5310
   33MOL   H52518509   7.092   7.415   8.127  2.8366 -1.9969 -0.0356
   33MOL   H52618510   7.338   7.382   8.078 -1.9287 -1.0804  1.0569
   33MOL   H52718511   7.776   7.598   8.046  1.4039 -0.2427 -0.6260
   33MOL   H52818512   7.789   7.753   7.963 -2.9323  1.3461  0.1207
   33MOL   H52918513   7.864   7.582   7.804 -0.4436  2.2232 -2.4175
   33MOL   H53018514   7.728   7.486   7.839 -0.7271 -0.1219 -2.5677
   33MOL   H53118515   7.382   7.808   8.056  0.0240 -0.2570 -0.1823
   33MOL   H53218516   7.217   7.955   8.090  2.7406 -2.5433 -0.0974
   33MOL   H53318517   6.977   7.996   8.165 -1.0848 -0.6752  0.9020
   33MOL   O53418518   7.818   7.840   7.708  0.0626 -0.1559 -0.1663
   33MOL   C53518519   7.716   7.776   7.675 -0.0684  0.3026  0.3904
   33MOL   O53618520   7.689   7.649   7.725 -0.1243  0.1089 -0.3490
   33MOL   C53718521   7.614   7.822   7.576 -0.5058 -0.1076  0.6291
   33MOL   C53818522   7.497   7.747   7.555 -0.0546 -0.0434  1.0336
   33MOL   C53918523   7.401   7.792   7.458  0.2406 -0.3220  0.1575
   33MOL   C54018524   7.287   7.720   7.431  0.0530 -0.9971  0.8135
   33MOL   C54118525   7.194   7.765   7.334  0.2593 -0.7262  0.2794
   33MOL   C54218526   7.217   7.881   7.264  0.1499  0.1922  0.0778
   33MOL   C54318527   7.127   7.909   7.147 -0.2528 -0.0983 -0.3774
   33MOL   O54418528   7.171   8.018   7.079  0.4555 -0.5214 -0.1548
   33MOL   C54518529   7.094   8.067   6.970 -0.3149  0.5753  0.1242
   33MOL   C54618530   7.176   8.156   6.874  0.7187  0.1872  0.6855
   33MOL   O54718531   7.039   7.835   7.102 -0.0095 -0.5073 -0.0690
   33MOL   C54818532   7.332   7.961   7.296 -0.2171 -1.1556 -0.4795
   33MOL   C54918533   7.422   7.917   7.394 -0.8647 -0.6978 -0.1933
   33MOL   C55018534   7.545   7.989   7.414  0.5775  0.6037  0.2574
   33MOL   C55118535   7.638   7.944   7.508  0.0957 -0.2525  0.4249
   33MOL   H55218536   7.476   7.655   7.608 -2.3589 -0.3966 -0.4190
   33MOL   H55318537   7.267   7.637   7.498 -0.8999  0.9716  3.0635
   33MOL   H55418538   7.105   7.708   7.309  0.6938 -1.5098  0.4990
   33MOL   H55518539   7.013   8.124   7.015 -0.6585 -0.9523  1.4802
   33MOL   H55618540   7.035   7.988   6.924  0.2808  0.7536 -0.9577
   33MOL   H55718541   7.204   8.249   6.923 -0.2551  0.1235  1.3778
   33MOL   H55818542   7.110   8.175   6.789 -0.1840  0.8182  1.5191
   33MOL   H55918543   7.366   8.050   7.246  0.4033 -0.1519  1.6765
   33MOL   H56018544   7.561   8.086   7.369  1.2500  2.1361  3.6160
   33MOL   H56118545   7.729   7.997   7.534  0.5525 -2.0903  2.6734
   33MOL   H56218546   7.261   8.099   6.837  1.0375  0.7312  0.5924
   34MOL     O118547   0.520   2.183   7.075 -0.2884  0.4950  0.3516
   34MOL     C218548   0.506   2.074   7.135 -0.0657 -0.5714 -0.1292
   34MOL     O318549   0.609   1.988   7.139 -0.2725  0.1684 -0.2966
   34MOL     C418550   0.375   2.039   7.196  0.3691  0.0436 -0.3403
   34MOL     C518551   0.343   1.901   7.220  0.0079 -0.3898  0.4458
   34MOL     C618552   0.212   1.868   7.258 -0.0830 -0.5075 -0.1518
   34MOL     C718553   0.172   1.731   7.275 -0.1931 -0.1516  0.0164
   34MOL     C818554   0.041   1.703   7.313  0.6264  1.0955 -0.3414
   34MOL     C918555   8.198   1.804   7.347  0.5706  0.0159 -0.1228
   34MOL    C1018556   8.064   1.770   7.400  0.0763 -0.3931  0.0298
   34MOL    O1118557   7.971   1.860   7.380 -0.4393  0.2271  0.3711
   34MOL    C1218558   7.837   1.857   7.431 -0.6463  0.6754 -0.4407
   34MOL    C1318559   7.858   1.920   7.571 -0.0053  0.2775  0.5389
   34MOL    O1418560   8.039   1.669   7.467  0.1528 -0.4944  0.6726
   34MOL    C1518561   8.240   1.935   7.322 -0.7756  0.1858 -0.7605
   34MOL    C1618562   0.118   1.972   7.279 -0.5395 -0.2098  0.0920
   34MOL    C1718563   0.160   2.108   7.273  0.5992 -0.3148 -0.5762
   34MOL    C1818564   0.289   2.149   7.236 -0.5387 -0.3734  0.4631
   34MOL    H1918565   0.404   1.815   7.199 -1.7442 -2.0522  2.0532
   34MOL    H2018566   0.241   1.650   7.256  0.6979  0.2400  1.5634
   34MOL    H2118567   8.244   1.607   7.329  0.9008  1.5619  3.8031
   34MOL    H2218568   7.772   1.916   7.366 -0.7562  0.0936 -0.8614
   34MOL    H2318569   7.787   1.761   7.432 -1.2753  1.0052  0.4253
   34MOL    H2418570   7.943   1.988   7.581 -0.1676  0.5567  0.0225
   34MOL    H2518571   7.774   1.986   7.590 -0.2646 -0.3904  1.7592
   34MOL    H2618572   8.172   2.016   7.344 -3.0955 -1.1336 -2.7836
   34MOL    H2718573   0.085   2.183   7.293 -0.1207 -1.3931  0.8147
   34MOL    H2818574   0.316   2.253   7.224  1.0908 -0.7709  0.5872
   34MOL    H2918575   0.681   2.033   7.099 -1.6812  1.9143 -0.9376
   34MOL    O3018576   7.635   1.800   7.642  0.5225  0.2926 -0.5213
   34MOL    C3118577   7.738   1.762   7.696 -0.1995  0.1182  0.0299
   34MOL    O3218578   7.851   1.817   7.665  0.2870 -0.1867  0.3184
   34MOL    C3318579   7.750   1.655   7.798 -0.1121 -0.1818  0.3146
   34MOL    C3418580   7.629   1.612   7.859 -0.0064  0.5866 -0.3721
   34MOL    C3518581   7.633   1.517   7.962 -0.1675 -1.1403  0.8667
   34MOL    C3618582   7.518   1.473   8.028  0.1208  0.6681 -0.4380
   34MOL    C3718583   7.522   1.392   8.146 -0.3624  0.0894  0.2247
   34MOL    C3818584   7.646   1.333   8.173 -0.4151 -0.5147 -0.2218
   34MOL    C3918585   7.660   1.232   0.034 -0.1062 -0.1718  0.1588
   34MOL    O4018586   7.785   1.178   0.059  0.0229 -0.9085 -0.8545
   34MOL    C4118587   7.815   1.090   0.170  0.6699  0.3840  0.4910
   34MOL    C4218588   7.806   0.942   0.116  0.3920 -0.7384  0.1245
   34MOL    O4318589   7.562   1.195   0.102  0.0413 -0.0210  0.7986
   34MOL    C4418590   7.759   1.369   8.103 -0.4477  0.2737 -0.5157
   34MOL    C4518591   7.756   1.466   7.998 -0.0243 -0.5915 -0.0329
   34MOL    C4618592   7.872   1.497   7.935 -0.8834 -0.2341  0.6235
   34MOL    C4718593   7.867   1.591   7.830 -0.0645 -0.1000  0.0723
   34MOL    H4818594   7.540   1.661   7.823 -1.5507 -0.6042  1.7019
   34MOL    H4918595   7.422   1.508   7.993 -1.0060 -1.0809  0.8117
   34MOL    H5018596   7.429   1.359   8.190 -1.1542 -0.7495 -2.0086
   34MOL    H5118597   7.744   1.107   0.252  0.6218 -1.4986  0.8584
   34MOL    H5218598   7.919   1.105   0.198  1.3947  0.0014 -1.8760
   34MOL    H5318599   7.700   0.922   0.102 -0.0603  1.1360  0.6674
   34MOL    H5418600   7.863   0.929   0.024  1.8832  0.9973  0.7630
   34MOL    H5518601   7.859   1.337   8.130 -0.1865 -0.5388 -2.3750
   34MOL    H5618602   7.968   1.451   7.953  0.0327  0.4792 -2.2160
   34MOL    H5718603   7.960   1.618   7.781  0.1408  0.9377  1.0066
   34MOL    O5818604   8.058   0.894   0.187 -0.3177  0.3728  0.3595
   34MOL    C5918605   7.968   0.830   0.239 -0.1979 -0.3193 -0.4561
   34MOL    O6018606   7.837   0.853   0.217 -0.6375  0.1718  0.3852
   34MOL    C6118607   7.984   0.725   0.346 -0.1554 -0.3864 -0.1368
   34MOL    C6218608   8.075   0.757   0.447  0.2529  0.9237  0.1925
   34MOL    C6318609   8.107   0.648   0.532 -0.1507 -0.2299  0.2431
   34MOL    C6418610   8.202   0.680   0.630  0.0280  0.7350  0.1895
   34MOL    C6518611   8.229   0.582   0.730 -0.0057 -0.0457 -0.6090
   34MOL    C6618612   8.168   0.457   0.730  0.3967 -0.1999  0.8741
   34MOL    C6718613   8.198   0.355   0.829 -0.1637 -0.5417  0.4361
   34MOL    O6818614   0.073   0.381   0.890 -0.3100  0.4120  0.2135
   34MOL    C6918615   0.105   0.299   1.000  0.4648  0.1962 -0.3825
   34MOL    C7018616   0.247   0.248   0.968  0.4567 -0.6348 -0.0675
   34MOL    O7118617   8.109   0.272   0.865  0.5168 -0.7819 -0.4464
   34MOL    C7218618   8.074   0.435   0.627  0.0990 -0.5047  0.4932
   34MOL    C7318619   8.039   0.529   0.531 -0.0910 -0.1788  0.3337
   34MOL    C7418620   7.945   0.503   0.432 -0.2931 -0.5297 -0.4438
   34MOL    C7518621   7.907   0.605   0.344  0.0920 -0.1310  0.5699
   34MOL    H7618622   8.114   0.857   0.449  3.2430 -0.1215 -2.2928
   34MOL    H7718623   8.246   0.776   0.650  1.6982 -0.2128  1.1657
   34MOL    H7818624   0.037   0.604   0.820 -1.6340  1.7992  0.0285
   34MOL    H7918625   0.054   0.203   0.998 -0.5493  0.7141  0.2313
   34MOL    H8018626   0.083   0.341   1.098  0.4624 -0.6172 -0.0298
   34MOL    H8118627   0.246   0.208   0.867  1.7176 -1.2075  0.1469
   34MOL    H8218628   0.332   0.315   0.965  1.6559 -2.1620 -0.5889
   34MOL    H8318629   8.031   0.337   0.613  2.3174 -1.2498 -1.3287
   34MOL    H8418630   7.886   0.413   0.444 -0.5891 -0.2015  0.6806
   34MOL    H8518631   7.824   0.584   0.279  1.3785  0.1355 -1.1833
   34MOL    O8618632   0.320   0.264   1.237 -0.3996 -0.1047  0.6597
   34MOL    C8718633   0.320   0.158   1.178 -0.2254 -0.0053 -0.5827
   34MOL    O8818634   0.277   0.137   1.051 -0.8982  0.1803 -0.1276
   34MOL    C8918635   0.347   0.027   1.240  0.5386 -0.3154  0.2695
   34MOL    C9018636   0.430   0.021   1.356  0.0176 -0.6524  0.3121
   34MOL    C9118637   0.457   8.138   1.417 -0.3168 -0.7425  0.4971
   34MOL    C9218638   0.537   8.132   1.535  0.3754 -0.2747 -0.5274
   34MOL    C9318639   0.579   8.008   1.587 -0.3921 -0.7028 -0.8968
   34MOL    C9418640   0.535   7.889   1.532  0.1276 -0.4890 -0.4193
   34MOL    C9518641   0.578   7.759   1.581  0.3998  0.2653  0.3453
   34MOL    O9618642   0.520   7.651   1.522  0.6424  0.0907  0.1015
   34MOL    C9718643   0.542   7.524   1.570 -0.4557 -0.1201 -0.0827
   34MOL    C9818644   0.449   7.412   1.515 -0.3857 -0.1583  0.3884
   34MOL    O9918645   0.649   7.749   1.679  0.1856 -0.6090  1.1375
   34MOL   C10018646   0.451   7.895   1.420  1.0547  0.3544 -0.1548
   34MOL   C10118647   0.419   8.019   1.357 -0.5336  0.8708 -0.1527
   34MOL   C10218648   0.339   8.027   1.244  0.2160 -0.1488  1.0301
   34MOL   C10318649   0.312   8.149   1.184  0.2285  0.1443 -0.3207
   34MOL   H10418650   0.464   0.111   1.405 -1.2701 -1.0310  1.9489
   34MOL   H10518651   0.558   8.223   1.589 -0.2840 -0.3690 -0.1160
   34MOL   H10618652   0.634   8.006   1.680  0.1241 -0.2969 -1.1944
   34MOL   H10718653   0.542   7.518   1.679 -2.4170 -2.1841 -0.1544
   34MOL   H10818654   0.644   7.501   1.539  0.1360 -1.1136  2.4301
   34MOL   H10918655   0.365   7.396   1.582 -0.3951  0.2815  0.4850
   34MOL   H11018656   0.398   7.453   1.428 -1.0804 -1.7553  0.0330
   34MOL   H11118657   0.426   7.803   1.370  0.8769  1.2444 -1.7453
   34MOL   H11218658   0.306   7.941   1.188  1.6934  0.8569 -1.4913
   34MOL   H11318659   0.254   8.150   1.092  0.9617 -0.6715 -0.8065
   34MOL   O11418660   0.505   7.215   1.702  0.0779  0.6777  0.6990
   34MOL   C11518661   0.530   7.190   1.581  0.0312  0.2901  0.2430
   34MOL   O11618662   0.515   7.289   1.484  0.1664  0.1319  0.3656
   34MOL   C11718663   0.597   7.072   1.516 -1.0889  0.5322 -0.0569
   34MOL   C11818664   0.600   7.050   1.377  0.2160 -0.3738 -0.3990
   34MOL   C11918665   0.645   6.927   1.326  0.1250 -0.1220  0.3862
   34MOL   C12018666   0.638   6.906   1.185 -0.3005 -0.3401 -0.4042
   34MOL   C12118667   0.684   6.784   1.134  0.4970 -0.7991  0.4811
   34MOL   C12218668   0.732   6.679   1.215 -0.4763  0.2486 -0.4621
   34MOL   C12318669   0.781   6.544   1.158  0.3007 -0.2481  0.3979
   34MOL   O12418670   0.830   6.565   1.031  0.8259  0.4096  0.0088
   34MOL   C12518671   0.867   6.453   0.950  0.6189  0.1159 -0.5505
   34MOL   C12618672   0.951   6.496   0.831 -0.0068  0.4540 -1.1602
   34MOL   O12718673   0.774   6.438   1.215  0.3213 -0.4042  0.5495
   34MOL   C12818674   0.744   6.701   1.353 -0.3356 -0.2106  0.0146
   34MOL   C12918675   0.687   6.821   1.414 -0.4407  0.5530  0.0788
   34MOL   C13018676   0.688   6.842   1.551  0.1531  0.2152  0.5310
   34MOL   C13118677   0.646   6.966   1.596 -0.5885 -0.3198 -0.0818
   34MOL   H13218678   0.579   7.135   1.314 -0.2576 -0.5117 -0.4330
   34MOL   H13318679   0.587   6.976   1.121 -0.0205 -0.2357 -0.5159
   34MOL   H13418680   0.679   6.764   1.028 -2.8839 -1.9619  0.7904
   34MOL   H13518681   0.772   6.403   0.928  1.3029 -1.6156  0.2759
   34MOL   H13618682   0.908   6.376   1.016 -1.4725 -1.2179 -0.7501
   34MOL   H13718683   1.047   6.536   0.861 -0.0114 -1.0539  1.0070
   34MOL   H13818684   0.982   6.408   0.774  2.7204 -0.4336  1.5968
   34MOL   H13918685   0.783   6.618   1.410  1.4432  2.2152  2.4176
   34MOL   H14018686   0.720   6.761   1.616 -1.4976  0.5325  1.7860
   34MOL   H14118687   0.631   6.978   1.702 -1.2232 -1.8757  0.0185
   34MOL   O14218688   0.698   6.484   0.687 -0.2211 -0.4059 -0.0430
   34MOL   C14318689   0.772   6.581   0.687  0.6326  0.0444  0.0800
   34MOL   O14418690   0.890   6.594   0.750 -0.1151  0.5611  0.2095
   34MOL   C14518691   0.726   6.708   0.631  0.2726 -0.0066  0.2346
   34MOL   C14618692   0.777   6.838   0.677  0.8180 -0.3876  0.4743
   34MOL   C14718693   0.729   6.958   0.627  0.0839  0.0113  0.4726
   34MOL   C14818694   0.785   7.080   0.663  0.0649 -0.1256  0.3412
   34MOL   C14918695   0.720   7.199   0.618 -0.9495  0.0722 -0.4827
   34MOL   C15018696   0.611   7.200   0.531 -0.2939 -0.6687 -0.0999
   34MOL   C15118697   0.543   7.330   0.486  0.0701 -0.0900 -0.4741
   34MOL   O15218698   0.433   7.303   0.412  0.0601  0.4674  0.5626
   34MOL   C15318699   0.335   7.401   0.392  0.3471  0.3506  0.1214
   34MOL   C15418700   0.215   7.374   0.483 -0.6780 -0.3139 -0.0173
   34MOL   O15518701   0.585   7.438   0.516  0.0502 -0.0325  0.5029
   34MOL   C15618702   0.559   7.070   0.493  0.0863 -0.2214  0.3651
   34MOL   C15718703   0.621   6.952   0.539  0.4035 -0.0152 -0.4254
   34MOL   C15818704   0.570   6.829   0.487 -0.4988  0.3633 -0.6069
   34MOL   C15918705   0.628   6.709   0.528  0.2787 -0.5880  0.2562
   34MOL   H16018706   0.867   6.843   0.737 -0.1168 -1.3127  1.9943
   34MOL   H16118707   0.864   7.068   0.735  0.6291 -4.3376 -0.8297
   34MOL   H16218708   0.765   7.292   0.650 -1.8595  0.8298 -1.3802
   34MOL   H16318709   0.292   7.386   0.293 -1.7932 -3.7661  1.5573
   34MOL   H16418710   0.369   7.503   0.412 -3.1717  1.7043 -0.3528
   34MOL   H16518711   0.261   7.360   0.581  1.1048  2.0596 -0.4668
   34MOL   H16618712   0.131   7.443   0.477  0.8975  1.7605  1.3446
   34MOL   H16718713   0.464   7.047   0.448  0.8988 -3.7166  0.2690
   34MOL   H16818714   0.479   6.830   0.429 -1.2655  1.1150  0.5668
   34MOL   H16918715   0.588   6.618   0.487 -1.5731  0.4272 -0.2249
   34MOL   O17018716   0.027   7.238   0.615  0.5411 -0.1432  0.0483
   34MOL   C17118717   0.074   7.186   0.517 -0.8793  0.8766  1.1636
   34MOL   O17218718   0.164   7.248   0.437 -0.6172  0.6324 -0.0530
   34MOL   C17318719   0.035   7.052   0.469  0.9032 -0.0834  0.9186
   34MOL   C17418720   0.127   6.968   0.403 -0.0715 -0.2042 -0.1313
   34MOL   C17518721   0.085   6.834   0.386 -0.7634 -0.5608 -0.1307
   34MOL   C17618722   0.175   6.732   0.342  0.4675 -0.3478 -0.3913
   34MOL   C17718723   0.137   6.595   0.334 -0.4072 -0.5898 -0.1659
   34MOL   C17818724   0.005   6.557   0.369  0.1230 -0.0817 -0.3824
   34MOL   C17918725   8.206   6.410   0.368  0.2137  0.8746  0.4264
   34MOL   O18018726   0.027   6.340   0.281  0.5202  0.2262 -0.2824
   34MOL   C18118727   0.004   6.199   0.262 -0.7359 -0.5723  0.0966
   34MOL   C18218728   0.133   6.117   0.287 -0.5104  0.3974 -0.1046
   34MOL   O18318729   8.102   6.364   0.417  0.3459 -0.0906  0.2688
   34MOL   C18418730   8.162   6.653   0.413 -0.0391 -0.1265  0.5808
   34MOL   C18518731   8.203   6.787   0.425  0.0392  0.5854 -0.3824
   34MOL   C18618732   8.114   6.876   0.485  0.1850 -0.7528 -0.1218
   34MOL   C18718733   8.154   7.010   0.502 -0.0335  0.0024  0.2451
   34MOL   H18818734   0.233   6.988   0.400  0.1971 -1.3027  1.2949
   34MOL   H18918735   0.273   6.751   0.301 -0.3207  3.0819 -0.8494
   34MOL   H19018736   0.199   6.512   0.303 -1.9034 -2.0909  0.7500
   34MOL   H19118737   8.208   6.187   0.163  0.2887  1.1375 -0.6001
   34MOL   H19218738   8.166   6.170   0.321 -1.7727  2.5901  0.2241
   34MOL   H19318739   0.122   6.015   0.249  1.7085  0.4289 -0.9117
   34MOL   H19418740   0.219   6.160   0.235  0.1468 -0.2131  0.4569
   34MOL   H19518741   8.067   6.616   0.449 -0.0280  0.8501  1.6670
   34MOL   H19618742   8.012   6.854   0.513 -0.0306  0.5049  0.1160
   34MOL   H19718743   8.090   7.069   0.565 -1.9765 -1.2647 -0.5132
   34MOL   O19818744   0.310   6.284   0.405 -0.4707 -0.2946 -0.2262
   34MOL   C19918745   0.241   6.213   0.477 -0.1720  0.2439 -0.2423
   34MOL   O20018746   0.156   6.122   0.427 -0.6828  0.1489 -0.5162
   34MOL   C20118747   0.258   6.205   0.619 -0.0987  0.1661 -0.2035
   34MOL   C20218748   0.355   6.289   0.686  0.3044  0.2354  0.3065
   34MOL   C20318749   0.366   6.297   0.822 -0.7444 -0.2935 -0.2025
   34MOL   C20418750   0.447   6.395   0.879  0.5385  0.1567 -0.3613
   34MOL   C20518751   0.456   6.408   1.018  0.1207  0.6950 -0.6071
   34MOL   C20618752   0.380   6.322   1.099  0.3771  0.8951 -0.5884
   34MOL   C20718753   0.382   6.326   1.253 -0.5156 -0.2282  0.2351
   34MOL   O20818754   0.416   6.448   1.291  0.2805  0.0619  0.1565
   34MOL   C20918755   0.465   6.461   1.424  0.1880  0.1386 -0.2899
   34MOL   C21018756   0.414   6.601   1.477 -0.1958  0.4678  0.1658
   34MOL   O21118757   0.350   6.236   1.326 -0.0871  0.1992 -0.1692
   34MOL   C21218758   0.310   6.217   1.041  0.2125  0.6998  0.8670
   34MOL   C21318759   0.298   6.203   0.903 -0.1607 -0.5025 -0.6948
   34MOL   C21418760   0.215   6.106   0.845  0.6727  1.0309 -0.6383
   34MOL   C21518761   0.194   6.113   0.702  0.0851 -0.0712  0.1186
   34MOL   H21618762   0.413   6.351   0.620 -1.7137 -0.3600 -2.1195
   34MOL   H21718763   0.498   6.462   0.811  2.7400 -1.0532  0.0855
   34MOL   H21818764   0.502   6.498   1.058 -0.1955  0.6204 -0.0715
   34MOL   H21918765   0.571   6.443   1.406 -0.2262 -0.2659 -2.5488
   34MOL   H22018766   0.433   6.379   1.489 -0.0424 -0.0443 -0.6278
   34MOL   H22118767   0.447   6.671   1.401 -2.5391 -0.5987 -1.9003
   34MOL   H22218768   0.305   6.599   1.467 -0.5074  1.2653  2.7698
   34MOL   H22318769   0.254   6.152   1.107 -0.6380 -0.3669 -0.8723
   34MOL   H22418770   0.169   6.030   0.906  2.1265  1.2456  0.7698
   34MOL   H22518771   0.117   6.048   0.661 -1.5347  2.3514 -0.8310
   34MOL   O22618772   0.331   6.461   1.694 -0.3073 -0.4811 -0.0301
   34MOL   C22718773   0.389   6.567   1.709  0.0095 -0.5814  1.0147
   34MOL   O22818774   0.441   6.633   1.607 -0.0488  0.0275 -0.0992
   34MOL   C22918775   0.433   6.630   1.832  0.0182  0.2006 -0.9035
   34MOL   C23018776   0.491   6.764   1.846  0.2781  0.1089  0.0321
   34MOL   C23118777   0.530   6.811   1.970 -0.1093 -0.3636 -0.6515
   34MOL   C23218778   0.579   6.937   1.994  0.3018 -0.3748 -0.8704
   34MOL   C23318779   0.603   6.986   2.125  0.4238 -0.5045  0.5322
   34MOL   C23418780   0.584   6.898   2.236 -0.1945  0.3778 -0.2855
   34MOL   C23518781   0.636   6.938   2.368 -0.7682  0.2284  0.1631
   34MOL   O23618782   0.701   7.053   2.370 -0.1240  0.1603 -0.1326
   34MOL   C23718783   0.724   7.119   2.491  0.5332 -0.6813 -0.0794
   34MOL   C23818784   0.592   7.183   2.544 -0.6636 -0.6308  0.6114
   34MOL   O23918785   0.618   6.872   2.473  0.1387 -0.1121  0.3479
   34MOL   C24018786   0.511   6.777   2.213 -0.3461 -0.4625  0.0936
   34MOL   C24118787   0.491   6.736   2.083 -0.1331  0.2396 -0.2308
   34MOL   C24218788   0.433   6.607   2.071 -0.5172 -0.5060  0.2554
   34MOL   C24318789   0.403   6.557   1.945 -0.0110 -0.6562  0.5980
   34MOL   H24418790   0.499   6.825   1.758 -1.5976 -0.8722 -0.8637
   34MOL   H24518791   0.604   6.992   1.905  1.6738  1.6920  0.7410
   34MOL   H24618792   0.633   7.089   2.138 -3.0396  0.5135  1.0256
   34MOL   H24718793   0.803   7.193   2.487 -0.0180 -0.0839 -0.0065
   34MOL   H24818794   0.748   7.045   2.568 -1.9471  0.4668  1.8695
   34MOL   H24918795   0.511   7.113   2.566 -3.8829  2.7152 -0.0378
   34MOL   H25018796   0.598   7.237   2.639  1.1232 -2.2531  1.4636
   34MOL   H25118797   0.490   6.713   2.297  1.7361 -2.0156 -0.5317
   34MOL   H25218798   0.411   6.547   2.158  0.3802 -2.2815 -0.7095
   34MOL   H25318799   0.370   6.454   1.935 -1.4711 -0.1808  0.4020
   34MOL   O25418800   0.370   7.326   2.571 -0.2725  0.4640 -0.7797
   34MOL   C25518801   0.432   7.328   2.466  0.1959  0.4780  0.1432
   34MOL   O25618802   0.534   7.252   2.437  0.4742  0.1293 -0.4603
   34MOL   C25718803   0.364   7.379   2.346 -0.0693 -0.1610 -0.0165
   34MOL   C25818804   0.362   7.306   2.222 -1.1024  0.6034 -0.5614
   34MOL   C25918805   0.313   7.370   2.106  0.7719  0.5869  0.6343
   34MOL   C26018806   0.327   7.321   1.973  0.3215  0.1222 -0.1037
   34MOL   C26118807   0.278   7.386   1.863  0.6482 -0.2828  0.8156
   34MOL   C26218808   0.205   7.505   1.878 -0.2436  0.0744  0.5003
   34MOL   C26318809   0.139   7.567   1.759  0.3606  0.1376 -0.4741
   34MOL   O26418810   0.035   7.641   1.800 -0.0145 -0.2998 -0.4018
   34MOL   C26518811   8.201   7.708   1.707  0.6086 -0.1518 -0.0086
   34MOL   C26618812   8.137   7.624   1.588 -0.0060  0.4341  0.2119
   34MOL   O26718813   0.177   7.559   1.641  0.2249 -0.1171  0.1817
   34MOL   C26818814   0.193   7.557   2.011  0.0978 -0.2536  0.0643
   34MOL   C26918815   0.242   7.494   2.122  0.4768  0.1935 -0.1978
   34MOL   C27018816   0.229   7.558   2.246 -0.5067 -0.2999 -0.6464
   34MOL   C27118817   0.300   7.503   2.354 -0.0173 -0.3433 -0.1316
   34MOL   H27218818   0.413   7.211   2.220  0.5374  1.4163  0.9330
   34MOL   H27318819   0.379   7.227   1.963 -0.6767 -0.7549  2.3420
   34MOL   H27418820   0.289   7.337   1.768  1.3368 -1.3203  1.4278
   34MOL   H27518821   0.011   7.784   1.656  1.0099 -0.0619  0.5840
   34MOL   H27618822   8.118   7.753   1.761  1.1411  1.4326 -0.4789
   34MOL   H27718823   8.093   7.693   1.515  0.0400 -0.2633 -0.4865
   34MOL   H27818824   8.214   7.567   1.536  1.4271 -0.5330  3.3188
   34MOL   H27918825   0.140   7.647   2.037 -0.3891 -0.6083  0.3145
   34MOL   H28018826   0.171   7.646   2.271 -2.4092 -1.6334 -0.2143
   34MOL   H28118827   0.308   7.562   2.444 -0.6369  1.5798 -1.3214
   34MOL   O28218828   7.860   7.682   1.555 -0.5295  0.5962 -0.0948
   34MOL   C28318829   7.892   7.577   1.613 -0.3448  0.3458  0.0909
   34MOL   O28418830   8.023   7.540   1.627  0.1554  0.6304 -0.5485
   34MOL   C28518831   7.795   7.479   1.666  0.8526  0.5092 -0.8795
   34MOL   C28618832   7.660   7.513   1.691  0.3928  0.0288  0.2784
   34MOL   C28718833   7.576   7.422   1.757 -0.1723  0.9344  0.2598
   34MOL   C28818834   7.439   7.455   1.774 -0.5500 -0.5883 -0.4662
   34MOL   C28918835   7.358   7.365   1.856  0.6099  0.0924  0.0774
   34MOL   C29018836   7.413   7.242   1.904 -0.5422 -0.1218  0.1749
   34MOL   C29118837   7.333   7.149   1.995 -0.4665 -0.0604  0.1297
   34MOL   O29218838   7.205   7.166   1.986  0.2666  0.1743 -0.3503
   34MOL   C29318839   7.115   7.104   2.078  0.5720  0.1185 -0.3009
   34MOL   C29418840   7.084   7.187   2.207 -0.0874 -0.0216  0.3950
   34MOL   O29518841   7.385   7.069   2.075 -0.2673  0.0749 -0.5825
   34MOL   C29618842   7.547   7.207   1.878 -0.3044  0.6981 -0.1059
   34MOL   C29718843   7.626   7.298   1.798  0.2847  0.0160  0.6340
   34MOL   C29818844   7.757   7.265   1.773 -0.3172 -0.3902 -0.2632
   34MOL   C29918845   7.840   7.350   1.702 -0.1030 -0.2074  0.8141
   34MOL   H30018846   7.625   7.610   1.659 -3.3491 -1.5415 -0.6146
   34MOL   H30118847   7.402   7.553   1.748  1.3165  0.4945  0.8278
   34MOL   H30218848   7.253   7.387   1.870  0.9087  0.8097  1.2570
   34MOL   H30318849   7.152   7.008   2.114 -1.7936 -0.1995  1.4368
   34MOL   H30418850   7.024   7.072   2.026  1.8149 -3.2986 -0.4811
   34MOL   H30518851   7.052   7.286   2.172 -1.1333 -1.2216 -2.1541
   34MOL   H30618852   7.011   7.136   2.269  0.8613 -0.8732  0.8248
   34MOL   H30718853   7.582   7.110   1.911 -1.2562  0.3310 -0.1754
   34MOL   H30818854   7.808   7.177   1.808  0.8894  0.6608  0.6794
   34MOL   H30918855   7.944   7.325   1.690  0.0616  0.5727  0.6284
   34MOL   O31018856   7.138   7.045   2.449 -0.0665 -0.0352  0.8243
   34MOL   C31118857   7.232   7.114   2.394 -0.0301 -0.6100  0.0044
   34MOL   O31218858   7.206   7.198   2.281 -0.2842  0.2765 -0.0684
   34MOL   C31318859   7.369   7.110   2.443 -0.2784 -0.4345  0.2585
   34MOL   C31418860   7.474   7.188   2.379 -0.1061 -0.6791 -0.3819
   34MOL   C31518861   7.603   7.194   2.437  0.5835 -0.1245 -0.0830
   34MOL   C31618862   7.698   7.284   2.382  0.1568 -0.2688 -0.3668
   34MOL   C31718863   7.829   7.284   2.440  0.0792 -0.5001 -0.4762
   34MOL   C31818864   7.859   7.206   2.557 -0.7968 -0.0609 -0.1180
   34MOL   C31918865   7.995   7.198   2.615 -0.9139  0.0886  0.1865
   34MOL   O32018866   8.090   7.251   2.535  0.4368 -0.5465 -0.3184
   34MOL   C32118867   8.220   7.287   2.589 -0.2078 -0.2388 -0.2569
   34MOL   C32218868   8.209   7.421   2.659  0.1519  0.5898 -0.4106
   34MOL   O32318869   8.021   7.159   2.730 -0.2860  0.3119  0.3596
   34MOL   C32418870   7.756   7.134   2.623  0.3883  0.0181  0.1264
   34MOL   C32518871   7.629   7.116   2.557 -0.0330  0.4609 -0.2115
   34MOL   C32618872   7.533   7.037   2.606  0.5534  0.6633 -0.0390
   34MOL   C32718873   7.403   7.039   2.561  0.1267 -0.0995  0.0875
   34MOL   H32818874   7.441   7.242   2.291  0.3172 -0.2320 -0.2718
   34MOL   H32918875   7.678   7.333   2.288 -1.7442 -0.3351 -0.0013
   34MOL   H33018876   7.902   7.348   2.392 -2.6666  2.4470 -0.8658
   34MOL   H33118877   0.040   7.313   2.509  2.0998  3.5997  2.8245
   34MOL   H33218878   0.019   7.205   2.644 -3.3447 -2.4085 -0.5593
   34MOL   H33318879   8.139   7.408   2.742  0.5480 -0.6914 -0.2664
   34MOL   H33418880   0.047   7.454   2.716  1.0309 -0.3191 -1.2110
   34MOL   H33518881   7.785   7.076   2.709  0.0972 -0.1163  0.1316
   34MOL   H33618882   7.567   6.975   2.688 -1.1472 -1.4850 -0.8983
   34MOL   H33718883   7.337   6.971   2.614 -1.4980  0.1912 -1.4981
   34MOL   O33818884   7.967   7.556   2.671 -0.5947  0.3540  0.2379
   34MOL   C33918885   8.051   7.589   2.587 -0.0210  0.3823  0.1306
   34MOL   O34018886   8.167   7.527   2.574  0.4144  0.1354 -0.6998
   34MOL   C34118887   8.036   7.699   2.483 -0.1381 -0.2663 -0.2607
   34MOL   C34218888   7.921   7.784   2.487  0.4203  0.0541  0.9173
   34MOL   C34318889   7.902   7.888   2.398 -0.7527  1.0585  0.1030
   34MOL   C34418890   7.792   7.971   2.402 -0.3274  0.8690 -0.1327
   34MOL   C34518891   7.787   8.083   2.324  0.4268  0.1442  0.1969
   34MOL   C34618892   7.879   8.106   2.214  0.0354 -0.1762 -0.4831
   34MOL   C34718893   7.866   8.224   2.122 -0.2224  0.0608 -0.1326
   34MOL   O34818894   7.972   8.236   2.036  0.2394  0.1258  0.6487
   34MOL   C34918895   7.979   0.102   1.949  0.6722 -0.2170  0.1636
   34MOL   C35018896   8.129   0.152   1.961 -0.1096 -0.5913  0.0962
   34MOL   O35118897   7.777   0.061   2.132 -0.1457 -0.1284 -0.7142
   34MOL   C35218898   7.985   8.011   2.197  0.1450 -0.2368 -0.5239
   34MOL   C35318899   7.994   7.907   2.292  0.7399 -0.0351 -0.0943
   34MOL   C35418900   8.105   7.817   2.276  0.5843 -0.2636  0.7874
   34MOL   C35518901   8.117   7.712   2.368  0.3981  0.1680  0.3306
   34MOL   H35618902   7.861   7.767   2.576 -0.2151  1.6925  0.8185
   34MOL   H35718903   7.717   7.966   2.480 -0.2960  1.6779 -0.0408
   34MOL   H35818904   7.703   8.150   2.337 -0.1819 -0.5759 -0.0149
   34MOL   H35918905   7.899   0.174   1.967 -0.4482 -0.9237 -1.8228
   34MOL   H36018906   7.960   0.058   1.851 -0.8685  2.0288 -0.5863
   34MOL   H36118907   8.159   0.231   1.893 -1.2933  0.2122  0.4834
   34MOL   H36218908   8.136   0.190   2.063  1.9693  1.2038 -0.6815
   34MOL   H36318909   8.056   8.026   2.116  0.2070  1.2247 -0.1963
   34MOL   H36418910   8.181   7.815   2.200  0.6607 -1.1909  0.8779
   34MOL   H36518911   8.193   7.636   2.357  0.0495 -0.3207  1.2136
   34MOL   O36618912   8.204   0.006   1.733  0.0362  0.1882 -0.7205
   34MOL   C36718913   0.006   8.231   1.845 -0.1107  0.3139 -0.0283
   34MOL   O36818914   8.214   0.035   1.961  0.5850  0.0761 -0.7740
   34MOL   C36918915   0.103   8.116   1.864 -0.7114  0.9099 -0.7529
   34MOL   C37018916   0.150   8.088   1.990 -0.8850 -0.0668  0.5146
   34MOL   C37118917   0.251   7.992   2.007 -0.5603  0.3743 -0.0905
   34MOL   C37218918   0.318   7.975   2.131 -0.1949  0.0586  0.1463
   34MOL   C37318919   0.424   7.886   2.148 -0.2454 -0.6234  0.3868
   34MOL   C37418920   0.459   7.801   2.044 -0.7489  0.9982 -0.8251
   34MOL   C37518921   0.560   7.694   2.060  0.2494 -0.8027  0.4549
   34MOL   O37618922   0.536   7.592   1.978  0.1321 -0.0385 -0.1474
   34MOL   C37718923   0.628   7.486   1.966  0.1139 -0.2821  0.6895
   34MOL   C37818924   0.766   7.520   1.900  0.6293 -0.8490  0.0104
   34MOL   O37918925   0.660   7.706   2.131  0.4798  0.1107 -0.0858
   34MOL   C38018926   0.394   7.808   1.918  0.4545 -1.0955  0.5243
   34MOL   C38118927   0.297   7.908   1.905 -0.0434 -0.5211 -0.0134
   34MOL   C38218928   0.241   7.932   1.773 -0.4855  0.1932  0.0087
   34MOL   C38318929   0.144   8.034   1.753  0.4457 -0.2887  0.2772
   34MOL   H38418930   0.129   8.153   2.074  0.2918  1.8210 -0.6139
   34MOL   H38518931   0.295   8.045   2.211  1.1709  0.1157  0.5141
   34MOL   H38618932   0.484   7.880   2.238 -1.4541 -0.4102  1.2128
   34MOL   H38718933   0.575   7.409   1.911  1.8683 -0.2443 -1.0922
   34MOL   H38818934   0.627   7.460   2.072 -2.9981  2.7016  1.4760
   34MOL   H38918935   0.767   7.624   1.868 -0.6888 -0.2872  1.7099
   34MOL   H39018936   0.843   7.523   1.978 -0.8494  1.4573  1.4547
   34MOL   H39118937   0.426   7.746   1.835 -1.4977 -2.7688  0.9822
   34MOL   H39218938   0.286   7.870   1.697  1.1984 -2.3922  2.9608
   34MOL   H39318939   0.110   8.056   1.654  0.1481  0.5173  0.5556
   34MOL   O39418940   0.883   7.268   1.919 -0.3076 -0.8114 -0.2259
   34MOL   C39518941   0.848   7.313   1.808 -0.1716  0.0935 -0.5204
   34MOL   O39618942   0.797   7.440   1.790  0.2497  0.0045 -0.3031
   34MOL   C39718943   0.890   7.253   1.678 -0.0132 -0.5254  0.3648
   34MOL   C39818944   0.942   7.120   1.673 -0.3232  0.3530  0.7678
   34MOL   C39918945   0.972   7.056   1.550  0.0636  0.7114  0.6136
   34MOL   C40018946   1.018   6.924   1.559 -0.1909  0.2799 -0.3585
   34MOL   C40118947   1.040   6.853   1.442  0.0193  1.1255 -0.0689
   34MOL   C40218948   1.028   6.917   1.318 -0.0390 -0.2785 -0.4879
   34MOL   C40318949   1.047   6.841   1.191  0.3098  0.5085 -0.0988
   34MOL   O40418950   1.072   6.920   1.077  0.0999  0.2609  0.2406
   34MOL   C40518951   1.104   6.854   0.956  0.2857  0.0450  0.4177
   34MOL   C40618952   1.201   6.938   0.862 -0.1983  0.1899 -0.6338
   34MOL   O40718953   1.050   6.718   1.189 -0.0104  0.1308 -0.0066
   34MOL   C40818954   0.976   7.048   1.310 -0.1322 -0.2253  0.0925
   34MOL   C40918955   0.953   7.123   1.429  0.5459 -0.2280  0.8785
   34MOL   C41018956   0.902   7.253   1.431  0.0007  0.2465  0.8577
   34MOL   C41118957   0.878   7.319   1.552 -0.1023 -0.6043 -0.1991
   34MOL   H41218958   0.960   7.060   1.761  0.4829  0.0835  0.4288
   34MOL   H41318959   1.041   6.891   1.660 -2.4952 -0.8215 -0.1592
   34MOL   H41418960   1.072   6.751   1.441 -1.3322  0.6768  0.7321
   34MOL   H41518961   1.020   6.820   0.897 -0.0140 -0.0703  0.9121
   34MOL   H41618962   1.156   6.761   0.978  0.1545 -0.3509 -0.9023
   34MOL   H41718963   1.226   6.877   0.775  0.6012  0.2588 -0.4505
   34MOL   H41818964   1.148   7.031   0.843  2.1401  1.9560  1.2027
   34MOL   H41918965   0.965   7.089   1.211  2.3509  1.8288  0.6196
   34MOL   H42018966   0.884   7.299   1.335 -1.2420 -0.9190  0.5248
   34MOL   H42118967   0.832   7.417   1.550  2.1663  0.4893 -0.0790
   34MOL   O42218968   1.404   7.103   0.760  0.5065 -0.1710 -0.3998
   34MOL   C42318969   1.418   7.049   0.872  0.5885 -0.0429 -0.4475
   34MOL   O42418970   1.325   6.968   0.931  0.2743  0.0569  0.1616
   34MOL   C42518971   1.541   7.071   0.961 -0.5635 -0.3582  0.2108
   34MOL   C42618972   1.539   7.027   1.096  0.5416 -0.6551 -1.0029
   34MOL   C42718973   1.658   7.051   1.171 -0.1658 -0.2363 -0.4305
   34MOL   C42818974   1.665   7.003   1.307  0.0377  0.2026  0.1384
   34MOL   C42918975   1.785   7.022   1.387  0.3761 -0.4764  0.4976
   34MOL   C43018976   1.902   7.083   1.332 -0.1288 -0.4816 -0.0782
   34MOL   C43118977   2.022   7.101   1.416 -0.2172  0.8451  0.5639
   34MOL   O43218978   2.008   7.048   1.541  0.1052  0.2940 -0.1141
   34MOL   C43318979   2.122   7.034   1.629 -0.3138  0.2706  0.0538
   34MOL   C43418980   2.117   7.161   1.725 -0.2335  0.1181  0.2919
   34MOL   O43518981   2.127   7.159   1.372  0.6711 -0.0606 -0.8781
   34MOL   C43618982   1.891   7.135   1.203 -0.0910 -0.6781 -0.5084
   34MOL   C43718983   1.778   7.112   1.122  0.7658  0.2268 -0.1289
   34MOL   C43818984   1.768   7.160   0.989 -0.0373  0.2720 -0.2127
   34MOL   C43918985   1.652   7.152   0.915  0.4153  0.1275  0.0217
   34MOL   H44018986   1.458   6.973   1.141 -0.4077  3.8674  3.1787
   34MOL   H44118987   1.575   6.957   1.346 -0.7592  1.4457 -0.2038
   34MOL   H44218988   1.767   6.986   1.487  1.5286  0.8545  1.1943
   34MOL   H44318989   2.216   7.023   1.574 -2.2589  0.0574 -3.4022
   34MOL   H44418990   2.124   6.941   1.686  5.1784 -1.0738 -2.0018
   34MOL   H44518991   2.212   7.214   1.729  0.2172 -0.5844 -0.7484
   34MOL   H44618992   2.050   7.231   1.676  1.3655  0.3551 -1.6128
   34MOL   H44718993   1.972   7.184   1.151 -0.2630 -0.3662 -0.4889
   34MOL   H44818994   1.848   7.216   0.945 -0.0867  0.8713  0.4569
   34MOL   H44918995   1.664   7.185   0.813  2.8704 -0.0391  0.2350
   34MOL   O45018996   1.861   7.112   1.787  0.9583 -0.2284 -0.6717
   34MOL   C45118997   1.941   7.113   1.880 -0.1538 -0.0946  0.5493
   34MOL   O45218998   2.076   7.132   1.862 -0.4026 -0.3965  0.2609
   34MOL   C45318999   1.910   7.084   2.023  0.0161  0.4269  0.4500
   34MOL   C45419000   2.004   7.079   2.129  0.3618  0.2474  0.3099
   34MOL   C45519001   1.961   7.045   2.255  0.5973 -1.0689  0.4169
   34MOL   C45619002   2.054   7.041   2.365 -0.4964  0.3747  0.0231
   34MOL   C45719003   2.008   7.004   2.494  0.7623 -0.2655  0.8103
   34MOL   C45819004   1.872   6.976   2.516  0.5358 -0.0167 -0.3634
   34MOL   C45919005   1.817   6.944   2.652  0.0676  0.1511 -0.4379
   34MOL   O46019006   1.693   6.995   2.674 -0.5831  0.0541 -0.2927
   34MOL   C46119007   1.647   7.021   2.805 -0.3451  0.5740 -0.2406
   34MOL   C46219008   1.700   7.164   2.842  0.7149 -0.2350 -0.7698
   34MOL   O46319009   1.887   6.898   2.743 -0.2497  0.4115  1.0052
   34MOL   C46419010   1.779   6.986   2.406 -0.3044  0.2506  0.1860
   34MOL   C46519011   1.824   7.017   2.275 -0.0693  0.3282  0.0073
   34MOL   C46619012   1.733   7.014   2.167  0.2326  0.2417 -0.2157
   34MOL   C46719013   1.778   7.055   2.042  0.2376  0.3754  0.0964
   34MOL   H46819014   2.108   7.104   2.111 -0.1134  1.2902 -1.0504
   34MOL   H46919015   2.158   7.066   2.349  0.5153 -2.7815  1.1517
   34MOL   H47019016   2.072   6.998   2.582 -0.6760 -0.0763  1.8837
   34MOL   H47119017   1.694   6.940   2.859  0.3853  0.7323 -0.6280
   34MOL   H47219018   1.538   7.009   2.809 -0.2567  0.3177  1.4787
   34MOL   H47319019   1.658   7.196   2.937  3.4591 -0.9317  0.7594
   34MOL   H47419020   1.807   7.149   2.859  0.9349 -0.2202 -2.0902
   34MOL   H47519021   1.676   6.957   2.419  0.4370 -1.5725  2.2842
   34MOL   H47619022   1.628   7.001   2.189  0.3769 -1.7319 -0.6409
   34MOL   H47719023   1.710   7.071   1.960 -1.1370 -1.5773  0.7944
   34MOL   O47819024   1.896   7.290   2.698  0.2747 -0.0371  0.2712
   34MOL   C47919025   1.776   7.291   2.661 -0.1563 -0.5463  0.2323
   34MOL   O48019026   1.673   7.254   2.742 -0.2061  0.1663 -0.0627
   34MOL   C48119027   1.733   7.346   2.532  0.3523  0.7498  0.1106
   34MOL   C48219028   1.808   7.330   2.409 -0.3768 -0.0984  0.1956
   34MOL   C48319029   1.761   7.394   2.292  0.7695  0.5047 -0.5295
   34MOL   C48419030   1.838   7.385   2.177 -0.5995 -0.3910 -0.2484
   34MOL   C48519031   1.801   7.452   2.059  0.1818 -0.5162  0.2102
   34MOL   C48619032   1.679   7.522   2.058  0.1899 -0.5469  0.3106
   34MOL   C48719033   1.627   7.579   1.931 -0.1908 -0.1685 -0.8838
   34MOL   O48819034   1.712   7.566   1.828 -0.4927 -0.1963 -0.0920
   34MOL   C48919035   1.670   7.613   1.704  0.4236  0.5642  0.7305
   34MOL   C49019036   1.719   7.752   1.673  0.3688 -0.1595 -0.0791
   34MOL   O49119037   1.512   7.634   1.923 -0.0606  0.1069  0.6610
   34MOL   C49219038   1.604   7.531   2.175  0.1549 -0.0408  0.3745
   34MOL   C49319039   1.646   7.469   2.296  0.4249 -0.0713  0.0460
   34MOL   C49419040   1.576   7.492   2.414 -0.4926  0.1484 -0.5024
   34MOL   C49519041   1.619   7.431   2.532  0.8579  0.8010  0.2346
   34MOL   H49619042   1.909   7.289   2.408 -0.3172  0.0484  0.2172
   34MOL   H49719043   1.932   7.333   2.176  0.4330  1.4428 -2.0324
   34MOL   H49819044   1.867   7.435   1.976 -1.1927 -0.4648 -0.9090
   34MOL   H49919045   1.563   7.614   1.681  0.2910 -0.6384  1.2583
   34MOL   H50019046   1.720   7.556   1.626 -2.3991  0.4246 -1.0518
   34MOL   H50119047   1.653   7.820   1.727  2.5673  0.3367  2.1112
   34MOL   H50219048   1.819   7.772   1.713 -0.6181  1.3476  1.6777
   34MOL   H50319049   1.517   7.594   2.176 -0.2812 -0.5930 -1.7814
   34MOL   H50419050   1.489   7.555   2.409  0.0149  0.9238  0.4361
   34MOL   H50519051   1.570   7.439   2.628 -0.6291  3.3802 -0.6970
   34MOL   O50619052   1.621   7.944   1.476 -0.0069  0.0576  0.0483
   34MOL   C50719053   1.674   7.839   1.448  0.2613  0.1017 -0.0456
   34MOL   O50819054   1.732   7.761   1.536 -0.3404 -0.0904 -0.0073
   34MOL   C50919055   1.687   7.792   1.305 -0.2146 -0.2404 -0.1422
   34MOL   C51019056   1.799   7.712   1.270 -0.7209 -0.1605 -0.6394
   34MOL   C51119057   1.805   7.659   1.138  0.6405  0.2254  0.0320
   34MOL   C51219058   1.906   7.567   1.098 -0.3736 -0.8134  0.2461
   34MOL   C51319059   1.919   7.538   0.959 -0.9263  0.7470  0.5310
   34MOL   C51419060   1.829   7.575   0.863 -0.6616 -0.4240  0.5355
   34MOL   C51519061   1.847   7.543   0.720 -0.6754 -0.5483  0.3869
   34MOL   O51619062   1.740   7.541   0.648  0.1640 -0.5469 -0.6155
   34MOL   C51719063   1.755   7.528   0.507  0.1509 -0.6487  0.3685
   34MOL   C51819064   1.787   7.672   0.446  0.6170 -0.1055 -0.0529
   34MOL   O51919065   1.962   7.522   0.677  0.2908  0.5141  0.8057
   34MOL   C52019066   1.734   7.672   0.903 -0.4103  0.3199  0.2633
   34MOL   C52119067   1.719   7.706   1.035 -0.9353  0.6708 -0.1765
   34MOL   C52219068   1.616   7.791   1.068  0.5228  0.0307  0.5300
   34MOL   C52319069   1.598   7.838   1.202  0.1950  0.7832  0.0101
   34MOL   H52419070   1.869   7.686   1.349 -0.2403  0.1565 -0.9605
   34MOL   H52519071   1.974   7.539   1.176  0.6306  0.0905 -0.2919
   34MOL   H52619072   2.010   7.491   0.924  0.9211  4.0902  0.6419
   34MOL   H52719073   1.659   7.495   0.468 -0.4762 -0.2437  1.5191
   34MOL   H52819074   1.832   7.454   0.485  0.3785  0.0738 -1.3234
   34MOL   H52919075   1.785   7.743   0.529 -1.6934  3.5061 -3.0462
   34MOL   H53019076   1.884   7.668   0.396 -0.0393 -1.1963 -1.2612
   34MOL   H53119077   1.663   7.704   0.828 -1.6150  0.0214  1.2536
   34MOL   H53219078   1.560   7.836   0.987 -1.6099 -1.0738  1.3431
   34MOL   H53319079   1.523   7.910   1.230  0.7032  1.2004  0.3038
   34MOL   O53419080   1.527   7.757   0.506 -0.4452  0.0657 -0.3740
   34MOL   C53519081   1.571   7.760   0.392 -0.2414  0.5227  0.5277
   34MOL   O53619082   1.689   7.716   0.356  0.4135  0.2761  0.6613
   34MOL   C53719083   1.497   7.826   0.278 -0.4290 -0.0480 -0.0795
   34MOL   C53819084   1.562   7.853   0.152  0.0318  0.5854  0.9580
   34MOL   C53919085   1.492   7.920   0.053 -0.1946  0.6432  0.0286
   34MOL   C54019086   1.559   7.947   8.180 -0.6151 -0.8721  0.5294
   34MOL   C54119087   1.495   8.015   8.078 -0.5710 -0.7759 -0.6770
   34MOL   C54219088   1.365   8.074   8.100  0.7137  0.9426  0.4698
   34MOL   C54319089   1.291   8.151   7.996 -0.1521 -0.2931 -0.8671
   34MOL   O54419090   1.377   8.180   7.891 -0.1337  0.4881  0.0959
   34MOL   C54519091   1.334   0.019   7.787  0.4340  0.1152  0.1040
   34MOL   C54619092   1.365   8.188   7.659  0.0546  0.3141  0.4233
   34MOL   O54719093   1.179   8.194   8.015  0.0911  0.2038  0.0972
   34MOL   C54819094   1.297   8.050   8.224  0.1273 -0.2552 -0.0950
   34MOL   C54919095   1.360   7.971   0.074 -0.2953 -0.0478  0.9594
   34MOL   C55019096   1.298   7.947   0.196 -0.9113 -0.3505 -0.1970
   34MOL   C55119097   1.366   7.874   0.295 -0.0663  0.7967 -0.2165
   34MOL   H55219098   1.664   7.822   0.134 -0.9261 -0.5283 -3.0327
   34MOL   H55319099   1.659   7.907   8.167 -0.7290 -0.6979 -0.9400
   34MOL   H55419100   1.543   8.041   7.986  0.0542  0.1269 -0.1086
   34MOL   H55519101   1.376   0.120   7.792  0.7366 -0.0329  0.6173
   34MOL   H55619102   1.227   0.038   7.797  0.9544  2.4679  1.5577
   34MOL   H55719103   1.339   8.082   7.661 -0.5982  0.4327 -0.9658
   34MOL   H55819104   1.473   8.183   7.651 -0.1301 -1.2609 -1.3181
   34MOL   H55919105   1.198   8.092   8.236  0.6228  0.7715  0.5442
   34MOL   H56019106   1.200   7.990   0.211 -0.2240  1.6402 -1.2105
   34MOL   H56119107   1.317   7.855   0.390  2.2146  2.6412  1.4214
   34MOL   H56219108   1.326   8.228   7.566 -0.2038  1.5122  1.0366
   35MOL     O119109   3.377   1.740   6.576  0.8777  0.4002 -0.4509
   35MOL     C219110   3.482   1.720   6.524 -0.6703 -0.4013  0.0742
   35MOL     O319111   3.501   1.614   6.441  0.4409 -0.3056 -0.1809
   35MOL     C419112   3.607   1.796   6.562  0.4458 -0.6574  0.0481
   35MOL     C519113   3.597   1.922   6.612 -0.3510 -1.0938 -0.4290
   35MOL     C619114   3.712   1.988   6.657  0.4091  0.5925 -0.9040
   35MOL     C719115   3.698   2.117   6.708 -0.6540  0.7577  0.2978
   35MOL     C819116   3.814   2.180   6.755 -0.3920 -0.7707  0.3387
   35MOL     C919117   3.940   2.116   6.750 -0.4801  0.7408  0.2744
   35MOL    C1019118   4.062   2.182   6.809 -0.0305  0.1104  0.0632
   35MOL    O1119119   4.055   2.315   6.848  0.1784  0.0275 -0.4446
   35MOL    C1219120   4.172   2.377   6.899 -0.5436  0.3257 -0.1805
   35MOL    C1319121   4.142   2.522   6.915  0.3510 -0.5103 -0.3461
   35MOL    O1419122   4.166   2.119   6.827  1.0323 -0.1011 -0.2538
   35MOL    C1519123   3.950   1.985   6.693  0.0407  0.3547 -0.6101
   35MOL    C1619124   3.839   1.923   6.637  0.5766 -0.7427 -0.0585
   35MOL    C1719125   3.850   1.790   6.590 -0.1165 -0.8433  0.4874
   35MOL    C1819126   3.730   1.727   6.546 -0.7293  0.1345 -0.1619
   35MOL    H1919127   3.502   1.966   6.639 -0.0666 -0.4251 -0.4849
   35MOL    H2019128   3.608   2.176   6.718 -0.6595  0.7881  0.0641
   35MOL    H2119129   3.819   2.282   6.790  1.0316 -0.2733 -1.2452
   35MOL    H2219130   4.201   2.338   6.997  1.0351  2.9423  0.4370
   35MOL    H2319131   4.250   2.365   6.824 -0.5833 -0.2676 -0.1303
   35MOL    H2419132   4.229   2.587   6.925  0.9830 -1.3377 -0.4365
   35MOL    H2519133   4.089   2.547   6.823 -1.9306 -2.9710  0.2662
   35MOL    H2619134   4.047   1.937   6.700 -0.3489 -0.8174 -2.7968
   35MOL    H2719135   3.938   1.728   6.594 -0.2816 -1.0686  0.6914
   35MOL    H2819136   3.738   1.625   6.512 -0.8727  0.4007 -1.0165
   35MOL    H2919137   3.422   1.571   6.413  1.8734 -2.6024 -0.8364
   35MOL    O3019138   3.988   2.733   6.948  0.0362 -0.4067  0.7335
   35MOL    C3119139   3.977   2.645   7.030 -0.0162  0.2380  0.5337
   35MOL    O3219140   4.059   2.542   7.023 -0.1124  0.6486 -0.0024
   35MOL    C3319141   3.874   2.637   7.142 -0.1183  1.0784 -0.3591
   35MOL    C3419142   3.887   2.549   7.249  0.8220 -0.0071 -0.6397
   35MOL    C3519143   3.793   2.545   7.354  0.0912  1.1006  0.4659
   35MOL    C3619144   3.817   2.463   7.466 -0.5372 -0.6220 -0.0381
   35MOL    C3719145   3.731   2.463   7.576 -0.1793 -0.0630 -0.0099
   35MOL    C3819146   3.621   2.548   7.580  0.7085  0.1957  0.1864
   35MOL    C3919147   3.514   2.554   7.694 -0.3720  0.7722 -0.5560
   35MOL    O4019148   3.542   2.478   7.795  0.5099  0.0590 -0.6355
   35MOL    C4119149   3.460   2.486   7.908 -0.1950  0.0364  0.0059
   35MOL    C4219150   3.542   2.522   8.037 -0.0373  0.6936 -0.0058
   35MOL    O4319151   3.423   2.637   7.687  0.3748 -0.1407  0.3363
   35MOL    C4419152   3.598   2.639   7.467 -0.0812 -0.2721  0.6783
   35MOL    C4519153   3.687   2.634   7.355  0.2070 -0.2643 -0.4924
   35MOL    C4619154   3.671   2.731   7.250 -0.5250  0.1111  0.1307
   35MOL    C4719155   3.765   2.729   7.142  0.2242  0.7782  0.5410
   35MOL    H4819156   3.971   2.481   7.254  0.2665 -0.6083  1.3917
   35MOL    H4919157   3.900   2.394   7.467  0.6516  0.8036  1.9309
   35MOL    H5019158   3.755   2.397   7.657 -1.4468 -1.3357 -0.6574
   35MOL    H5119159   3.422   2.385   7.924 -3.9109  1.3521  0.0340
   35MOL    H5219160   3.374   2.552   7.898 -0.6404 -0.4379  0.6247
   35MOL    H5319161   3.479   2.523   8.126 -2.4712  2.0252 -1.6751
   35MOL    H5419162   3.607   2.438   8.061 -0.5357  0.9343  2.2258
   35MOL    H5519163   3.516   2.708   7.464 -0.9816 -1.4142 -1.6579
   35MOL    H5619164   3.584   2.796   7.249 -0.3888  0.2748 -1.1532
   35MOL    H5719165   3.757   2.800   7.061 -0.9535  1.1777  0.9974
   35MOL    O5819166   3.809   2.534   8.001  0.2878 -0.4022 -0.2154
   35MOL    C5919167   3.746   2.640   8.016  0.9087 -0.0562 -1.0581
   35MOL    O6019168   3.609   2.646   8.013 -0.1201  0.7244  0.1408
   35MOL    C6119169   3.806   2.776   8.006  0.6506 -0.6724 -0.3444
   35MOL    C6219170   3.941   2.775   7.960 -0.1801  0.4195 -0.2199
   35MOL    C6319171   4.016   2.896   7.959  0.0373 -0.1732  0.1188
   35MOL    C6419172   4.142   2.905   7.903 -0.3129  0.5835  0.1252
   35MOL    C6519173   4.208   3.028   7.887  0.2671 -0.9495 -0.2593
   35MOL    C6619174   4.147   3.147   7.931  0.1803 -0.2442  0.1376
   35MOL    C6719175   4.227   3.269   7.928 -0.0809  0.3959 -0.5466
   35MOL    O6819176   4.151   3.382   7.926 -0.1601  0.2932 -0.0628
   35MOL    C6919177   4.213   3.507   7.906 -0.6490  1.1547 -0.6754
   35MOL    C7019178   4.237   3.582   8.041 -0.0764 -0.4801 -0.9820
   35MOL    O7119179   4.351   3.267   7.923 -0.4172 -0.0084 -0.0789
   35MOL    C7219180   4.019   3.138   7.988 -0.4973 -0.4643 -0.0787
   35MOL    C7319181   3.953   3.016   8.003 -0.0350 -0.0894 -0.7710
   35MOL    C7419182   3.830   3.013   8.065 -0.2691 -0.1722 -0.5092
   35MOL    C7519183   3.750   2.892   8.055 -0.3375 -0.2444  0.3391
   35MOL    H7619184   3.990   2.692   7.912  1.7335  1.1128  0.5042
   35MOL    H7719185   4.192   2.823   7.853 -0.7505  1.1077 -1.2038
   35MOL    H7819186   4.313   3.034   7.863  1.0045 -0.7365  2.8421
   35MOL    H7919187   4.150   3.576   7.850  0.3284  2.6699  0.0187
   35MOL    H8019188   4.304   3.492   7.848 -0.2909  0.9835 -0.0761
   35MOL    H8119189   4.230   3.689   8.022  1.2834 -0.5411 -1.8851
   35MOL    H8219190   4.164   3.558   8.119 -0.2495 -2.0405 -1.6112
   35MOL    H8319191   3.971   3.227   8.028 -0.2351 -0.6981  0.7726
   35MOL    H8419192   3.785   3.106   8.098  0.8692 -0.0942  0.8782
   35MOL    H8519193   3.644   2.898   8.075 -0.2534  1.9009  0.2392
   35MOL    O8619194   4.297   3.456   0.028  0.2119  0.0575  0.4191
   35MOL    C8719195   4.390   3.487   8.202  0.0277  0.3995 -0.5449
   35MOL    O8819196   4.364   3.552   8.092 -0.2532 -0.6394 -0.0397
   35MOL    C8919197   4.524   3.435   8.220  0.7132  0.1077  0.1434
   35MOL    C9019198   4.559   3.365   0.083 -0.0424  0.0157  0.0426
   35MOL    C9119199   4.695   3.323   0.105  0.2775 -0.5301 -0.2899
   35MOL    C9219200   4.734   3.243   0.221  0.8694 -0.2241 -0.1643
   35MOL    C9319201   4.867   3.200   0.232  0.1205 -0.2821 -0.3753
   35MOL    C9419202   4.959   3.223   0.128  0.7425  0.6422 -0.3597
   35MOL    C9519203   5.105   3.188   0.138  0.4412  0.5791  1.0552
   35MOL    O9619204   5.135   3.098   0.228 -0.1855  0.3516  0.0888
   35MOL    C9719205   5.268   3.061   0.253 -0.3725 -1.0494 -0.1853
   35MOL    C9819206   5.333   3.170   0.332  0.1081  0.1080  0.0901
   35MOL    O9919207   5.192   3.235   0.067  0.2546  0.2727 -0.5630
   35MOL   C10019208   4.917   3.286   0.012 -0.0433 -0.0499  0.0193
   35MOL   C10119209   4.791   3.334   0.000  0.5661 -0.4408 -0.3220
   35MOL   C10219210   4.748   3.399   8.130  0.6457  0.6755  0.1626
   35MOL   C10319211   4.614   3.450   8.114  0.4377 -0.2918 -0.1293
   35MOL   H10419212   4.488   3.346   0.162 -0.3553 -1.4808 -0.5884
   35MOL   H10519213   4.651   3.225   0.288  0.8671  2.6953  0.6935
   35MOL   H10619214   4.910   3.147   0.315  2.9141  0.0403 -1.5392
   35MOL   H10719215   5.333   3.028   0.172  0.1377  0.1605 -0.2881
   35MOL   H10819216   5.274   2.968   0.310  1.0935 -0.4668  0.6624
   35MOL   H10919217   5.399   3.211   0.256  0.9412 -0.9668  0.2274
   35MOL   H11019218   5.251   3.230   0.371  0.3847 -1.8268  3.7980
   35MOL   H11119219   4.991   3.312   8.187  1.1108  1.6585  1.7218
   35MOL   H11219220   4.811   3.409   8.042 -1.0162 -2.3625 -1.4577
   35MOL   H11319221   4.585   3.495   8.020  2.9459  0.7762 -0.4517
   35MOL   O11419222   5.558   3.004   0.312 -0.4650 -0.3802  0.0192
   35MOL   C11519223   5.514   3.036   0.421  0.1236 -0.1399 -0.6039
   35MOL   O11619224   5.408   3.119   0.438  0.2601 -0.4537 -0.0071
   35MOL   C11719225   5.572   2.986   0.548 -0.4714  0.2927 -0.8459
   35MOL   C11819226   5.654   2.872   0.542 -0.7776 -0.3679 -0.1027
   35MOL   C11919227   5.707   2.822   0.666  0.3581  0.3851  0.6802
   35MOL   C12019228   5.788   2.710   0.664 -0.7943 -0.6863 -0.4951
   35MOL   C12119229   5.855   2.660   0.778  0.4228 -0.2371 -0.0564
   35MOL   C12219230   5.835   2.729   0.900  0.1153  0.5269 -0.1284
   35MOL   C12319231   5.908   2.689   1.025  0.2424  0.3610 -0.1034
   35MOL   O12419232   5.980   2.580   1.003 -0.1491 -0.4014 -0.4257
   35MOL   C12519233   6.088   2.552   1.095  0.0454  0.6518 -0.5129
   35MOL   C12619234   6.052   2.461   1.217 -0.5110  0.0030  0.5503
   35MOL   O12719235   5.910   2.764   1.124  0.7351  0.5475  0.0028
   35MOL   C12819236   5.740   2.828   0.909 -1.2584 -0.3987  0.3763
   35MOL   C12919237   5.686   2.889   0.789  0.4626 -0.4709 -0.1980
   35MOL   C13019238   5.600   2.994   0.794  0.2466  0.5642 -0.4450
   35MOL   C13119239   5.546   3.042   0.675 -0.2584  0.1886  0.0374
   35MOL   H13219240   5.667   2.821   0.448 -1.4010  1.3688 -1.1473
   35MOL   H13319241   5.796   2.658   0.570 -0.3053 -0.0331 -0.8208
   35MOL   H13419242   5.918   2.572   0.778  0.9885  0.1633 -1.2326
   35MOL   H13519243   6.123   2.644   1.143 -0.7093 -0.6864  2.7596
   35MOL   H13619244   6.175   2.512   1.044  1.3008  0.6122  1.5830
   35MOL   H13719245   6.145   2.431   1.267  0.8308  1.4178 -1.0338
   35MOL   H13819246   5.979   2.502   1.286 -2.1929 -0.7956 -0.7073
   35MOL   H13919247   5.722   2.867   1.007 -1.4750  1.2299 -0.2962
   35MOL   H14019248   5.584   3.031   0.894  3.9457  1.0589  0.0476
   35MOL   H14119249   5.489   3.131   0.696 -0.2939 -0.3182  2.1728
   35MOL   O14219250   5.795   2.394   1.152  0.2986  0.4577 -0.0249
   35MOL   C14319251   5.887   2.314   1.133 -0.1902  0.6140  0.3232
   35MOL   O14419252   6.009   2.341   1.160 -0.5317 -0.2217  0.2736
   35MOL   C14519253   5.877   2.173   1.089  0.1845  0.2815 -0.1831
   35MOL   C14619254   5.984   2.085   1.091 -0.3045 -0.1018 -0.1918
   35MOL   C14719255   5.969   1.954   1.034  0.4917  0.1267  0.0438
   35MOL   C14819256   6.070   1.854   1.050 -0.2714 -0.0190 -1.0411
   35MOL   C14919257   6.039   1.721   1.013  0.7284 -1.0125 -0.2657
   35MOL   C15019258   5.909   1.690   0.961 -0.0354 -0.6607 -0.4403
   35MOL   C15119259   5.880   1.544   0.922 -0.4828 -0.0119 -0.2172
   35MOL   O15219260   5.986   1.467   0.926 -0.3794  0.8484  0.6173
   35MOL   C15319261   5.975   1.330   0.900 -0.0413 -0.3208  0.0967
   35MOL   C15419262   5.924   1.264   1.031  0.7494  0.0904  0.5579
   35MOL   O15519263   5.769   1.502   0.897 -0.1987 -0.3221  0.1597
   35MOL   C15619264   5.814   1.792   0.939 -0.3676 -0.2892 -0.2766
   35MOL   C15719265   5.843   1.918   0.984 -0.8126 -0.2567  1.0347
   35MOL   C15819266   5.734   2.003   0.987 -0.2098 -0.2724 -0.3112
   35MOL   C15919267   5.753   2.130   1.040  0.8418 -0.3977  0.3084
   35MOL   H16019268   6.085   2.106   1.125  0.0385 -0.4137 -1.0077
   35MOL   H16119269   6.168   1.875   1.089  0.3332 -2.4607 -1.1543
   35MOL   H16219270   6.112   1.644   1.031  4.1459  2.1710 -0.0407
   35MOL   H16319271   6.075   1.289   0.881  0.3776 -0.0505  1.6216
   35MOL   H16419272   5.919   1.304   0.811  1.5014 -0.8327 -0.7521
   35MOL   H16519273   6.006   1.249   1.101  0.0172  2.1431  1.9140
   35MOL   H16619274   5.844   1.323   1.076 -1.8477 -2.3755 -0.5946
   35MOL   H16719275   5.718   1.767   0.897 -0.3579 -0.1006 -0.4127
   35MOL   H16819276   5.638   1.968   0.953 -0.3555 -0.1871  0.0089
   35MOL   H16919277   5.677   2.207   1.047  0.8953 -0.1049 -1.9448
   35MOL   O17019278   5.677   1.192   0.915 -0.0699  0.4442  0.2331
   35MOL   C17119279   5.761   1.108   0.952 -0.0359 -0.2284 -0.9542
   35MOL   O17219280   5.884   1.134   1.009  0.2140  0.5336  0.0943
   35MOL   C17319281   5.741   0.958   0.945 -0.4269  0.2471 -0.2446
   35MOL   C17419282   5.842   0.866   0.998 -0.0182  0.3670  0.5536
   35MOL   C17519283   5.814   0.725   0.997 -0.3644  0.2534  0.1675
   35MOL   C17619284   5.896   0.638   1.065  0.5676  0.1796 -0.0035
   35MOL   C17719285   5.866   0.499   1.067 -0.1790 -0.0591  0.9180
   35MOL   C17819286   5.747   0.454   1.002 -0.2065 -0.0455 -0.4035
   35MOL   C17919287   5.731   0.306   0.992 -0.0006  0.6335 -0.4756
   35MOL   O18019288   5.610   0.265   0.962  1.0474 -0.2823 -0.4606
   35MOL   C18119289   5.575   0.133   0.946  0.1961  0.5294 -0.0757
   35MOL   C18219290   5.581   0.061   1.082  0.0415  0.0323  0.5953
   35MOL   O18319291   5.826   0.226   1.003  0.0662  0.0769  0.1201
   35MOL   C18419292   5.654   0.545   0.951  0.3159  0.3569  0.4767
   35MOL   C18519293   5.688   0.679   0.943 -0.2567  0.5787  0.2314
   35MOL   C18619294   5.595   0.771   0.892 -0.5146  0.0207 -0.0874
   35MOL   C18719295   5.618   0.910   0.894  0.3328 -0.0317  0.6145
   35MOL   H18819296   5.934   0.902   1.042  1.2128 -2.8189  0.7191
   35MOL   H18919297   5.982   0.662   1.126 -0.1013  0.5071  0.8277
   35MOL   H19019298   5.928   0.419   1.105  2.5037  1.3986 -0.3326
   35MOL   H19119299   5.644   0.085   0.878  2.3029  1.6075  1.2614
   35MOL   H19219300   5.474   0.125   0.906 -0.8079  3.2500  1.7569
   35MOL   H19319301   5.601   8.203   1.077 -3.0650 -0.5948  0.8489
   35MOL   H19419302   5.669   0.089   1.141  1.0638  0.8810 -1.2684
   35MOL   H19519303   5.571   0.496   0.902  0.6359 -0.4643  0.7499
   35MOL   H19619304   5.505   0.739   0.842 -0.6671 -3.1282  2.0350
   35MOL   H19719305   5.546   0.974   0.845 -0.1999 -1.9910 -1.2246
   35MOL   O19819306   5.374   8.137   1.082  0.6984  0.2367 -0.0752
   35MOL   C19919307   5.369   8.229   1.164  0.0080  0.1492  0.0322
   35MOL   O20019308   5.465   0.078   1.163  0.0028  0.1131  0.1209
   35MOL   C20119309   5.269   8.240   1.271 -0.4531  0.3354 -0.4187
   35MOL   C20219310   5.185   8.131   1.292 -0.8405 -0.7664 -0.0949
   35MOL   C20319311   5.091   8.135   1.397  0.1709 -0.0321 -0.5513
   35MOL   C20419312   4.996   8.033   1.415  0.1305  0.3125 -0.2589
   35MOL   C20519313   4.923   8.027   1.534  0.1779 -0.7910  0.2987
   35MOL   C20619314   4.938   8.119   1.639 -1.0478 -0.0871  0.1011
   35MOL   C20719315   4.868   8.095   1.773  0.3055 -0.4387  0.5752
   35MOL   O20819316   4.880   8.194   1.854 -0.4691 -0.8029 -0.2897
   35MOL   C20919317   4.842   8.178   1.984  0.0251 -0.4066  0.0895
   35MOL   C21019318   4.692   8.228   2.005  0.4866  0.1939 -0.4047
   35MOL   O21119319   4.824   7.987   1.802 -0.1528 -0.4417  0.1094
   35MOL   C21219320   5.033   8.226   1.614 -0.2521 -0.5461 -0.2670
   35MOL   C21319321   5.100   8.244   1.491 -0.2276 -0.0310 -0.3958
   35MOL   C21419322   5.193   0.100   1.478  0.5889  0.8911 -0.2361
   35MOL   C21519323   5.274   0.102   1.364  0.8123  0.5058  0.4337
   35MOL   H21619324   5.185   8.053   1.218 -1.8733 -1.2583  0.4170
   35MOL   H21719325   4.974   7.955   1.343 -0.3954  0.8646 -0.6903
   35MOL   H21819326   4.857   7.943   1.549  0.3571 -0.8408  0.8410
   35MOL   H21919327   4.915   8.236   2.042 -2.7315  0.2955  2.9819
   35MOL   H22019328   4.865   8.076   2.018 -0.4866 -0.0705  1.4608
   35MOL   H22119329   4.699   0.085   1.979  3.5080  0.5998  1.7213
   35MOL   H22219330   4.630   8.165   1.942 -1.6175  0.2836  1.4674
   35MOL   H22319331   5.038   0.054   1.689  0.9282  0.2597 -1.1346
   35MOL   H22419332   5.201   0.179   1.551  0.5717 -0.2965  1.0769
   35MOL   H22519333   5.347   0.181   1.353  1.4340 -0.0544  0.5568
   35MOL   O22619334   4.770   0.153   2.213 -0.1224  0.9245 -0.2852
   35MOL   C22719335   4.690   0.066   2.237 -0.9276 -0.0386 -0.1759
   35MOL   O22819336   4.645   8.226   2.139 -0.0738  0.1651  0.3053
   35MOL   C22919337   4.631   0.029   2.371  0.1444  0.0473 -0.5237
   35MOL   C23019338   4.692   0.080   2.485 -0.4353  0.8644 -0.1545
   35MOL   C23119339   4.629   0.061   2.611 -0.1737 -0.1452 -0.9933
   35MOL   C23219340   4.684   0.121   2.724  0.2303  0.4117  0.3852
   35MOL   C23319341   4.612   0.128   2.841 -0.3241 -0.1132 -0.2344
   35MOL   C23419342   4.491   0.057   2.858  0.1830  0.2197 -0.2150
   35MOL   C23519343   4.411   0.065   2.982  0.3651 -0.0822  0.1810
   35MOL   O23619344   4.450   0.168   3.063 -0.1468  0.1885 -0.3764
   35MOL   C23719345   4.375   0.199   3.179 -0.3168 -0.3349  0.1944
   35MOL   C23819346   4.431   0.312   3.260  0.4282 -0.0986 -0.4530
   35MOL   O23919347   4.320   8.241   3.002  0.1226 -0.2766  0.4806
   35MOL   C24019348   4.438   8.231   2.745  0.8261  0.1810 -0.2928
   35MOL   C24119349   4.506   8.238   2.621 -0.2323  0.3269 -0.3975
   35MOL   C24219350   4.455   8.169   2.509 -0.2170 -0.1361 -0.0772
   35MOL   C24319351   4.517   8.196   2.377 -0.1776 -0.6350  0.1864
   35MOL   H24419352   4.785   0.134   2.476  0.0630  0.0922  0.3879
   35MOL   H24519353   4.779   0.170   2.711  0.0943  0.8122  0.8905
   35MOL   H24619354   4.661   0.182   2.921 -1.3476 -0.9513  0.9773
   35MOL   H24719355   4.374   0.108   3.239  2.0601  0.4822  1.5207
   35MOL   H24819356   4.277   0.230   3.142 -0.5556 -1.4115 -0.1050
   35MOL   H24919357   4.518   0.347   3.205 -0.1802  2.6190  0.2490
   35MOL   H25019358   4.355   0.390   3.256  0.2886 -0.2804 -1.4867
   35MOL   H25119359   4.341   8.182   2.747  0.1402  1.3800 -2.5287
   35MOL   H25219360   4.363   8.113   2.506 -1.2806  1.5680 -0.2302
   35MOL   H25319361   4.477   8.145   2.291  1.2864 -0.7243 -0.4388
   35MOL   O25419362   4.476   0.473   3.490  0.0914  0.1627  0.5830
   35MOL   C25519363   4.482   0.350   3.496 -0.0144 -0.3897  0.4072
   35MOL   O25619364   4.459   0.265   3.394  0.5882  0.0187  0.0826
   35MOL   C25719365   4.511   0.270   3.622  0.5184  0.0733  0.4959
   35MOL   C25819366   4.577   0.324   3.732 -0.2042 -0.4900 -0.1826
   35MOL   C25919367   4.600   0.249   3.852 -0.6888 -0.3013 -0.1863
   35MOL   C26019368   4.678   0.307   3.957  0.5615  0.2115 -0.4169
   35MOL   C26119369   4.700   0.224   4.068  0.0114  0.0321 -0.1281
   35MOL   C26219370   4.643   0.098   4.079  0.3958 -0.3997 -0.6211
   35MOL   C26319371   4.651   0.018   4.210  0.5506  0.1401 -0.2012
   35MOL   O26419372   4.715   0.085   4.305  0.5307 -0.2032 -0.0631
   35MOL   C26519373   4.736   0.028   4.429 -0.6549 -0.6302  0.5650
   35MOL   C26619374   4.781   0.143   4.520  0.0167 -0.7866 -0.4603
   35MOL   O26719375   4.606   8.155   4.234  0.2297 -0.4701  0.5582
   35MOL   C26819376   4.567   0.038   3.968  0.1061 -0.4795 -1.4303
   35MOL   C26919377   4.550   0.115   3.855  0.4100 -0.4916  0.0004
   35MOL   C27019378   4.470   0.067   3.748 -0.1773 -0.6752 -0.5839
   35MOL   C27119379   4.458   0.144   3.633  0.5719 -0.2852 -0.7106
   35MOL   H27219380   4.607   0.427   3.719  0.7269 -0.1210  4.0870
   35MOL   H27319381   4.737   0.396   3.941 -0.5426  0.9705 -0.3597
   35MOL   H27419382   4.777   0.254   4.138  0.9809 -0.9058 -0.7867
   35MOL   H27519383   4.815   8.205   4.406 -1.2535 -0.5235 -1.8941
   35MOL   H27619384   4.640   8.233   4.454 -1.3924 -0.9161 -2.6766
   35MOL   H27719385   4.708   0.225   4.519 -1.6847 -2.2852 -1.5719
   35MOL   H27819386   4.789   0.103   4.621 -1.3440  0.6239  0.2355
   35MOL   H27919387   4.534   8.184   3.972 -2.2352  0.2722  3.8223
   35MOL   H28019388   4.421   8.220   3.759 -0.0567 -0.4321  2.7302
   35MOL   H28119389   4.403   0.100   3.550 -0.8727  1.7239 -0.8606
   35MOL   O28219390   4.998   0.179   4.681  0.2575  0.3019  0.8257
   35MOL   C28319391   5.009   0.185   4.562 -0.2294 -0.4126  0.1359
   35MOL   O28419392   4.906   0.182   4.479 -0.0863  0.3477 -0.0146
   35MOL   C28519393   5.140   0.208   4.498  0.3919  0.4510 -0.1042
   35MOL   C28619394   5.146   0.230   4.359  0.4067 -0.1490  0.0112
   35MOL   C28719395   5.263   0.240   4.284  0.7832 -0.5004 -0.1427
   35MOL   C28819396   5.262   0.230   4.140  0.0453 -0.3775  0.1379
   35MOL   C28919397   5.384   0.243   4.074  0.1820  0.0091 -0.0703
   35MOL   C29019398   5.507   0.267   4.141 -0.0996 -0.0935 -0.1458
   35MOL   C29119399   5.631   0.268   4.074 -0.2066 -0.0880  0.3202
   35MOL   O29219400   5.612   0.282   3.943 -0.2156 -0.0168 -0.3822
   35MOL   C29319401   5.716   0.287   3.850  0.2045 -0.1606  0.4835
   35MOL   C29419402   5.713   0.411   3.761 -0.5197 -0.8466 -0.7168
   35MOL   O29519403   5.738   0.277   4.136 -0.2037  0.9599  0.3270
   35MOL   C29619404   5.507   0.261   4.285  0.1855  0.5958 -0.0151
   35MOL   C29719405   5.387   0.247   4.354  0.8607 -0.5790 -0.2998
   35MOL   C29819406   5.384   0.230   4.494  0.3657  0.3586  0.3315
   35MOL   C29919407   5.267   0.200   4.564 -0.0972 -0.2182  0.1695
   35MOL   H30019408   5.056   0.233   4.299  0.5676  3.6749 -0.1624
   35MOL   H30119409   5.168   0.217   4.089 -0.2426  0.3227  0.4712
   35MOL   H30219410   5.385   0.232   3.966  2.0231  0.0595 -0.0781
   35MOL   H30319411   5.712   0.196   3.791 -2.3584  0.8812 -1.0369
   35MOL   H30419412   5.807   0.279   3.908 -0.6641 -1.6160  1.6775
   35MOL   H30519413   5.674   0.494   3.819  1.9601  1.1809 -1.8479
   35MOL   H30619414   5.811   0.448   3.731 -0.3994  0.5589  1.3145
   35MOL   H30719415   5.597   0.277   4.342  0.9358 -0.0456 -0.9938
   35MOL   H30819416   5.482   0.235   4.539 -0.3694  1.7476  1.8283
   35MOL   H30919417   5.269   0.187   4.672 -0.0315 -1.9824 -0.0300
   35MOL   O31019418   5.623   0.625   3.613  0.0834  0.1528 -0.3645
   35MOL   C31119419   5.600   0.508   3.580  0.6734 -0.8379 -0.6110
   35MOL   O31219420   5.633   0.399   3.646  0.7799 -0.5119 -0.1729
   35MOL   C31319421   5.503   0.479   3.471  0.3791 -0.2962  0.2557
   35MOL   C31419422   5.419   0.587   3.435 -0.0754  0.5036  0.1240
   35MOL   C31519423   5.301   0.563   3.355 -0.2467  0.1718 -0.2299
   35MOL   C31619424   5.207   0.666   3.333  0.4494  0.9794 -0.4854
   35MOL   C31719425   5.100   0.637   3.238 -0.3511  0.4485 -0.0019
   35MOL   C31819426   5.074   0.510   3.183  0.1093  0.3238  0.3258
   35MOL   C31919427   4.962   0.487   3.085  1.2688 -0.2560 -0.0642
   35MOL   O32019428   4.953   0.360   3.036 -0.2392 -0.3538 -0.2163
   35MOL   C32119429   4.885   0.339   2.917  0.4147 -0.8293  0.0088
   35MOL   C32219430   4.972   0.366   2.792 -0.1770  0.9459 -0.6122
   35MOL   O32319431   4.896   0.579   3.038  0.6688  0.3257 -0.2735
   35MOL   C32419432   5.168   0.406   3.217  0.6881  0.5098  0.0940
   35MOL   C32519433   5.276   0.435   3.298 -0.0144 -0.2341 -0.6227
   35MOL   C32619434   5.367   0.330   3.330  0.4231 -0.0036  0.6795
   35MOL   C32719435   5.469   0.348   3.426 -0.0467 -0.2082 -0.0182
   35MOL   H32819436   5.446   0.685   3.471 -0.2051  0.8266 -0.6536
   35MOL   H32919437   5.226   0.761   3.381 -2.6271  1.0925  0.6287
   35MOL   H33019438   5.030   0.712   3.203  0.6408  0.2770 -2.4560
   35MOL   H33119439   4.790   0.390   2.927  0.9408 -0.0682  1.3425
   35MOL   H33219440   4.861   0.233   2.927  0.1409 -0.8911 -1.2927
   35MOL   H33319441   4.901   0.384   2.712 -1.1221  2.1634  0.4838
   35MOL   H33419442   5.032   0.457   2.803  1.3790  0.0509 -1.5356
   35MOL   H33519443   5.140   0.309   3.178 -0.8589 -0.0365  2.4357
   35MOL   H33619444   5.344   0.228   3.303 -1.4600  0.6079 -0.0685
   35MOL   H33719445   5.531   0.264   3.452 -2.6789 -2.7144 -1.6341
   35MOL   O33819446   5.166   0.221   2.948  0.1986 -0.4281 -0.5331
   35MOL   C33919447   5.145   0.193   2.833  0.2468 -0.9107  0.5333
   35MOL   O34019448   5.052   0.252   2.757 -0.0839 -0.4267 -0.0158
   35MOL   C34119449   5.237   0.093   2.764  0.3973 -0.0441 -0.1609
   35MOL   C34219450   5.227   0.068   2.624 -0.4240  0.4793  0.3176
   35MOL   C34319451   5.308   8.212   2.574 -0.2324  0.5360  0.2583
   35MOL   C34419452   5.287   8.165   2.438  0.1280  0.1585 -0.8724
   35MOL   C34519453   5.377   8.066   2.390  0.2168 -0.3167  0.1488
   35MOL   C34619454   5.474   8.005   2.471 -0.1446  0.3539  0.1044
   35MOL   C34719455   5.557   7.895   2.417 -0.0624 -0.5913 -0.0130
   35MOL   O34819456   5.612   7.814   2.511  0.5106 -0.0454  0.9080
   35MOL   C34919457   5.700   7.708   2.486 -0.9502 -0.3137 -0.4376
   35MOL   C35019458   5.841   7.770   2.483  0.8514  1.1000  0.2814
   35MOL   O35119459   5.573   7.874   2.293  0.2009 -0.2545 -0.2111
   35MOL   C35219460   5.494   8.056   2.601  0.4890 -0.3056 -0.0879
   35MOL   C35319461   5.408   8.152   2.657 -0.0299  0.4430  0.1818
   35MOL   C35419462   5.427   8.189   2.793  0.2022  0.0492 -0.0874
   35MOL   C35519463   5.338   0.038   2.846  0.1559  0.8858  0.3365
   35MOL   H35619464   5.169   0.128   2.554  0.9727 -1.5235 -2.6727
   35MOL   H35719465   5.210   8.213   2.381 -0.0740 -0.8581 -1.4801
   35MOL   H35819466   5.365   8.032   2.289  1.8084  3.6772 -1.4741
   35MOL   H35919467   5.675   7.634   2.410 -1.5578 -3.2281  2.4781
   35MOL   H36019468   5.704   7.650   2.578 -0.0800 -1.7526 -1.3592
   35MOL   H36119469   5.835   7.860   2.544  0.4197  0.4750  1.1602
   35MOL   H36219470   5.920   7.702   2.515  0.6931  0.9691  0.3917
   35MOL   H36319471   5.568   8.007   2.663  0.4470 -0.9591 -0.5485
   35MOL   H36419472   5.503   8.142   2.853  2.8826  2.8188 -1.1817
   35MOL   H36519473   5.343   0.072   2.948  0.4878 -0.4534  0.7632
   35MOL   O36619474   5.892   7.598   2.271 -0.1687 -0.2087 -0.6342
   35MOL   C36719475   5.896   7.716   2.252  0.6756 -0.4968  0.6100
   35MOL   O36819476   5.873   7.813   2.346 -0.6309 -0.0178  0.1291
   35MOL   C36919477   5.932   7.763   2.118  0.0785 -0.7089 -0.6496
   35MOL   C37019478   5.965   7.673   2.017  0.2878  0.3465  0.0207
   35MOL   C37119479   6.001   7.717   1.888  0.2702 -0.0550  0.2012
   35MOL   C37219480   6.029   7.622   1.790 -0.3267 -0.0627  0.3538
   35MOL   C37319481   6.065   7.666   1.660  0.3152 -0.0452 -0.5214
   35MOL   C37419482   6.070   7.806   1.633  0.9566  0.2421 -0.1660
   35MOL   C37519483   6.100   7.848   1.495 -0.1278  0.4621 -0.7702
   35MOL   O37619484   6.118   7.988   1.477  0.4973  0.2009 -0.0928
   35MOL   C37719485   6.170   8.047   1.357 -0.1926  0.1246  0.1277
   35MOL   C37819486   6.071   8.059   1.243  0.2824  0.1296  0.5045
   35MOL   O37919487   6.135   7.765   1.408 -0.2671 -0.2425  0.0573
   35MOL   C38019488   6.043   7.899   1.733  0.0699  0.0442 -0.0364
   35MOL   C38119489   6.011   7.857   1.861 -0.7429 -0.5429  0.0138
   35MOL   C38219490   5.966   7.952   1.961 -0.1154 -0.4961  1.1681
   35MOL   C38319491   5.932   7.907   2.089  0.1116  0.2353 -0.3563
   35MOL   H38419492   5.981   7.568   2.034 -2.3788  0.0832  1.0467
   35MOL   H38519493   6.012   7.516   1.803  0.3247 -0.4759 -1.8513
   35MOL   H38619494   6.085   7.588   1.589 -4.3561 -1.0149 -0.9091
   35MOL   H38719495   6.255   7.983   1.333  1.4104  0.6047  4.0869
   35MOL   H38819496   6.222   8.137   1.391 -0.5491  0.8184 -1.1098
   35MOL   H38919497   6.123   8.100   1.157  0.4330 -1.3262 -0.1075
   35MOL   H39019498   6.037   7.958   1.222 -0.6292  0.2544  1.3305
   35MOL   H39119499   6.037   8.005   1.711 -1.0081 -0.0922 -0.4313
   35MOL   H39219500   5.957   8.057   1.939 -1.2502 -0.5828  1.2045
   35MOL   H39319501   5.892   7.972   2.165  4.5427  2.2866  0.3666
   35MOL   O39419502   5.831   8.001   1.370 -1.0128 -0.5467 -0.1159
   35MOL   C39519503   5.857   8.118   1.345 -1.0573 -0.0930  0.4499
   35MOL   O39619504   5.968   8.151   1.275  0.3732 -0.1137  0.0405
   35MOL   C39719505   5.766   8.236   1.389  0.1206 -0.0234 -0.1462
   35MOL   C39819506   5.787   0.122   1.353  0.3607 -0.5092 -0.8720
   35MOL   C39919507   5.711   0.228   1.404 -0.6072 -0.4767  0.1317
   35MOL   C40019508   5.736   0.361   1.366  0.8497  0.7932  0.3622
   35MOL   C40119509   5.656   0.460   1.429  0.4154 -0.2868  0.2600
   35MOL   C40219510   5.552   0.437   1.519 -0.1364  0.9866  0.3238
   35MOL   C40319511   5.485   0.549   1.588 -0.9264 -0.2465 -0.4599
   35MOL   O40419512   5.363   0.511   1.636 -0.1653 -0.2501 -0.1031
   35MOL   C40519513   5.303   0.604   1.727  0.3863 -0.3070  0.0041
   35MOL   C40619514   5.351   0.585   1.874  0.0088  0.5748  0.4522
   35MOL   O40719515   5.528   0.657   1.606 -0.1990 -0.3845 -0.5322
   35MOL   C40819516   5.526   0.299   1.544 -0.3769 -0.6879 -0.7848
   35MOL   C40919517   5.602   0.196   1.488 -0.7144  0.6538  0.1372
   35MOL   C41019518   5.573   0.059   1.515  0.4002 -0.0192 -0.4270
   35MOL   C41119519   5.654   8.207   1.465 -0.2855  0.1138  0.1167
   35MOL   H41219520   5.866   0.159   1.288 -0.8250  0.6506 -1.6859
   35MOL   H41319521   5.823   0.383   1.307  0.1372 -0.0152 -1.0169
   35MOL   H41419522   5.686   0.561   1.405  0.3438  0.0877  1.6993
   35MOL   H41519523   5.196   0.589   1.709  0.0560  1.2879  0.5384
   35MOL   H41619524   5.325   0.708   1.701 -0.5070 -0.4398 -1.3608
   35MOL   H41719525   5.458   0.607   1.868  0.0877  0.4171  1.2094
   35MOL   H41819526   5.307   0.662   1.937 -0.8525 -0.6801  1.4098
   35MOL   H41919527   5.443   0.278   1.610  2.3074 -1.0297  2.6032
   35MOL   H42019528   5.487   0.039   1.577  0.2504 -0.1569 -0.6778
   35MOL   H42119529   5.629   8.105   1.491 -0.5152  0.0653 -0.2947
   35MOL   O42219530   5.097   0.497   1.956  0.0780  0.0331 -0.1371
   35MOL   C42319531   5.196   0.426   1.960  0.2227  0.0267  0.0288
   35MOL   O42419532   5.318   0.457   1.930  0.3019 -0.3708  0.1147
   35MOL   C42519533   5.188   0.280   1.999  0.2285 -0.6634 -0.4376
   35MOL   C42619534   5.252   0.182   1.918  0.3575  0.3285 -0.8530
   35MOL   C42719535   5.245   0.044   1.955  0.2133 -0.1245  0.9206
   35MOL   C42819536   5.292   8.194   1.871 -0.8534  0.0210 -0.2472
   35MOL   C42919537   5.286   8.058   1.902 -0.3200 -0.3900  0.0815
   35MOL   C43019538   5.235   8.018   2.025  0.0496  0.5039  0.6413
   35MOL   C43119539   5.239   7.873   2.061 -0.3375 -0.5592 -0.1022
   35MOL   O43219540   5.347   7.811   2.011  0.3136  0.2006 -0.6228
   35MOL   C43319541   5.375   7.676   2.047 -0.2653  0.4302 -0.2234
   35MOL   C43419542   5.524   7.653   2.055  0.4621  0.3534 -0.5263
   35MOL   O43519543   5.157   7.821   2.136  0.4372 -0.5509  0.2304
   35MOL   C43619544   5.178   8.119   2.108  0.0297  0.2653 -0.4864
   35MOL   C43719545   5.175   0.005   2.071  0.5077 -0.2771 -0.3263
   35MOL   C43819546   5.111   0.099   2.151  0.0662  0.3051 -0.5635
   35MOL   C43919547   5.116   0.238   2.112 -0.2016 -0.6556 -1.0027
   35MOL   H44019548   5.320   0.214   1.840  4.0936  0.6196  2.3587
   35MOL   H44119549   5.325   8.228   1.774  0.5371  0.4764  0.3750
   35MOL   H44219550   5.321   7.998   1.819 -0.5371  1.0332 -1.0488
   35MOL   H44319551   5.331   7.605   1.978  0.7427 -1.4930  1.0545
   35MOL   H44419552   5.337   7.653   2.147  1.1945 -3.8772 -0.5558
   35MOL   H44519553   5.580   7.735   2.099  0.7540 -0.0360 -0.1697
   35MOL   H44619554   5.542   7.567   2.119 -0.3438 -0.2651 -1.1148
   35MOL   H44719555   5.135   8.105   2.206  2.5795  0.0690  0.6438
   35MOL   H44819556   5.059   0.078   2.244 -1.8808 -2.3582 -2.2007
   35MOL   H44919557   5.065   0.316   2.167 -1.2475 -0.0662 -2.7642
   35MOL   O45019558   5.575   7.832   1.844 -0.4530  0.0146 -0.4543
   35MOL   C45119559   5.598   7.713   1.831 -0.3925 -0.5218 -0.3959
   35MOL   O45219560   5.576   7.625   1.921 -0.3239  0.0130 -0.5367
   35MOL   C45319561   5.671   7.667   1.712  0.3556  0.5443  0.7453
   35MOL   C45419562   5.695   7.528   1.696  0.3459  0.0552  0.0488
   35MOL   C45519563   5.772   7.473   1.593  0.2750 -0.2966 -0.3286
   35MOL   C45619564   5.786   7.334   1.582  0.1758 -0.2215  0.7567
   35MOL   C45719565   5.869   7.283   1.478 -0.4074 -0.1465  0.3129
   35MOL   C45819566   5.922   7.370   1.376  0.1520 -0.0536  0.7418
   35MOL   C45919567   5.993   7.312   1.255  0.0467 -0.2112  0.7632
   35MOL   O46019568   6.069   7.401   1.191  0.5640 -0.4764 -0.2445
   35MOL   C46119569   6.164   7.368   1.090  0.4007 -0.3152 -0.4725
   35MOL   C46219570   6.296   7.320   1.150  0.4960 -0.2924  0.4191
   35MOL   O46319571   5.990   7.193   1.228  0.7311  0.4702 -0.0982
   35MOL   C46419572   5.904   7.508   1.400  0.1909 -0.9136 -0.3263
   35MOL   C46519573   5.822   7.564   1.501  0.1705  0.7268  0.2748
   35MOL   C46619574   5.789   7.698   1.503 -0.1022  0.4592  0.6022
   35MOL   C46719575   5.710   7.755   1.609 -0.2215  0.1186 -0.0481
   35MOL   H46819576   5.664   7.461   1.774 -1.6757  2.4000  1.3122
   35MOL   H46919577   5.743   7.267   1.654  0.3282 -1.0027  0.1329
   35MOL   H47019578   5.893   7.178   1.470  0.5917  0.2347 -2.0530
   35MOL   H47119579   6.180   7.451   1.021 -0.2255 -0.1519 -0.4249
   35MOL   H47219580   6.134   7.287   1.023 -0.4625 -1.5019  1.2951
   35MOL   H47319581   6.295   7.242   1.227  0.4953 -0.7110 -0.0002
   35MOL   H47419582   6.335   7.264   1.065  0.5849  1.2117 -0.5431
   35MOL   H47519583   5.950   7.583   1.337 -0.0391 -0.2230  0.3248
   35MOL   H47619584   5.835   7.758   1.426 -1.6110  0.2788 -0.4657
   35MOL   H47719585   5.695   7.862   1.609 -1.2214 -0.0075 -1.3588
   35MOL   O47819586   6.490   7.464   0.993  0.2472  0.1175  0.1864
   35MOL   C47919587   6.454   7.506   1.103  0.6337  0.8876 -0.0721
   35MOL   O48019588   6.374   7.437   1.184 -0.2407  0.1399  0.4562
   35MOL   C48119589   6.491   7.630   1.172  0.5503  0.2740  0.5695
   35MOL   C48219590   6.599   7.703   1.124 -0.6544 -0.5772 -0.0790
   35MOL   C48319591   6.640   7.825   1.184 -0.1267 -0.4697 -0.3936
   35MOL   C48419592   6.764   7.879   1.138  0.1993 -0.1724  0.0081
   35MOL   C48519593   6.799   8.007   1.193 -0.1748 -0.0747  0.1921
   35MOL   C48619594   6.728   8.062   1.301  0.3974 -0.3391 -0.8181
   35MOL   C48719595   6.773   8.189   1.360  0.3113 -0.2890  0.5308
   35MOL   O48819596   6.695   8.229   1.471  0.0897 -0.1383 -0.1465
   35MOL   C48919597   6.757   0.071   1.558  0.0138  0.4682 -0.1623
   35MOL   C49019598   6.806   8.243   1.682 -0.1458 -0.6182  0.2002
   35MOL   O49119599   6.872   0.001   1.327  0.5419  0.7246  0.4176
   35MOL   C49219600   6.615   7.995   1.350  0.6005  0.4808  0.6093
   35MOL   C49319601   6.570   7.881   1.289 -0.4873 -0.0638  0.4591
   35MOL   C49419602   6.454   7.819   1.338  0.3247  0.8967 -0.0751
   35MOL   C49519603   6.421   7.693   1.278  0.5569 -0.9242  0.0057
   35MOL   H49619604   6.664   7.670   1.044  1.9247  1.2736  1.2029
   35MOL   H49719605   6.828   7.832   1.065 -1.1010  0.0137 -1.2802
   35MOL   H49819606   6.893   8.053   1.166 -1.3003  2.2208  0.0643
   35MOL   H49919607   6.690   0.151   1.589  1.1899  1.5734 -0.4114
   35MOL   H50019608   6.839   0.129   1.517 -0.2848  0.1307 -1.2436
   35MOL   H50119609   6.909   8.212   1.671 -0.4757 -1.2988 -1.1088
   35MOL   H50219610   6.803   0.052   1.774  0.9447  1.6608 -1.1629
   35MOL   H50319611   6.549   8.029   1.429  1.6790  0.5552  1.4930
   35MOL   H50419612   6.394   7.855   1.420  0.1803  0.7035 -0.0972
   35MOL   H50519613   6.335   7.635   1.310  1.6470 -1.4192  2.0897
   35MOL   O50619614   6.536   8.223   1.749 -0.2867 -0.4833  0.0682
   35MOL   C50719615   6.602   8.121   1.738 -0.1518  0.0472  0.9292
   35MOL   O50819616   6.731   8.126   1.705  0.3008 -0.3888 -0.0705
   35MOL   C50919617   6.556   7.987   1.778  0.5273 -1.0615  0.6344
   35MOL   C51019618   6.618   7.870   1.745 -0.3636 -0.1381 -0.0972
   35MOL   C51119619   6.564   7.740   1.781  0.1871 -1.3654  0.1845
   35MOL   C51219620   6.636   7.623   1.744  0.3047  0.0652  0.3992
   35MOL   C51319621   6.573   7.502   1.775  0.5780 -0.0926  0.1026
   35MOL   C51419622   6.456   7.497   1.855  0.7161 -0.2161 -0.0372
   35MOL   C51519623   6.391   7.369   1.882 -0.1266  0.2606 -0.2298
   35MOL   O51619624   6.475   7.266   1.902  0.1170  0.0491  0.1352
   35MOL   C51719625   6.425   7.140   1.938  0.3146 -0.0899 -0.5213
   35MOL   C51819626   6.418   7.143   2.096 -0.0746 -0.0136 -0.0601
   35MOL   O51919627   6.267   7.363   1.894  1.0446  0.1222 -0.2585
   35MOL   C52019628   6.390   7.617   1.892  0.2408 -0.2422  0.1905
   35MOL   C52119629   6.446   7.736   1.849 -0.5933 -0.1799  0.0057
   35MOL   C52219630   6.375   7.852   1.872 -0.6041 -0.4609 -0.0051
   35MOL   C52319631   6.431   7.980   1.843 -0.8109  0.3404  0.2531
   35MOL   H52419632   6.708   7.868   1.685  1.3913 -1.3945  2.4950
   35MOL   H52519633   6.733   7.630   1.698  0.7227 -1.7995  0.9732
   35MOL   H52619634   6.622   7.410   1.746 -0.6444 -1.1789  1.4042
   35MOL   H52719635   6.486   7.059   1.900  0.3774  0.1390 -0.9052
   35MOL   H52819636   6.329   7.124   1.889  0.4501 -2.0174 -0.1722
   35MOL   H52919637   6.470   7.226   2.144  1.6078 -0.5313 -0.9382
   35MOL   H53019638   6.314   7.154   2.127  0.1475 -1.9720  1.4932
   35MOL   H53119639   6.296   7.615   1.946 -0.8197  1.7050 -1.5490
   35MOL   H53219640   6.278   7.855   1.920 -0.4422 -0.2378  0.3073
   35MOL   H53319641   6.376   8.071   1.862 -2.0881  0.1118 -2.1063
   35MOL   O53419642   6.277   6.912   2.056  0.3016 -0.6889 -0.1618
   35MOL   C53519643   6.387   6.907   2.110  0.2536 -0.1291 -0.1880
   35MOL   O53619644   6.459   7.021   2.151  0.0780 -0.5568  0.4965
   35MOL   C53719645   6.448   6.779   2.163  0.4473  0.6719 -0.3423
   35MOL   C53819646   6.370   6.659   2.149  0.0169 -0.2715 -0.0277
   35MOL   C53919647   6.423   6.544   2.209 -0.0143  0.1788 -0.5926
   35MOL   C54019648   6.351   6.424   2.205 -0.3387 -0.2834 -0.4602
   35MOL   C54119649   6.396   6.311   2.279 -0.1699  0.6073  0.1822
   35MOL   C54219650   6.521   6.315   2.348  0.2767  0.3525  0.1199
   35MOL   C54319651   6.571   6.184   2.410  0.3901 -1.0284  0.0350
   35MOL   O54419652   6.679   6.198   2.486  0.2586 -0.3289 -0.3271
   35MOL   C54519653   6.728   6.081   2.548  0.2423 -0.0557  0.1775
   35MOL   C54619654   6.807   5.995   2.443  0.2067  0.0786 -0.5564
   35MOL   O54719655   6.518   6.074   2.384  0.0028 -0.7065  0.4442
   35MOL   C54819656   6.589   6.437   2.354  0.0897  0.5115  0.8897
   35MOL   C54919657   6.546   6.548   2.282  0.0604 -0.1204 -0.7830
   35MOL   C55019658   6.615   6.668   2.293  0.4685 -0.1703 -0.1303
   35MOL   C55119659   6.567   6.784   2.236 -0.1106 -0.9188 -0.6099
   35MOL   H55219660   6.277   6.650   2.094 -0.9925 -2.3291  1.9307
   35MOL   H55319661   6.254   6.427   2.158  1.0478 -0.5811 -3.4125
   35MOL   H55419662   6.325   6.230   2.282 -0.0982  0.5911  1.9281
   35MOL   H55519663   6.652   6.019   2.596 -0.3265  0.0333 -0.6123
   35MOL   H55619664   6.794   6.112   2.630  2.0660  0.3614 -1.4138
   35MOL   H55719665   6.906   6.033   2.420 -0.9260  2.7439 -1.1925
   35MOL   H55819666   6.742   5.987   2.356 -0.3053 -0.2884 -0.1457
   35MOL   H55919667   6.679   6.439   2.415  1.5374 -1.3543 -1.1160
   35MOL   H56019668   6.702   6.662   2.357 -0.7401 -1.7684  1.4391
   35MOL   H56119669   6.608   6.882   2.258  0.0510 -0.8364 -1.2989
   35MOL   H56219670   6.815   5.894   2.485 -0.3003 -0.4468 -1.6924
   36MOL     O119671   5.879   1.998   3.946  0.4063 -0.4116  0.3017
   36MOL     C219672   5.842   2.085   4.025 -0.1619  0.1486  0.3564
   36MOL     O319673   5.715   2.118   4.030 -0.0324  0.7449  0.2525
   36MOL     C419674   5.914   2.117   4.153 -0.5047 -0.4800  0.1554
   36MOL     C519675   5.875   2.224   4.244  0.5383  0.1796 -0.1422
   36MOL     C619676   5.948   2.235   4.362  0.2240 -1.0032  0.3845
   36MOL     C719677   5.916   2.345   4.449  0.5509  0.0545 -0.1372
   36MOL     C819678   5.990   2.370   4.563 -0.0164  0.0349 -0.3451
   36MOL     C919679   6.100   2.284   4.597 -0.7274  0.7303  0.6830
   36MOL    C1019680   6.177   2.309   4.720  0.2329  0.3813 -0.4095
   36MOL    O1119681   6.284   2.230   4.726  0.3126  0.1405 -0.6868
   36MOL    C1219682   6.361   2.210   4.850  0.4700  0.6927  0.5501
   36MOL    C1319683   6.436   2.333   4.905  0.3244  0.2395  0.6566
   36MOL    O1419684   6.148   2.394   4.805  0.4043  0.0021  0.5843
   36MOL    C1519685   6.123   2.170   4.519 -0.4718 -0.5284  0.0993
   36MOL    C1619686   6.051   2.147   4.401 -0.2867 -0.1722 -0.2689
   36MOL    C1719687   6.088   2.049   4.313  0.8747 -0.6614 -0.5102
   36MOL    C1819688   6.025   2.031   4.189  0.4921 -0.0559 -0.5819
   36MOL    H1919689   5.796   2.294   4.220  0.9982  0.6522 -0.3052
   36MOL    H2019690   5.845   2.415   4.407  0.4162  0.5740  0.9592
   36MOL    H2119691   5.985   2.468   4.608  0.9424  0.2631 -0.7291
   36MOL    H2219692   6.282   2.185   4.921 -0.1695 -1.6066 -0.9255
   36MOL    H2319693   6.444   2.139   4.844 -0.6867 -0.6930  0.6030
   36MOL    H2419694   6.500   2.375   4.827 -1.5882  0.3238 -0.8992
   36MOL    H2519695   6.366   2.410   4.937  0.1192  0.2605  0.1761
   36MOL    H2619696   6.214   2.113   4.535 -1.1489 -0.7238  3.6134
   36MOL    H2719697   6.179   1.996   4.336 -0.2103 -0.9181  3.7069
   36MOL    H2819698   6.065   1.961   4.117 -0.0243 -0.3073 -0.6271
   36MOL    H2919699   5.668   2.055   3.978  1.9529  0.0797 -0.7614
   36MOL    O3019700   6.692   2.254   4.886  0.1641  0.8181  0.1542
   36MOL    C3119701   6.646   2.266   4.999 -0.9334  0.3930 -0.0344
   36MOL    O3219702   6.514   2.289   5.015 -0.1155  0.1203 -0.1136
   36MOL    C3319703   6.730   2.267   5.123 -0.8031  0.2074  0.0915
   36MOL    C3419704   6.699   2.362   5.230 -0.0706 -0.2353  0.3346
   36MOL    C3519705   6.790   2.369   5.337 -0.3622 -0.1729 -0.6903
   36MOL    C3619706   6.767   2.459   5.445  0.4685  0.0259  0.0599
   36MOL    C3719707   6.852   2.459   5.557 -0.2981  0.2063 -0.7543
   36MOL    C3819708   6.960   2.363   5.565 -0.2896 -0.1830 -0.1188
   36MOL    C3919709   7.031   2.346   5.701  0.8203  0.3977 -0.3276
   36MOL    O4019710   6.957   2.408   5.805 -0.0221  0.2626 -0.2226
   36MOL    C4119711   6.980   2.370   5.938 -0.0563  0.6361 -0.1082
   36MOL    C4219712   6.867   2.280   6.003 -0.0961 -0.0791 -0.2706
   36MOL    O4319713   7.126   2.268   5.714  0.0256  0.0002  0.1421
   36MOL    C4419714   6.984   2.280   5.454  0.9649 -0.7957  0.2096
   36MOL    C4519715   6.901   2.283   5.338  0.8120  0.2509  0.1027
   36MOL    C4619716   6.930   2.197   5.233  0.5482 -0.8927  0.2246
   36MOL    C4719717   6.845   2.189   5.121 -0.8200  0.3591  0.5502
   36MOL    H4819718   6.607   2.417   5.235 -1.2926 -2.0593 -1.4251
   36MOL    H4919719   6.678   2.520   5.447  0.7925  0.4758  0.5809
   36MOL    H5019720   6.839   2.527   5.640 -1.9976 -1.3953  0.3221
   36MOL    H5119721   7.001   2.464   5.988  4.0323 -0.7499  0.9670
   36MOL    H5219722   7.075   2.318   5.944 -0.3227  0.3395  2.1333
   36MOL    H5319723   6.920   2.228   6.083 -0.6307  1.4336  1.0931
   36MOL    H5419724   6.782   2.336   6.041  0.9925  1.1209  0.4013
   36MOL    H5519725   7.060   2.205   5.465  0.5354 -1.3201 -0.3333
   36MOL    H5619726   7.017   2.133   5.232 -0.2458 -1.9831  0.1872
   36MOL    H5719727   6.861   2.118   5.042 -1.7679 -0.2344  0.8911
   36MOL    O5819728   6.602   2.268   5.884 -0.2904  0.1900 -0.0495
   36MOL    C5919729   6.698   2.201   5.836 -0.1044 -0.4214  0.1912
   36MOL    O6019730   6.823   2.192   5.898 -0.5687  0.5258  0.4005
   36MOL    C6119731   6.688   2.115   5.716  0.6092  0.1624 -0.8446
   36MOL    C6219732   6.588   2.147   5.626 -0.2095 -0.2636  0.0157
   36MOL    C6319733   6.596   2.080   5.495  0.0501 -0.3520 -0.3239
   36MOL    C6419734   6.505   2.116   5.398 -0.5412 -0.3274  0.5664
   36MOL    C6519735   6.508   2.053   5.272 -0.0029  0.4482 -0.1588
   36MOL    C6619736   6.599   1.950   5.241 -0.1581 -0.4780  0.3183
   36MOL    C6719737   6.604   1.881   5.110  0.7212  0.2958  0.2886
   36MOL    O6819738   6.526   1.932   5.020  0.2872 -0.3603 -0.1597
   36MOL    C6919739   6.485   1.865   4.903 -0.9142  0.5741  0.8599
   36MOL    C7019740   6.408   1.730   4.936  0.3291 -1.1714 -0.0005
   36MOL    O7119741   6.667   1.775   5.091 -0.3630 -0.1071 -0.1084
   36MOL    C7219742   6.693   1.913   5.340 -0.4238 -0.1474  0.6961
   36MOL    C7319743   6.691   1.981   5.468 -0.1445  0.1212 -0.0987
   36MOL    C7419744   6.795   1.951   5.560  0.2589  0.1990 -0.5561
   36MOL    C7519745   6.783   2.018   5.684  0.3458  0.0590  0.1870
   36MOL    H7619746   6.511   2.220   5.649 -0.4805 -0.5218 -0.0635
   36MOL    H7719747   6.443   2.204   5.408  0.3386  0.2964  0.5997
   36MOL    H7819748   6.446   2.074   5.186  1.8255 -2.0044 -2.1451
   36MOL    H7919749   6.575   1.839   4.848 -0.2636  1.4116  1.5026
   36MOL    H8019750   6.420   1.932   4.847  0.8773  0.7772 -1.0524
   36MOL    H8119751   6.375   1.670   4.851 -1.4458  0.2007 -0.3267
   36MOL    H8219752   6.459   1.664   5.005  0.5993 -0.3712  0.5766
   36MOL    H8319753   6.765   1.840   5.305 -0.8808 -1.2107  1.9490
   36MOL    H8419754   6.877   1.882   5.549  1.4777  1.4992  0.2134
   36MOL    H8519755   6.860   1.994   5.755  2.4010 -2.7208 -2.8341
   36MOL    O8619756   6.191   1.570   4.978 -0.8762  0.2785 -0.2480
   36MOL    C8719757   6.192   1.683   5.024 -0.1423  0.2388 -0.1211
   36MOL    O8819758   6.292   1.773   4.997  0.1145 -0.4429 -0.4387
   36MOL    C8919759   6.083   1.748   5.107 -0.9490  0.7742  0.1510
   36MOL    C9019760   6.094   1.876   5.160  0.3114  0.3968  0.2265
   36MOL    C9119761   5.994   1.945   5.224 -0.7868 -0.9514 -0.6383
   36MOL    C9219762   6.015   2.086   5.256 -0.3621  0.1711  0.0354
   36MOL    C9319763   5.905   2.160   5.301 -0.4627 -0.2056  0.3106
   36MOL    C9419764   5.779   2.097   5.330 -0.0315 -0.6040 -0.2080
   36MOL    C9519765   5.670   2.174   5.394 -0.7517 -0.1783 -0.2518
   36MOL    O9619766   5.700   2.312   5.408  0.2788 -0.7793 -0.4382
   36MOL    C9719767   5.601   2.405   5.449 -0.0992  0.0275  0.5207
   36MOL    C9819768   5.556   2.382   5.595 -0.0272 -0.4929  0.2516
   36MOL    O9919769   5.558   2.127   5.423 -0.2929  0.0884 -0.2295
   36MOL   C10019770   5.767   1.956   5.310 -0.0531  0.4870 -0.5189
   36MOL   C10119771   5.874   1.882   5.244  1.0734  0.0287 -0.9635
   36MOL   C10219772   5.853   1.751   5.196 -0.0579  0.3565  0.5257
   36MOL   C10319773   5.960   1.682   5.131 -0.6626  0.4427 -1.1881
   36MOL   H10419774   6.178   1.938   5.133  1.3758 -0.4133  1.6754
   36MOL   H10519775   6.111   2.131   5.235  0.6153 -0.9907  1.9106
   36MOL   H10619776   5.918   2.265   5.326 -2.0286  0.5555 -1.9293
   36MOL   H10719777   5.514   2.411   5.384  0.2222  0.2170  0.1042
   36MOL   H10819778   5.648   2.502   5.433  0.7016 -0.8105 -2.7084
   36MOL   H10919779   5.474   2.312   5.584 -0.4742  0.1941 -0.9166
   36MOL   H11019780   5.637   2.329   5.645  1.0119  0.3449 -0.5073
   36MOL   H11119781   5.674   1.903   5.319  0.1947  0.2867  0.8726
   36MOL   H11219782   5.759   1.704   5.221  1.2470 -2.3209  0.6554
   36MOL   H11319783   5.958   1.580   5.094 -2.0170  0.0397 -0.0548
   36MOL   O11419784   5.318   2.530   5.541  0.8556  0.2904 -0.2266
   36MOL   C11519785   5.398   2.573   5.626 -0.1179 -0.0686 -0.2326
   36MOL   O11619786   5.511   2.501   5.663  0.7218  0.1492 -0.2115
   36MOL   C11719787   5.379   2.706   5.691 -0.1843  0.5491 -0.0406
   36MOL   C11819788   5.435   2.739   5.815 -0.0687 -0.9585  0.2846
   36MOL   C11919789   5.411   2.861   5.880  0.0960 -0.2424  0.1968
   36MOL   C12019790   5.458   2.886   6.007 -0.2838  0.5944  0.0307
   36MOL   C12119791   5.432   3.014   6.063  0.3030  1.1455  0.0702
   36MOL   C12219792   5.377   3.119   5.985 -0.2187  0.3506  0.1081
   36MOL   C12319793   5.368   3.255   6.035  0.3817 -0.3262  0.7251
   36MOL   O12419794   5.475   3.287   6.103  0.1089 -0.3798 -0.7039
   36MOL   C12519795   5.494   3.414   6.159  0.0734 -0.0542 -0.6838
   36MOL   C12619796   5.486   3.420   6.307  0.1481  0.4172 -0.2396
   36MOL   O12719797   5.289   3.339   5.994  0.5542 -0.2157  0.7392
   36MOL   C12819798   5.324   3.086   5.865 -0.6846 -0.2746  0.7241
   36MOL   C12919799   5.344   2.961   5.810 -0.1636  0.0045  0.3730
   36MOL   C13019800   5.291   2.932   5.684  0.8428 -0.7064  0.6377
   36MOL   C13119801   5.307   2.809   5.619 -0.1279 -0.2002  0.4709
   36MOL   H13219802   5.487   2.666   5.875 -0.8219 -1.2571  0.5762
   36MOL   H13319803   5.523   2.817   6.059  1.1127  0.3820 -1.9129
   36MOL   H13419804   5.451   3.044   6.165  1.0497  0.6002  0.0965
   36MOL   H13519805   5.419   3.485   6.125 -0.3804 -1.2174 -2.1937
   36MOL   H13619806   5.589   3.459   6.131 -0.4498  0.9473 -0.8807
   36MOL   H13719807   5.543   3.342   6.359 -0.3331  0.4871  0.3976
   36MOL   H13819808   5.522   3.516   6.343 -2.4517  0.8153  1.3929
   36MOL   H13919809   5.282   3.166   5.806 -0.7601 -0.6389  0.2901
   36MOL   H14019810   5.236   3.011   5.637  2.1403 -0.6685 -0.8378
   36MOL   H14119811   5.271   2.790   5.519 -0.0556  1.1744  0.1733
   36MOL   O14219812   5.391   3.436   6.565  0.5554  0.3026  0.1257
   36MOL   C14319813   5.312   3.412   6.473  0.5444  0.4650 -0.7076
   36MOL   O14419814   5.351   3.398   6.346 -0.1052 -0.5990 -0.7150
   36MOL   C14519815   5.168   3.357   6.487  0.0951  0.2359 -1.3638
   36MOL   C14619816   5.121   3.333   6.615 -0.3025  0.1134 -0.2663
   36MOL   C14719817   4.997   3.259   6.635 -0.0042  0.3389  0.0473
   36MOL   C14819818   4.969   3.216   6.767  0.4534  0.4773 -0.2462
   36MOL   C14919819   4.862   3.127   6.788  0.2091  0.3323  0.1865
   36MOL   C15019820   4.783   3.089   6.680 -0.0466 -0.6298 -0.2745
   36MOL   C15119821   4.674   2.991   6.703 -0.5960 -0.2204 -0.7708
   36MOL   O15219822   4.681   2.941   6.830 -0.0501 -0.2102  0.1877
   36MOL   C15319823   4.592   2.837   6.867  0.2500 -0.0933 -0.1530
   36MOL   C15419824   4.638   2.789   7.001  0.1636 -0.1354  0.0125
   36MOL   O15519825   4.590   2.963   6.625  0.3935 -0.9892 -0.0917
   36MOL   C15619826   4.809   3.145   6.550 -0.4395  0.2634  0.2303
   36MOL   C15719827   4.918   3.221   6.527 -0.4289 -0.1631 -0.1934
   36MOL   C15819828   4.960   3.256   6.392  0.6891 -0.1893 -0.5263
   36MOL   C15919829   5.088   3.317   6.375  0.0017 -0.6513 -0.5336
   36MOL   H16019830   5.179   3.371   6.698 -1.0803  3.1353 -1.0303
   36MOL   H16119831   5.037   3.238   6.849 -2.7826  2.1650  2.0925
   36MOL   H16219832   4.849   3.082   6.885  1.1625  0.5840  0.4309
   36MOL   H16319833   4.606   2.759   6.792  0.8442  0.7810 -0.9546
   36MOL   H16419834   4.486   2.863   6.875  0.1440 -0.0405 -1.7368
   36MOL   H16519835   4.641   2.680   6.996 -0.5645 -0.1271 -0.6672
   36MOL   H16619836   4.737   2.826   7.030  0.2703 -0.5927  0.2409
   36MOL   H16719837   4.745   3.115   6.469 -0.3607 -1.8237  0.9179
   36MOL   H16819838   4.902   3.229   6.305  0.0677 -2.0609  0.4602
   36MOL   H16919839   5.124   3.342   6.276 -0.4491  2.2672  0.0171
   36MOL   O17019840   4.434   2.626   7.112 -0.6013  0.2042  0.1476
   36MOL   C17119841   4.442   2.742   7.148 -0.2003  0.1809 -0.4644
   36MOL   O17219842   4.542   2.819   7.107  0.3434 -0.2447  0.5339
   36MOL   C17319843   4.344   2.809   7.239  0.0278  0.1294  0.7827
   36MOL   C17419844   4.246   2.731   7.304 -0.9768 -1.1434 -0.3884
   36MOL   C17519845   4.159   2.789   7.394 -0.0766 -0.4208 -0.3851
   36MOL   C17619846   4.074   2.710   7.476  0.2140 -0.2600 -0.6076
   36MOL   C17719847   3.977   2.775   7.561 -1.4668  0.2749  0.7311
   36MOL   C17819848   3.968   2.914   7.563  0.6167 -0.7565 -0.3302
   36MOL   C17919849   3.857   2.976   7.637 -0.3808  0.1209 -0.4369
   36MOL   O18019850   3.865   3.109   7.640 -0.3848 -0.2527 -0.8052
   36MOL   C18119851   3.767   3.179   7.712 -0.3175  0.0554  0.3668
   36MOL   C18219852   3.661   3.273   7.633  0.0331 -0.5009 -0.2644
   36MOL   O18319853   3.764   2.909   7.676  0.4658  0.2207 -0.5735
   36MOL   C18419854   4.066   2.993   7.501  0.2593  0.1027  0.3866
   36MOL   C18519855   4.157   2.931   7.412 -0.1366  0.5643  0.1777
   36MOL   C18619856   4.255   3.011   7.344 -0.5221  0.2172  0.7674
   36MOL   C18719857   4.346   2.948   7.261 -0.7884  0.3854  0.2351
   36MOL   H18819858   4.233   2.625   7.286 -0.5344 -0.9884 -1.6662
   36MOL   H18919859   4.070   2.604   7.455 -0.1686 -0.2033 -0.8398
   36MOL   H19019860   3.903   2.716   7.613  0.9528 -1.4959  2.2816
   36MOL   H19119861   3.811   3.245   7.787 -1.0962  1.7208 -0.6162
   36MOL   H19219862   3.716   3.116   7.785  0.4138 -0.2268  0.6381
   36MOL   H19319863   3.578   3.311   7.692 -0.9908 -1.0611 -1.3199
   36MOL   H19419864   3.704   3.373   7.626  0.7643 -0.7286  0.7957
   36MOL   H19519865   4.069   3.100   7.517 -2.2705  0.1546  0.7526
   36MOL   H19619866   4.263   3.118   7.361  0.6401 -0.1290  2.5516
   36MOL   H19719867   4.417   3.000   7.199  1.2376 -1.3705  1.0319
   36MOL   O19819868   3.481   3.070   7.598 -0.0228  0.4314 -0.1065
   36MOL   C19919869   3.519   3.130   7.495  0.1624 -0.9653  0.1936
   36MOL   O20019870   3.599   3.236   7.507 -0.3449  0.0797 -0.3846
   36MOL   C20119871   3.479   3.104   7.356 -0.4603 -0.4608 -0.8405
   36MOL   C20219872   3.530   3.183   7.249 -0.3309  0.1669  0.0561
   36MOL   C20319873   3.501   3.162   7.114  0.2041 -0.0206  0.5449
   36MOL   C20419874   3.542   3.246   7.009  0.7984  0.0080  0.6281
   36MOL   C20519875   3.514   3.217   6.873  0.2462 -0.2674  0.3415
   36MOL   C20619876   3.456   3.089   6.842  0.0558 -0.2910  0.1980
   36MOL   C20719877   3.431   3.032   6.709  0.1171 -0.0314  0.1581
   36MOL   O20819878   3.465   3.116   6.608  0.4484  0.4044  0.3495
   36MOL   C20919879   3.435   3.089   6.471 -0.0052  0.1291 -0.1665
   36MOL   C21019880   3.521   2.970   6.434  0.0614  0.2614 -0.4401
   36MOL   O21119881   3.382   2.921   6.686  0.3497  0.8243 -0.3982
   36MOL   C21219882   3.401   3.016   6.949 -1.1500 -0.0525  0.2183
   36MOL   C21319883   3.421   3.050   7.085  0.0736  0.0338  0.0611
   36MOL   C21419884   3.362   2.978   7.189 -0.0005 -0.1416 -0.1196
   36MOL   C21519885   3.393   3.000   7.326  0.4262 -1.0626  0.0322
   36MOL   H21619886   3.597   3.265   7.269  0.6178 -0.3472 -0.9534
   36MOL   H21719887   3.596   3.336   7.035 -0.8935  1.2241 -0.0091
   36MOL   H21819888   3.551   3.281   6.794  0.5225  1.7181  2.0543
   36MOL   H21919889   3.471   3.175   6.415  0.2805  0.1100 -0.0161
   36MOL   H22019890   3.330   3.075   6.446  0.1976 -1.0355 -0.4309
   36MOL   H22119891   3.586   2.945   6.517 -0.0754 -0.2774 -0.4948
   36MOL   H22219892   3.456   2.883   6.431 -0.7019  0.7534  1.2373
   36MOL   H22319893   3.341   2.927   6.938  0.0026 -1.0336  1.6535
   36MOL   H22419894   3.276   2.914   7.171 -0.1550  0.2754 -0.8597
   36MOL   H22519895   3.349   2.943   7.407 -1.1018 -0.9147 -0.6753
   36MOL   O22619896   3.687   2.792   6.309  0.5154  0.1392 -0.1461
   36MOL   C22719897   3.673   2.906   6.262  0.2774  0.7719 -0.2310
   36MOL   O22819898   3.586   2.999   6.307  1.1032  0.1318  0.0053
   36MOL   C22919899   3.743   2.948   6.135  0.6563  0.0813 -1.5161
   36MOL   C23019900   3.848   2.869   6.083 -1.0300  0.3808  0.4729
   36MOL   C23119901   3.918   2.917   5.972 -0.0190  0.1679  0.0693
   36MOL   C23219902   4.027   2.844   5.925  0.5364  0.4917 -0.1284
   36MOL   C23319903   4.112   2.889   5.823 -0.0957 -0.0253  0.1390
   36MOL   C23419904   4.075   2.999   5.746  0.5515  0.4082  0.4801
   36MOL   C23519905   4.135   3.034   5.623 -0.0254 -0.2765 -0.6257
   36MOL   O23619906   4.268   2.996   5.623 -0.0104 -0.0150 -0.2510
   36MOL   C23719907   4.347   3.030   5.511 -0.9214 -0.2533  0.8502
   36MOL   C23819908   4.366   3.188   5.512  0.5382 -0.7581 -0.0988
   36MOL   O23919909   4.083   3.096   5.534  0.2975 -0.3089  0.8830
   36MOL   C24019910   3.961   3.074   5.790  0.1722  0.5884 -0.5873
   36MOL   C24119911   3.892   3.037   5.906  0.2045 -0.5200  0.2697
   36MOL   C24219912   3.782   3.111   5.960  0.1499 -0.6948 -0.0824
   36MOL   C24319913   3.703   3.070   6.074  0.4772 -0.1092  0.0985
   36MOL   H24419914   3.873   2.781   6.140 -0.2814 -0.4388 -1.1001
   36MOL   H24519915   4.052   2.755   5.981 -1.8249  0.4436  0.9065
   36MOL   H24619916   4.196   2.827   5.798 -0.5955 -0.4779 -0.4313
   36MOL   H24719917   4.298   3.003   5.418 -0.4702  1.3012  0.1543
   36MOL   H24819918   4.448   2.989   5.503  0.4365  2.7501  1.9760
   36MOL   H24919919   4.381   3.227   5.412  0.6907 -0.8158 -0.0982
   36MOL   H25019920   4.297   3.248   5.572  1.7634 -0.3162  0.8737
   36MOL   H25119921   3.930   3.161   5.734  0.5061  0.5848 -0.7743
   36MOL   H25219922   3.760   3.194   5.894  0.8791  0.2741  0.8662
   36MOL   H25319923   3.619   3.131   6.105 -0.4730 -1.1024 -0.4686
   36MOL   O25419924   4.419   3.186   5.791 -0.1354  0.1177 -0.9403
   36MOL   C25519925   4.502   3.222   5.707  0.1775 -0.2078 -0.1536
   36MOL   O25619926   4.490   3.211   5.569 -0.0410 -0.4002  0.1257
   36MOL   C25719927   4.630   3.290   5.745  0.1111 -0.0846 -0.3775
   36MOL   C25819928   4.732   3.296   5.648  0.1264 -0.2644 -0.3336
   36MOL   C25919929   4.854   3.352   5.678 -0.4822  0.5816 -0.3934
   36MOL   C26019930   4.956   3.351   5.584  0.4825 -0.2259  0.0128
   36MOL   C26119931   5.079   3.413   5.621  0.0267  0.9958 -0.1102
   36MOL   C26219932   5.100   3.482   5.742  0.0307 -0.2633 -0.2192
   36MOL   C26319933   5.221   3.569   5.761 -0.1171 -0.1119  0.9522
   36MOL   O26419934   5.291   3.584   5.647  0.4457 -0.5876 -0.0010
   36MOL   C26519935   5.372   3.697   5.624 -0.1900  0.0359  0.0083
   36MOL   C26619936   5.444   3.701   5.488 -0.1977 -0.2466  0.3278
   36MOL   O26719937   5.245   3.644   5.857  0.0690  0.1481 -0.1815
   36MOL   C26819938   4.988   3.486   5.831 -0.5921  0.4150  0.8618
   36MOL   C26919939   4.869   3.415   5.807  0.7315 -0.1570  0.1639
   36MOL   C27019940   4.771   3.410   5.909  0.2297 -0.6675 -0.2212
   36MOL   C27119941   4.652   3.343   5.876 -0.2456 -0.1373  0.2311
   36MOL   H27219942   4.723   3.266   5.544  0.5245 -2.3487  0.2143
   36MOL   H27319943   4.939   3.311   5.485  0.9394 -0.5718  0.0759
   36MOL   H27419944   5.159   3.410   5.549 -0.9074 -0.3421 -1.1311
   36MOL   H27519945   5.448   3.714   5.699 -1.0769  0.1514  0.8921
   36MOL   H27619946   5.306   3.784   5.626  0.3630  0.4537  0.3314
   36MOL   H27719947   5.487   3.799   5.466  1.0170 -0.6182  0.9999
   36MOL   H27819948   5.529   3.633   5.486  0.9570  1.1286  1.9624
   36MOL   H27919949   4.991   3.533   5.928  1.4137 -1.3865  1.7243
   36MOL   H28019950   4.788   3.458   6.004 -0.3605  1.6735 -1.2513
   36MOL   H28119951   4.578   3.320   5.951 -0.5189 -3.6115 -1.0056
   36MOL   O28219952   5.260   3.868   5.374  0.1117  0.3262  0.2908
   36MOL   C28319953   5.268   3.753   5.332  0.0576  0.8327  0.8204
   36MOL   O28419954   5.365   3.666   5.378  0.4098  0.4311  0.6106
   36MOL   C28519955   5.188   3.685   5.227  0.5028  0.3499 -0.6195
   36MOL   C28619956   5.212   3.552   5.182 -0.5011  0.0911  0.1118
   36MOL   C28719957   5.143   3.500   5.074  0.5360 -0.4733 -0.1206
   36MOL   C28819958   5.165   3.374   5.023 -0.6945  0.9971  1.0211
   36MOL   C28919959   5.080   3.321   4.923 -0.1092 -0.5663 -0.3762
   36MOL   C29019960   4.997   3.408   4.853 -0.2170 -0.2621 -0.5024
   36MOL   C29119961   4.935   3.363   4.733  0.0607 -0.5966 -0.2740
   36MOL   O29219962   4.846   3.451   4.681  0.1336  0.3191  0.4710
   36MOL   C29319963   4.783   3.432   4.555 -0.2668  0.2731 -1.0580
   36MOL   C29419964   4.660   3.338   4.568  0.9803 -0.1651 -0.2422
   36MOL   O29519965   4.949   3.251   4.690  0.0953 -0.1419  0.1678
   36MOL   C29619966   4.982   3.543   4.892 -0.3679 -0.0347  0.2820
   36MOL   C29719967   5.048   3.583   5.012 -0.1532  0.4834 -0.6116
   36MOL   C29819968   5.021   3.710   5.057 -0.4131  0.0600  0.0962
   36MOL   C29919969   5.090   3.761   5.167 -0.0168  0.0771 -0.0954
   36MOL   H30019970   5.291   3.494   5.228 -2.0130 -0.8374  1.5936
   36MOL   H30119971   5.253   3.320   5.054 -0.6457  0.2314 -0.3955
   36MOL   H30219972   5.093   3.218   4.891 -0.7026 -0.6324 -0.3980
   36MOL   H30319973   4.852   3.402   4.476  2.6196  2.6369  0.4674
   36MOL   H30419974   4.745   3.530   4.529  0.7232  0.6875 -0.9695
   36MOL   H30519975   4.589   3.350   4.486  1.7169  3.2178 -0.4764
   36MOL   H30619976   4.695   3.237   4.548 -1.9573 -1.0550 -1.0837
   36MOL   H30719977   4.905   3.610   4.855 -0.3014 -0.3106 -0.3631
   36MOL   H30819978   4.945   3.770   5.009 -0.5869  1.5238  2.1316
   36MOL   H30919979   5.057   3.857   5.204 -0.9327  0.0056 -0.7161
   36MOL   O31019980   4.425   3.480   4.621  0.3557 -0.0165 -0.1841
   36MOL   C31119981   4.498   3.429   4.712  0.7441  0.0040  0.5006
   36MOL   O31219982   4.606   3.355   4.697 -0.4240  0.6594  0.7096
   36MOL   C31319983   4.481   3.455   4.859  0.0169 -0.1212 -0.5564
   36MOL   C31419984   4.576   3.408   4.960  0.3656 -0.5603 -0.8364
   36MOL   C31519985   4.547   3.426   5.096  0.7850 -0.0645  0.2555
   36MOL   C31619986   4.645   3.399   5.195  0.2214 -0.3107 -0.5019
   36MOL   C31719987   4.618   3.434   5.330 -0.0569 -0.6794  0.4033
   36MOL   C31819988   4.494   3.491   5.362  0.0479  0.0654 -0.4026
   36MOL   C31919989   4.466   3.524   5.505 -0.0391  0.5977 -0.1721
   36MOL   O32019990   4.561   3.598   5.569  0.3071  0.0146  0.3582
   36MOL   C32119991   4.544   3.636   5.709  1.1951  0.5350 -0.2043
   36MOL   C32219992   4.505   3.778   5.710  0.9179 -0.1578  0.3338
   36MOL   O32319993   4.360   3.497   5.560  0.8679 -0.0196 -0.0404
   36MOL   C32419994   4.401   3.515   5.268  0.1699 -0.2997  0.7974
   36MOL   C32519995   4.427   3.492   5.134  0.2932  0.0427  0.1265
   36MOL   C32619996   4.329   3.521   5.040  0.3337 -0.4771  0.1470
   36MOL   C32719997   4.357   3.506   4.902  0.6871 -0.5139  0.0731
   36MOL   H32819998   4.666   3.354   4.933  0.3139 -0.2730 -1.6003
   36MOL   H32919999   4.740   3.353   5.172 -0.0863  0.0857 -2.6002
   36MOL   H33020000   4.701   3.432   5.399 -0.5294 -1.9587  0.9303
   36MOL   H33120001   4.641   3.625   5.757  0.4972 -4.1681  0.4416
   36MOL   H33220002   4.466   3.576   5.757  0.6179  0.4257 -1.2681
   36MOL   H33320003   4.533   3.818   5.807 -1.0999 -1.8811  1.6770
   36MOL   H33420004   4.557   3.848   5.645 -1.0538 -0.5711 -1.7704
   36MOL   H33520005   4.305   3.559   5.291 -0.7966 -0.6454 -2.2894
   36MOL   H33620006   4.235   3.561   5.076  0.0783  0.7650 -1.8148
   36MOL   H33720007   4.277   3.530   4.833  0.5028 -1.0338  0.1037
   36MOL   O33820008   4.294   3.798   5.889 -1.1532 -0.3442  0.4180
   36MOL   C33920009   4.272   3.790   5.768 -0.4637  0.7107 -0.9956
   36MOL   O34020010   4.369   3.794   5.669 -0.2355  0.1177 -0.1661
   36MOL   C34120011   4.135   3.779   5.713 -0.3502  0.0170  0.2610
   36MOL   C34220012   4.117   3.754   5.568  0.3719  0.0366 -0.5753
   36MOL   C34320013   3.988   3.739   5.512  0.2396 -0.3431  0.1711
   36MOL   C34420014   3.965   3.711   5.374 -0.2365 -0.4640  0.5845
   36MOL   C34520015   3.831   3.705   5.332 -0.3292 -0.6038  0.3616
   36MOL   C34620016   3.718   3.724   5.421 -0.1482 -0.2956 -0.8552
   36MOL   C34720017   3.583   3.706   5.376  0.4800 -0.7931 -0.3242
   36MOL   O34820018   3.566   3.696   5.243  0.2438  0.4498 -0.2656
   36MOL   C34920019   3.432   3.675   5.184 -0.4262 -0.4741 -0.2743
   36MOL   C35020020   3.445   3.685   5.030 -0.1285  0.8253  0.4025
   36MOL   O35120021   3.477   3.702   5.446  0.6057 -0.5456  1.0752
   36MOL   C35220022   3.742   3.748   5.559 -0.1412  0.2722 -0.3157
   36MOL   C35320023   3.876   3.750   5.601  0.2488  0.0387  0.6196
   36MOL   C35420024   3.893   3.770   5.743 -0.2825  0.4442 -1.3493
   36MOL   C35520025   4.020   3.786   5.795  0.3802  0.0001  0.3616
   36MOL   H35620026   4.206   3.734   5.511  0.4514  0.1453 -0.4899
   36MOL   H35720027   4.050   3.691   5.310  0.3476  0.9339  0.9076
   36MOL   H35820028   3.824   3.675   5.228  2.7177  0.9985 -0.3511
   36MOL   H35920029   3.364   3.748   5.230  2.2305  1.2345  1.0665
   36MOL   H36020030   3.408   3.572   5.210 -0.2234 -0.5321 -0.3194
   36MOL   H36120031   3.548   3.658   5.007  0.1819  2.5819 -0.3848
   36MOL   H36220032   3.387   3.607   4.981 -0.7700  1.5058  0.0645
   36MOL   H36320033   3.657   3.769   5.622 -0.1083 -0.1507 -0.1296
   36MOL   H36420034   3.802   3.780   5.801  0.6357  1.8219 -0.0793
   36MOL   H36520035   4.033   3.795   5.902  1.0854  1.7257  0.1465
   36MOL   O36620036   3.385   3.748   4.775  0.4641  0.1693 -0.4831
   36MOL   C36720037   3.404   3.844   4.854  0.5135  0.6500 -0.1299
   36MOL   O36820038   3.415   3.822   4.989  0.1287  0.1899 -0.3319
   36MOL   C36920039   3.414   3.991   4.818  0.6066  0.3183 -0.7113
   36MOL   C37020040   3.388   4.088   4.915  0.1403 -0.0149  0.2134
   36MOL   C37120041   3.396   4.227   4.882  0.4901  0.2613 -0.2536
   36MOL   C37220042   3.376   4.333   4.972  0.1892  0.3103 -0.0363
   36MOL   C37320043   3.386   4.464   4.917 -0.3827 -0.0785  0.0861
   36MOL   C37420044   3.413   4.499   4.783 -0.0653 -0.8639 -0.1939
   36MOL   C37520045   3.413   4.643   4.729  0.0914  0.3467 -0.4868
   36MOL   O37620046   3.376   4.731   4.822 -0.4090  0.3621 -0.1491
   36MOL   C37720047   3.392   4.870   4.791  0.2467  0.1351 -0.0830
   36MOL   C37820048   3.268   4.939   4.735  0.8917  0.7021 -0.0621
   36MOL   O37920049   3.447   4.676   4.616 -0.0818 -0.5776 -0.5780
   36MOL   C38020050   3.438   4.395   4.701 -0.7780 -0.6871 -0.2908
   36MOL   C38120051   3.428   4.259   4.743  0.0749  0.4214 -0.3188
   36MOL   C38220052   3.434   4.156   4.648  0.3840  0.5695  0.3313
   36MOL   C38320053   3.432   4.023   4.683 -0.2835 -0.4471 -0.1476
   36MOL   H38420054   3.352   4.058   5.012  0.0420  0.5957  0.3643
   36MOL   H38520055   3.360   4.328   5.079  0.8010  2.1356  0.1511
   36MOL   H38620056   3.364   4.544   4.987  1.9970 -0.5137  1.3937
   36MOL   H38720057   3.489   4.899   4.750 -0.8065  1.7338 -1.4841
   36MOL   H38820058   3.400   4.914   4.890  3.9203  0.1723 -0.3189
   36MOL   H38920059   3.283   5.044   4.761 -0.3884  0.5051  1.5173
   36MOL   H39020060   3.256   4.925   4.628 -0.5319 -2.0782  0.4234
   36MOL   H39120061   3.471   4.410   4.599 -0.9226 -0.3807 -0.2909
   36MOL   H39220062   3.465   4.184   4.548 -0.2999  1.7345  0.4412
   36MOL   H39320063   3.463   3.948   4.611 -0.1405 -0.4937 -0.0370
   36MOL   O39420064   3.201   5.012   5.000 -0.3754 -0.5955  0.4774
   36MOL   C39520065   3.134   4.932   4.934 -0.0556  0.6856 -0.0217
   36MOL   O39620066   3.160   4.893   4.809 -0.5503 -0.1336  0.2905
   36MOL   C39720067   3.006   4.872   4.983  0.2059 -0.9431  0.6397
   36MOL   C39820068   2.911   4.812   4.897  0.2215  0.9957 -0.0144
   36MOL   C39920069   2.794   4.758   4.952 -0.1444  0.8130 -0.1455
   36MOL   C40020070   2.694   4.700   4.872  1.0105 -0.9047 -0.5264
   36MOL   C40120071   2.580   4.640   4.921  0.5218 -0.0938  0.0447
   36MOL   C40220072   2.559   4.631   5.061  0.8689 -0.1064  0.2225
   36MOL   C40320073   2.438   4.567   5.121  0.2238  0.8550  0.5356
   36MOL   O40420074   2.361   4.512   5.028 -0.2756 -1.1064 -0.1474
   36MOL   C40520075   2.259   4.429   5.067 -0.5223  0.4870 -0.0342
   36MOL   C40620076   2.169   4.419   4.946  0.5388  0.7991 -0.3470
   36MOL   O40720077   2.417   4.569   5.241 -0.4891  0.1137  0.1875
   36MOL   C40820078   2.655   4.698   5.145 -0.3868 -0.0319 -0.0190
   36MOL   C40920079   2.767   4.765   5.093  0.0854  0.2408  0.4028
   36MOL   C41020080   2.857   4.837   5.175 -0.1532 -0.0078  0.0927
   36MOL   C41120081   2.974   4.889   5.117  0.3909 -0.4387 -0.4577
   36MOL   H41220082   2.932   4.798   4.792 -1.7307 -1.4842 -0.1283
   36MOL   H41320083   2.692   4.707   4.764 -0.8299 -1.8939 -0.5830
   36MOL   H41420084   2.497   4.612   4.858  0.1111  1.0538  0.0594
   36MOL   H41520085   2.198   4.475   5.145 -1.6495 -1.0724  0.0285
   36MOL   H41620086   2.303   4.334   5.096  1.8550  1.9826  1.4507
   36MOL   H41720087   2.082   4.377   4.996  0.5347  3.2981  1.8401
   36MOL   H41820088   2.145   4.520   4.912 -0.0412  0.9207  0.4170
   36MOL   H41920089   2.625   4.701   5.249 -1.2387 -0.2173 -0.2509
   36MOL   H42020090   2.842   4.854   5.280 -2.1589  2.1918 -0.5064
   36MOL   H42120091   3.044   4.939   5.182  1.1810 -2.8216  0.5339
   36MOL   O42220092   2.165   4.148   4.945  0.3173  0.5345 -0.6569
   36MOL   C42320093   2.211   4.206   4.846  1.1193 -0.2284 -0.0956
   36MOL   O42420094   2.224   4.342   4.835 -0.1680  0.4321 -0.5649
   36MOL   C42520095   2.245   4.134   4.719  0.0547  0.2749 -0.4490
   36MOL   C42620096   2.197   4.003   4.698  0.0932 -0.0380 -0.3173
   36MOL   C42720097   2.224   3.940   4.570 -0.0691  0.1182 -0.6404
   36MOL   C42820098   2.166   3.816   4.551 -0.4455  0.1894  0.0865
   36MOL   C42920099   2.175   3.750   4.425  0.0848  0.4944 -0.4755
   36MOL   C43020100   2.263   3.802   4.331 -0.7550  0.4334 -0.2646
   36MOL   C43120101   2.292   3.738   4.201  0.4309  0.8857 -0.5132
   36MOL   O43220102   2.277   3.605   4.206  0.3236 -0.1443  0.0753
   36MOL   C43320103   2.325   3.532   4.090 -0.3679  0.1226  0.3429
   36MOL   C43420104   2.234   3.514   3.966 -0.5535 -0.2046  0.1149
   36MOL   O43520105   2.299   3.793   4.096  0.2405 -0.4235 -0.2268
   36MOL   C43620106   2.323   3.930   4.348 -0.3048 -0.3926 -0.0308
   36MOL   C43720107   2.302   3.997   4.470  0.2603  0.0243 -0.0386
   36MOL   C43820108   2.353   4.125   4.494 -0.6291  0.1906  0.1964
   36MOL   C43920109   2.324   4.193   4.618  0.5865  0.5108 -0.1552
   36MOL   H44020110   2.129   3.955   4.765  1.3307 -0.3371  0.7417
   36MOL   H44120111   2.093   3.781   4.623 -1.4032 -0.5832 -1.2279
   36MOL   H44220112   2.135   3.653   4.401  0.1080  0.7144 -1.4098
   36MOL   H44320113   2.356   3.431   4.118  0.1863  0.2356  0.1327
   36MOL   H44420114   2.416   3.578   4.053  0.5902  0.3028  2.8201
   36MOL   H44520115   2.205   3.611   3.925 -0.4728 -0.0443  0.4373
   36MOL   H44620116   2.287   3.448   3.898 -0.8648 -0.3817  0.0446
   36MOL   H44720117   2.390   3.980   4.280  0.4830 -0.4462  0.6977
   36MOL   H44820118   2.414   4.183   4.426 -2.1123  1.9779  0.3475
   36MOL   H44920119   2.361   4.294   4.625  0.2265  0.6305  0.0546
   36MOL   O45020120   2.001   3.617   4.095 -0.1975 -0.5350  0.0733
   36MOL   C45120121   2.007   3.494   4.066 -0.7896 -0.0568  0.2747
   36MOL   O45220122   2.121   3.436   4.005 -0.2146 -0.2386 -0.3416
   36MOL   C45320123   1.900   3.400   4.088  0.0132  0.7314 -0.2712
   36MOL   C45420124   1.826   3.395   4.210 -0.2840  0.2462 -0.3855
   36MOL   C45520125   1.713   3.306   4.221 -0.1824  0.4630 -0.3401
   36MOL   C45620126   1.644   3.288   4.342  0.6207 -0.3342  0.4210
   36MOL   C45720127   1.551   3.180   4.360  0.2292  0.4009  0.0206
   36MOL   C45820128   1.518   3.108   4.242 -0.5416  0.4500 -0.7594
   36MOL   C45920129   1.412   3.000   4.242 -0.7237  0.7103  0.1541
   36MOL   O46020130   1.400   2.946   4.368 -0.0992  0.1099 -0.1751
   36MOL   C46120131   1.316   2.836   4.385 -0.1925 -0.6745  0.1080
   36MOL   C46220132   1.388   2.703   4.376 -0.0215  0.6548 -0.3105
   36MOL   O46320133   1.373   2.952   4.135 -0.3731  0.2752 -0.4583
   36MOL   C46420134   1.579   3.138   4.127  0.0114  1.0228  0.2528
   36MOL   C46520135   1.678   3.229   4.106 -0.3403  0.1908 -0.8624
   36MOL   C46620136   1.745   3.239   3.983 -0.1602 -0.3416 -0.3515
   36MOL   C46720137   1.865   3.312   3.979 -0.1456 -0.3362 -0.0269
   36MOL   H46820138   1.852   3.464   4.289  1.3164  0.5418 -1.1528
   36MOL   H46920139   1.679   3.351   4.422 -0.0113  0.3208  0.1885
   36MOL   H47020140   1.504   3.162   4.455 -0.3709 -0.0714 -0.3626
   36MOL   H47120141   1.240   2.837   4.306  0.6572  1.0407 -0.7064
   36MOL   H47220142   1.267   2.849   4.481  0.8027 -0.7689  0.6247
   36MOL   H47320143   1.475   2.710   4.440  1.2062  1.5210 -2.0191
   36MOL   H47420144   1.326   2.625   4.419  0.7778  1.2182  1.9142
   36MOL   H47520145   1.559   3.088   4.033  3.4821 -0.6817  0.3719
   36MOL   H47620146   1.720   3.184   3.894  0.5921 -1.8061  0.3333
   36MOL   H47720147   1.922   3.318   3.888 -0.2501  0.9929 -0.0204
   36MOL   O47820148   1.533   2.487   4.301  0.0892 -0.0677 -0.0880
   36MOL   C47920149   1.498   2.566   4.214  0.0437  0.2594  0.1410
   36MOL   O48020150   1.417   2.673   4.240  0.2982 -0.1868  0.7026
   36MOL   C48120151   1.534   2.545   4.068  0.9113 -0.4200  0.2760
   36MOL   C48220152   1.539   2.660   3.978  0.0757 -0.5351 -0.2153
   36MOL   C48320153   1.552   2.640   3.843 -0.2521 -0.5896 -0.2375
   36MOL   C48420154   1.555   2.750   3.759  0.5539 -0.1119  0.4061
   36MOL   C48520155   1.563   2.729   3.619  0.0936  0.1322 -0.3272
   36MOL   C48620156   1.572   2.596   3.569 -0.3357  0.3073 -0.1110
   36MOL   C48720157   1.579   2.573   3.422 -0.1628 -0.5432  0.7165
   36MOL   O48820158   1.555   2.453   3.387 -0.1861 -0.0051 -0.7145
   36MOL   C48920159   1.520   2.411   3.257  0.5732  0.1231 -0.3214
   36MOL   C49020160   1.405   2.303   3.274  0.0606 -0.2094  0.2828
   36MOL   O49120161   1.599   2.670   3.344  0.2303 -0.1408  0.9437
   36MOL   C49220162   1.574   2.486   3.657 -0.5819 -0.0923 -0.2013
   36MOL   C49320163   1.564   2.510   3.793 -0.2452 -0.8772  0.4904
   36MOL   C49420164   1.572   2.399   3.879  0.2321 -0.2678  0.5012
   36MOL   C49520165   1.552   2.416   4.017 -0.1195  0.0420  0.4759
   36MOL   H49620166   1.530   2.763   4.009  2.0111 -0.6047  0.6172
   36MOL   H49720167   1.556   2.852   3.795 -1.9010  0.3136 -0.6510
   36MOL   H49820168   1.577   2.810   3.549  2.1875 -1.7128 -2.1249
   36MOL   H49920169   1.610   2.372   3.207  0.5052  0.6682 -0.8742
   36MOL   H50020170   1.479   2.494   3.200 -0.7005  0.0011  0.4144
   36MOL   H50120171   1.392   2.255   3.177  3.7833  2.1664 -1.5110
   36MOL   H50220172   1.427   2.231   3.352  0.0027  0.5925  1.0534
   36MOL   H50320173   1.591   2.387   3.617 -1.8549 -0.7265  0.7877
   36MOL   H50420174   1.583   2.303   3.831  0.9963  1.4861 -2.9676
   36MOL   H50520175   1.548   2.331   4.084  2.2373  0.9328  1.8193
   36MOL   O50620176   1.326   2.336   3.534 -0.6094 -0.5693 -0.2369
   36MOL   C50720177   1.252   2.375   3.446 -0.1470  0.8561  0.5801
   36MOL   O50820178   1.284   2.368   3.311 -0.1237  0.4316  0.2919
   36MOL   C50920179   1.125   2.433   3.482  0.0693 -0.1536 -0.4451
   36MOL   C51020180   1.034   2.451   3.381 -0.2103 -0.3794 -0.0740
   36MOL   C51120181   0.903   2.477   3.419 -0.2379 -1.0338  0.8273
   36MOL   C51220182   0.820   2.513   3.318  0.2069  0.2324 -0.1586
   36MOL   C51320183   0.682   2.530   3.346 -0.1795 -0.5524 -0.6576
   36MOL   C51420184   0.634   2.513   3.476 -0.7940 -0.0458  0.2752
   36MOL   C51520185   0.491   2.499   3.508  0.1673 -0.3011 -0.5092
   36MOL   O51620186   0.467   2.426   3.618  0.5618 -0.4887  0.2176
   36MOL   C51720187   0.335   2.375   3.649 -0.9651  0.0188  0.0044
   36MOL   C51820188   0.301   2.241   3.577  0.5829 -0.2327  0.1998
   36MOL   O51920189   0.408   2.547   3.430  0.3968  0.5833  0.3745
   36MOL   C52020190   0.728   2.497   3.586 -0.0676  0.1945 -0.0129
   36MOL   C52120191   0.864   2.485   3.555 -0.0545  0.5038 -0.6165
   36MOL   C52220192   0.957   2.458   3.661 -0.2010 -0.3138 -0.4084
   36MOL   C52320193   1.086   2.435   3.621 -0.0296 -0.5235 -0.3850
   36MOL   H52420194   1.057   2.441   3.276 -1.9650 -3.1983 -0.2364
   36MOL   H52520195   0.851   2.512   3.214 -1.0392 -1.4822 -0.5384
   36MOL   H52620196   0.617   2.559   3.265 -0.1690 -0.5471 -0.6640
   36MOL   H52720197   0.268   2.454   3.617 -0.4246  0.6151  0.3377
   36MOL   H52820198   0.344   2.368   3.758  4.0098 -0.6353 -0.3460
   36MOL   H52920199   0.398   2.193   3.560  1.0819  1.0660 -0.6297
   36MOL   H53020200   0.231   2.179   3.634 -0.4617  1.4147  0.7281
   36MOL   H53120201   0.698   2.481   3.689  0.1609 -0.6449 -0.0761
   36MOL   H53220202   0.933   2.464   3.766 -0.4101 -0.2604 -0.4572
   36MOL   H53320203   1.163   2.412   3.694 -0.3440  2.5044  1.0006
   36MOL   O53420204   0.375   2.185   3.318  0.3959  0.1973  0.1042
   36MOL   C53520205   0.265   2.233   3.340 -0.8728 -0.0832 -0.4763
   36MOL   O53620206   0.225   2.272   3.457 -0.1216 -0.1684  0.1396
   36MOL   C53720207   0.175   2.284   3.237  0.7025  0.3130  0.5435
   36MOL   C53820208   0.126   2.201   3.127 -0.6734 -0.3606 -0.1730
   36MOL   C53920209   0.022   2.253   3.044  0.5073 -0.7863 -0.4609
   36MOL   C54020210   8.224   2.176   2.935  0.3031 -0.1918  0.4864
   36MOL   C54120211   8.131   2.227   2.846  0.1421 -0.1560  0.1418
   36MOL   C54220212   8.074   2.354   2.876  0.2104  0.6841 -0.0062
   36MOL   C54320213   7.976   2.415   2.780  0.5787  0.4898 -0.0962
   36MOL   O54420214   7.988   2.364   2.658  0.3347  0.3174  1.0860
   36MOL   C54520215   7.910   2.420   2.548 -0.5604 -0.5927 -0.4035
   36MOL   C54620216   7.989   2.540   2.490 -0.7653 -0.4341 -0.7996
   36MOL   O54720217   7.893   2.492   2.814 -0.0586 -1.0353  0.6329
   36MOL   C54820218   8.114   2.428   2.985  0.2817 -0.2416 -0.7765
   36MOL   C54920219   8.214   2.382   3.071 -0.5772 -0.1929 -0.1381
   36MOL   C55020220   0.023   2.463   3.172  0.5827  0.2672 -0.7248
   36MOL   C55120221   0.126   2.415   3.247 -0.4067 -0.2400  0.6834
   36MOL   H55220222   0.167   2.102   3.116  0.3028  0.1426 -1.1628
   36MOL   H55320223   0.016   2.077   2.923 -0.1653 -0.2627 -0.6100
   36MOL   H55420224   8.107   2.173   2.756 -2.1059  0.3987  0.3862
   36MOL   H55520225   7.819   2.460   2.593 -0.4840 -1.6911  0.7656
   36MOL   H55620226   7.887   2.354   2.463 -2.3872 -0.7965  0.2226
   36MOL   H55720227   8.089   2.516   2.454  0.2923  1.2075  0.9461
   36MOL   H55820228   8.024   2.616   2.560  1.2847 -0.6742 -1.5247
   36MOL   H55920229   8.068   2.524   3.004  3.3260  1.4646 -1.7247
   36MOL   H56020230   8.231   2.559   3.200 -0.7391 -0.4735 -0.0849
   36MOL   H56120231   0.162   2.466   3.335  2.8840 -1.4477  0.1149
   36MOL   H56220232   7.938   2.599   2.414 -0.8197 -1.4205 -1.5321
   37MOL     O120233   1.310   5.412   5.464 -0.3152  0.3436  0.5160
   37MOL     C220234   1.326   5.439   5.581  0.0594 -0.0547 -0.4958
   37MOL     O320235   1.439   5.406   5.642 -0.0611  0.9928  0.0347
   37MOL     C420236   1.223   5.518   5.658 -0.0504 -0.3028  0.3823
   37MOL     C520237   1.248   5.551   5.787  0.4559  0.2814  0.4606
   37MOL     C620238   1.160   5.628   5.859  0.7661  0.3397 -0.9469
   37MOL     C720239   1.197   5.666   5.989 -0.5709 -0.3041 -0.5656
   37MOL     C820240   1.113   5.753   6.067  0.6805  0.2839  0.6789
   37MOL     C920241   0.990   5.803   6.015  0.0186 -0.3625  0.5054
   37MOL    C1020242   0.911   5.906   6.091  0.0354  0.2753 -0.8908
   37MOL    O1120243   0.788   5.919   6.046 -0.1466 -0.4729 -0.5413
   37MOL    C1220244   0.695   5.996   6.120 -0.5284  0.2081 -0.7269
   37MOL    C1320245   0.631   5.905   6.225  0.6677 -0.1214 -0.0085
   37MOL    O1420246   0.953   5.958   6.198 -1.0099  0.1419  0.2056
   37MOL    C1520247   0.950   5.758   5.886 -0.2413  0.8272  0.1599
   37MOL    C1620248   1.038   5.682   5.805 -0.0650 -0.2466 -0.5786
   37MOL    C1720249   1.010   5.649   5.671 -0.0355 -0.0110 -0.4517
   37MOL    C1820250   1.101   5.567   5.601 -0.2576  1.0560 -0.2795
   37MOL    H1920251   1.339   5.511   5.830  0.8679 -0.2310 -0.8826
   37MOL    H2020252   1.290   5.622   6.022 -1.0648 -0.1520  1.0864
   37MOL    H2120253   1.144   5.777   6.168  2.4880 -0.5407  0.3446
   37MOL    H2220254   0.745   6.078   6.173  0.4438 -1.5255  1.1017
   37MOL    H2320255   0.639   6.043   6.039  2.0854 -0.0171 -2.7182
   37MOL    H2420256   0.696   5.818   6.234  1.3396  0.4235  0.5242
   37MOL    H2520257   0.635   5.962   6.317 -0.5201  1.4341 -0.8834
   37MOL    H2620258   0.869   5.808   5.834 -0.1994  1.6178  0.8430
   37MOL    H2720259   0.911   5.681   5.641 -0.0812  1.8868  1.6223
   37MOL    H2820260   1.074   5.536   5.501 -1.2174 -0.3466  0.3953
   37MOL    H2920261   1.516   5.410   5.587 -1.5566  1.7617 -2.0770
   37MOL    O3020262   0.434   6.101   6.209 -0.2552  0.7004 -0.4167
   37MOL    C3120263   0.405   5.985   6.190 -0.2507 -0.0216 -0.1177
   37MOL    O3220264   0.490   5.880   6.200 -0.1980  0.0505  0.4243
   37MOL    C3320265   0.262   5.951   6.155 -0.2868 -0.0809  0.0247
   37MOL    C3420266   0.218   5.820   6.177  0.3276  0.5565  0.2194
   37MOL    C3520267   0.100   5.779   6.120  0.5865 -0.8720 -0.5398
   37MOL    C3620268   0.060   5.645   6.126  0.3696  0.7958 -0.4318
   37MOL    C3720269   8.195   5.611   6.054 -0.1120 -0.0611  0.0387
   37MOL    C3820270   8.124   5.706   5.982  0.2320  0.2256  0.1703
   37MOL    C3920271   7.997   5.656   5.914 -0.2950  0.4805 -0.2580
   37MOL    O4020272   7.907   5.754   5.894 -0.1344 -0.7610  0.2677
   37MOL    C4120273   7.773   5.733   5.840 -0.7522 -0.1135 -0.4904
   37MOL    C4220274   7.781   5.766   5.689  0.3019  0.4336  0.5980
   37MOL    O4320275   7.973   5.537   5.882 -0.1668 -1.0272  0.0212
   37MOL    C4420276   8.163   5.843   5.972 -0.2556  0.0990  0.5022
   37MOL    C4520277   0.029   5.878   6.043  0.9942 -0.4740  0.1945
   37MOL    C4620278   0.070   6.009   6.024  0.2762 -0.2859 -0.0537
   37MOL    C4720279   0.196   6.046   6.079  0.1631 -0.2434  0.4906
   37MOL    H4820280   0.271   5.745   6.235 -1.1093 -0.7172 -0.0848
   37MOL    H4920281   0.117   5.577   6.187  1.2904  2.5317  0.6825
   37MOL    H5020282   8.163   5.508   6.056  1.8942 -0.7161  0.6165
   37MOL    H5120283   7.705   5.798   5.895 -0.4052 -2.0395  2.3622
   37MOL    H5220284   7.737   5.631   5.855 -2.8967  0.6805 -0.0889
   37MOL    H5320285   7.683   5.753   5.642  0.6388  0.7450 -0.2078
   37MOL    H5420286   7.821   5.866   5.679 -1.8513  1.1621 -1.1229
   37MOL    H5520287   8.098   5.911   5.918 -1.3529 -1.3114  0.0026
   37MOL    H5620288   0.021   6.084   5.963  1.9380  1.7754  1.0666
   37MOL    H5720289   0.252   6.136   6.060 -0.0360 -0.1537  0.3213
   37MOL    O5820290   7.716   5.524   5.561  0.1476 -0.1178 -0.2048
   37MOL    C5920291   7.831   5.566   5.557  0.4694  0.3972 -0.5119
   37MOL    O6020292   7.875   5.683   5.607  0.2298 -0.2799 -0.3224
   37MOL    C6120293   7.941   5.495   5.475  0.2364 -0.0080 -0.3294
   37MOL    C6220294   7.898   5.383   5.399  0.1464  0.2769 -0.1681
   37MOL    C6320295   7.996   5.326   5.306  0.7564 -0.3911 -0.0105
   37MOL    C6420296   7.959   5.231   5.210  0.0532 -0.2926  0.0982
   37MOL    C6520297   8.051   5.167   5.123 -0.2807 -0.0787  0.3851
   37MOL    C6620298   8.183   5.208   5.124 -0.1537  0.4570  0.1590
   37MOL    C6720299   0.032   5.139   5.037  0.0130 -0.4060 -0.4664
   37MOL    O6820300   0.151   5.207   5.027  0.9659  0.2319 -0.2612
   37MOL    C6920301   0.268   5.147   4.989  0.5564  0.2962  0.1122
   37MOL    C7020302   0.375   5.149   5.103 -0.1563 -0.5380 -0.6981
   37MOL    O7120303   0.005   5.035   4.978 -0.0587 -0.2300 -0.0024
   37MOL    C7220304   8.219   5.319   5.205 -0.0739 -0.1127 -0.2957
   37MOL    C7320305   8.126   5.376   5.294  0.0592  0.3383  0.1165
   37MOL    C7420306   8.169   5.481   5.381  0.9972  0.0110 -0.2529
   37MOL    C7520307   8.081   5.534   5.477  1.2718  0.3832  0.3030
   37MOL    H7620308   7.795   5.351   5.410  0.3550  0.2090  1.7642
   37MOL    H7720309   7.860   5.187   5.212 -0.4557  0.7661 -1.3307
   37MOL    H7820310   8.012   5.088   5.061 -0.7674 -1.3480  2.2495
   37MOL    H7920311   0.316   5.203   4.909 -0.3634 -0.5095 -1.0215
   37MOL    H8020312   0.249   5.043   4.959  0.3453  0.9347 -2.0548
   37MOL    H8120313   0.340   5.099   5.193 -0.8564  1.4665  0.1744
   37MOL    H8220314   0.462   5.098   5.061 -2.0219 -3.5105 -1.0695
   37MOL    H8320315   0.071   5.357   5.196 -0.1941  0.3302  0.1782
   37MOL    H8420316   0.023   5.514   5.380  0.6354  1.4144  3.0211
   37MOL    H8520317   8.105   5.616   5.543  1.3951  0.1662  0.5259
   37MOL    O8620318   0.515   5.232   5.325  0.3869 -0.2063 -0.1542
   37MOL    C8720319   0.471   5.316   5.241 -0.3144 -0.7404  0.3540
   37MOL    O8820320   0.409   5.282   5.126 -0.1483  0.2477  0.4111
   37MOL    C8920321   0.456   5.462   5.273  0.4853 -0.7575  0.4776
   37MOL    C9020322   0.512   5.516   5.390 -0.6888  0.9614 -0.3069
   37MOL    C9120323   0.517   5.655   5.411 -0.6798 -0.3182  0.4241
   37MOL    C9220324   0.578   5.710   5.530  0.6744 -0.7477 -0.6163
   37MOL    C9320325   0.567   5.846   5.553  0.1197 -0.3061 -0.1653
   37MOL    C9420326   0.500   5.928   5.458 -1.0640 -0.0300  0.3464
   37MOL    C9520327   0.492   6.078   5.481 -0.1077  0.4233 -0.0882
   37MOL    O9620328   0.515   6.111   5.609 -0.0276  1.0193  0.4020
   37MOL    C9720329   0.502   6.252   5.645  0.2826  0.3628 -0.1059
   37MOL    C9820330   0.472   6.252   5.798 -0.1528 -0.5066  0.0442
   37MOL    O9920331   0.446   6.153   5.397 -0.6873 -0.6942 -0.1985
   37MOL   C10020332   0.444   5.879   5.339 -0.7028  0.1118  0.5008
   37MOL   C10120333   0.445   5.739   5.320  0.1765 -0.6698  0.0519
   37MOL   C10220334   0.370   5.687   5.218 -0.4869  0.7891  0.7074
   37MOL   C10320335   0.373   5.550   5.193  0.2798  0.2428  0.0408
   37MOL   H10420336   0.541   5.444   5.466 -2.3232 -0.9975 -1.4839
   37MOL   H10520337   0.629   5.647   5.602  0.6525  2.0011  1.8653
   37MOL   H10620338   0.610   5.885   5.644  1.5586  1.1233 -1.4174
   37MOL   H10720339   0.432   6.318   5.593 -0.2612  2.2354  2.9073
   37MOL   H10820340   0.596   6.305   5.628 -1.1592  2.9180 -0.3898
   37MOL   H10920341   0.367   6.241   5.824 -0.2964 -0.8109 -0.6605
   37MOL   H11020342   0.521   6.166   5.843 -0.1165 -1.1860 -1.2726
   37MOL   H11120343   0.385   5.935   5.268 -0.3932  2.0106  1.7037
   37MOL   H11220344   0.325   5.757   5.149  0.9753 -0.4064 -1.5001
   37MOL   H11320345   0.302   5.516   5.119 -0.6113  1.2524  0.4025
   37MOL   O11420346   0.716   6.269   5.945 -0.0590  0.4147  0.3620
   37MOL   C11520347   0.642   6.366   5.933  0.9961  0.1924  0.3692
   37MOL   O11620348   0.524   6.363   5.862  0.9126  0.2551  0.0421
   37MOL   C11720349   0.664   6.497   5.994  0.3788 -0.3350  0.1133
   37MOL   C11820350   0.786   6.515   6.067 -0.1283 -0.8837  0.0691
   37MOL   C11920351   0.807   6.641   6.130  0.1755 -0.4069 -0.5898
   37MOL   C12020352   0.922   6.656   6.206 -0.6478  0.4923 -0.1643
   37MOL   C12120353   0.947   6.778   6.272  0.3794 -0.8412  0.1074
   37MOL   C12220354   0.842   6.873   6.279 -0.0323  0.1894  0.2403
   37MOL   C12320355   0.863   7.004   6.350  0.5112  0.7783 -0.7468
   37MOL   O12420356   0.963   6.996   6.440 -0.0466 -0.7953  0.3188
   37MOL   C12520357   0.983   7.108   6.523  0.3947 -0.4294  0.1325
   37MOL   C12620358   1.125   7.102   6.590 -0.1387 -0.8748  0.2996
   37MOL   O12720359   0.796   7.108   6.331  0.0685 -0.2076  0.2685
   37MOL   C12820360   0.728   6.857   6.200  0.1226 -0.1258 -0.0338
   37MOL   C12920361   0.710   6.743   6.124 -0.3274 -0.7724  0.0803
   37MOL   C13020362   0.593   6.734   6.045  0.3564  0.1476  0.0727
   37MOL   C13120363   0.573   6.607   5.980 -0.3841  1.0328  0.0606
   37MOL   H13220364   0.862   6.439   6.064  1.6595  0.8179  1.4573
   37MOL   H13320365   0.999   6.580   6.212 -0.2290  0.6631 -2.8584
   37MOL   H13420366   1.041   6.794   6.322  1.2002 -4.1116 -0.3213
   37MOL   H13520367   0.900   7.104   6.594 -1.0602 -0.9935 -1.5733
   37MOL   H13620368   0.965   7.201   6.470  0.5113  0.3081  1.3549
   37MOL   H13720369   1.142   7.197   6.640  2.7501 -0.5299 -1.2365
   37MOL   H13820370   1.131   7.035   6.676  0.4220  0.5113  1.3570
   37MOL   H13920371   0.651   6.932   6.192 -0.6951 -1.1284 -1.7288
   37MOL   H14020372   0.520   6.813   6.034 -0.1156 -0.4894 -1.4594
   37MOL   H14120373   0.484   6.593   5.922  1.9020 -0.3413 -3.2933
   37MOL   O14220374   1.311   7.263   6.459  0.3603  0.3403 -0.2286
   37MOL   C14320375   1.308   7.140   6.442  0.3476 -0.0127  0.1426
   37MOL   O14420376   1.229   7.057   6.509 -0.1432  0.2553 -0.1386
   37MOL   C14520377   1.392   7.064   6.347 -0.3042  0.2052 -0.2989
   37MOL   C14620378   1.351   6.942   6.291  0.2745  0.3202 -0.5565
   37MOL   C14720379   1.420   6.879   6.184 -0.2715 -0.6044 -0.0527
   37MOL   C14820380   1.367   6.757   6.139  0.1220 -0.5764  0.2282
   37MOL   C14920381   1.428   6.699   6.018  0.2415 -0.2838 -0.1663
   37MOL   C15020382   1.540   6.760   5.953  0.1084 -0.1526 -0.3103
   37MOL   C15120383   1.594   6.692   5.832  0.2649 -0.3169 -0.0414
   37MOL   O15220384   1.724   6.707   5.820  0.0977 -0.1060 -0.0992
   37MOL   C15320385   1.786   6.673   5.700  0.5772 -0.5718 -0.3330
   37MOL   C15420386   1.822   6.528   5.712 -0.6234 -0.0931  0.0598
   37MOL   O15520387   1.526   6.616   5.759  0.1844  0.7284 -0.1641
   37MOL   C15620388   1.598   6.872   6.012 -0.2516 -0.4422 -0.1568
   37MOL   C15720389   1.537   6.934   6.130  0.0053  0.4492  0.8318
   37MOL   C15820390   1.587   7.049   6.190  0.0730 -0.2507  0.0166
   37MOL   C15920391   1.519   7.116   6.297 -0.4641 -0.5047 -0.1873
   37MOL   H16020392   1.262   6.888   6.320  1.1521 -1.3689 -0.9583
   37MOL   H16120393   1.272   6.718   6.174 -0.3753  0.3959  0.0043
   37MOL   H16220394   1.379   6.618   5.966 -1.5617  0.3462  0.4874
   37MOL   H16320395   1.872   6.739   5.688  0.0389  0.3486  0.7678
   37MOL   H16420396   1.718   6.692   5.617  2.4513  1.0002 -1.5451
   37MOL   H16520397   1.839   6.513   5.819  0.4041  0.1907 -0.0594
   37MOL   H16620398   1.738   6.465   5.684 -0.9377  0.0850  0.5860
   37MOL   H16720399   1.685   6.915   5.966 -1.0397  1.1517 -0.1972
   37MOL   H16820400   1.681   7.083   6.149 -0.0567  1.3081  0.9472
   37MOL   H16920401   1.574   7.197   6.344  0.2025 -1.1132  0.0998
   37MOL   O17020402   2.088   6.570   5.766  0.1831 -0.0074 -0.0473
   37MOL   C17120403   2.063   6.498   5.676 -0.8036  0.3618  0.7790
   37MOL   O17220404   1.937   6.489   5.628 -0.2916  0.3134 -0.5329
   37MOL   C17320405   2.160   6.425   5.587  0.3162  0.4300 -0.2362
   37MOL   C17420406   2.297   6.443   5.620 -0.4135  0.8140  0.3319
   37MOL   C17520407   2.391   6.386   5.532  0.3670 -0.5902  0.8195
   37MOL   C17620408   2.526   6.406   5.554 -0.2047 -0.0979  0.4500
   37MOL   C17720409   2.624   6.362   5.461  0.5941  1.0631  0.4069
   37MOL   C17820410   2.581   6.273   5.356  0.2509 -0.3650  0.5053
   37MOL   C17920411   2.689   6.237   5.260 -0.2096  0.3241  0.0846
   37MOL   O18020412   2.663   6.131   5.167  0.3838 -0.2261 -0.2455
   37MOL   C18120413   2.755   6.088   5.065  0.6689 -0.1924  0.7146
   37MOL   C18220414   2.770   6.199   4.961  0.1891 -0.0407  0.9831
   37MOL   O18320415   2.802   6.291   5.258  0.1291  0.2259  0.3841
   37MOL   C18420416   2.443   6.239   5.342 -0.2635  0.3699 -0.2653
   37MOL   C18520417   2.348   6.299   5.428 -0.2488  0.4450 -0.2156
   37MOL   C18620418   2.209   6.269   5.411  0.2205  0.1110 -0.0026
   37MOL   C18720419   2.112   6.336   5.484  0.6025  0.8091  0.2327
   37MOL   H18820420   2.327   6.498   5.707 -0.2194  0.3282  0.5781
   37MOL   H18920421   2.563   6.462   5.638  2.5586 -0.3359 -0.5690
   37MOL   H19020422   2.727   6.389   5.480  1.8522 -4.2985  1.8308
   37MOL   H19120423   2.723   5.998   5.014  2.9002 -1.4741  1.5189
   37MOL   H19220424   2.852   6.069   5.112  0.9606  0.3679  0.3447
   37MOL   H19320425   2.671   6.243   4.949 -0.0485 -0.2240  2.2000
   37MOL   H19420426   2.839   6.276   4.994  1.2510 -0.1535 -0.9305
   37MOL   H19520427   2.406   6.159   5.278  1.1314  0.3853 -1.0930
   37MOL   H19620428   2.180   6.187   5.347  1.9891  1.1259 -2.2234
   37MOL   H19720429   2.006   6.322   5.473  0.7619 -0.5944  0.4099
   37MOL   O19820430   2.666   6.030   4.755  0.5380  0.2688 -0.2692
   37MOL   C19920431   2.783   6.076   4.752  0.3553  0.5136 -0.2145
   37MOL   O20020432   2.844   6.151   4.847 -0.4645 -0.3795 -0.9464
   37MOL   C20120433   2.873   6.056   4.635  0.0472  0.6927  0.0327
   37MOL   C20220434   2.843   5.958   4.538  0.5910 -0.2931 -0.0867
   37MOL   C20320435   2.893   5.972   4.408 -0.0111  0.5015  0.2964
   37MOL   C20420436   2.855   5.883   4.307  0.3200  0.6955 -0.3621
   37MOL   C20520437   2.903   5.901   4.173  0.0370 -0.5194 -1.1777
   37MOL   C20620438   3.003   6.000   4.148  0.0397  0.5081 -0.2218
   37MOL   C20720439   3.068   6.012   4.010  0.4186 -0.5691  0.2758
   37MOL   O20820440   3.135   6.126   3.992  0.5535 -0.7543 -0.2297
   37MOL   C20920441   3.197   6.163   3.871  0.0626 -0.5308 -0.0865
   37MOL   C21020442   3.095   6.196   3.758  0.1167 -0.2716  0.0235
   37MOL   O21120443   3.077   5.917   3.936  0.3926 -0.0662  0.8372
   37MOL   C21220444   3.053   6.080   4.255  0.7303 -0.1537  0.9248
   37MOL   C21320445   2.993   6.067   4.384 -0.9597 -0.0384 -0.1899
   37MOL   C21420446   3.042   6.141   4.490  0.1401 -0.5840  0.5565
   37MOL   C21520447   2.985   6.143   4.617  0.5166  0.2179  0.1255
   37MOL   H21620448   2.766   5.892   4.574  1.1604 -0.5975  0.5893
   37MOL   H21720449   2.784   5.804   4.327 -0.2520  0.9836 -1.2359
   37MOL   H21820450   2.854   5.837   4.101  1.0482 -1.0003 -1.4405
   37MOL   H21920451   3.271   6.092   3.833 -1.0646 -1.3729 -0.7456
   37MOL   H22020452   3.246   6.260   3.885 -0.2849 -0.8845  4.0676
   37MOL   H22120453   3.002   6.226   3.806  0.4123  1.0472 -0.2189
   37MOL   H22220454   3.124   6.289   3.710  0.7815  0.0846  1.1014
   37MOL   H22320455   3.131   6.153   4.239  0.3898  0.3883  1.7511
   37MOL   H22420456   3.118   6.215   4.470  0.5677 -0.2058  3.3910
   37MOL   H22520457   3.012   6.207   4.699  2.3871 -2.2217  1.4914
   37MOL   O22620458   3.232   6.104   3.545 -0.3066  0.0588  0.0197
   37MOL   C22720459   3.138   6.034   3.588 -0.6844 -0.0384 -0.7560
   37MOL   O22820460   3.060   6.082   3.687 -0.2661 -0.6070  0.0947
   37MOL   C22920461   3.108   5.899   3.541  0.4288  0.0472 -0.0549
   37MOL   C23020462   3.015   5.818   3.611  1.4433  0.0389 -0.0271
   37MOL   C23120463   2.990   5.686   3.565 -0.1485 -0.1204 -0.1569
   37MOL   C23220464   2.904   5.594   3.631 -0.2164  0.5734  0.6729
   37MOL   C23320465   2.893   5.460   3.584  0.6005  0.3078 -0.6642
   37MOL   C23420466   2.965   5.408   3.478 -0.0708  0.0405  0.7318
   37MOL   C23520467   2.939   5.271   3.429 -0.1397  0.7409 -0.3654
   37MOL   O23620468   3.019   5.241   3.328  0.5243  0.4130  0.1232
   37MOL   C23720469   2.991   5.114   3.261  0.4035  0.9426 -0.4835
   37MOL   C23820470   3.046   4.997   3.344 -1.0749 -0.2619 -0.2728
   37MOL   O23920471   2.853   5.194   3.478 -0.0437 -0.3366 -0.4771
   37MOL   C24020472   3.055   5.499   3.412 -0.4508  0.6091  0.1508
   37MOL   C24120473   3.069   5.632   3.455  0.2617  0.1060 -0.4178
   37MOL   C24220474   3.169   5.707   3.392 -0.4256  0.1682 -0.1574
   37MOL   C24320475   3.184   5.843   3.433 -0.2071 -0.9894 -0.1832
   37MOL   H24420476   2.966   5.851   3.702  0.0926 -2.7946  0.3223
   37MOL   H24520477   2.857   5.637   3.718 -1.5736 -0.5206  0.4967
   37MOL   H24620478   2.822   5.397   3.635 -0.1320  0.3948 -1.5545
   37MOL   H24720479   3.039   5.135   3.165 -0.4420 -1.6728 -1.5177
   37MOL   H24820480   2.889   5.090   3.232 -0.0654  0.7150  1.2613
   37MOL   H24920481   3.131   5.028   3.404 -0.3984  0.5072 -1.6179
   37MOL   H25020482   2.968   4.974   3.417 -0.1866  2.5399  1.6108
   37MOL   H25120483   3.116   5.451   3.337  0.2745 -1.0572  1.7718
   37MOL   H25220484   3.231   5.663   3.315 -1.7379  2.4452 -2.6130
   37MOL   H25320485   3.260   5.901   3.382 -0.7019 -1.7500 -1.8013
   37MOL   O25420486   2.909   4.857   3.147 -0.0457  0.3912  0.1244
   37MOL   C25520487   3.020   4.819   3.186 -0.1599  0.7117  0.6680
   37MOL   O25620488   3.096   4.886   3.269 -0.0881  1.1942 -0.0538
   37MOL   C25720489   3.077   4.687   3.140  0.2546 -1.1671 -0.2635
   37MOL   C25820490   2.989   4.582   3.117  0.2771 -0.7449 -0.3151
   37MOL   C25920491   3.033   4.454   3.086 -0.8748  0.7227 -0.1420
   37MOL   C26020492   2.944   4.355   3.044 -0.4552 -0.3089  0.3536
   37MOL   C26120493   2.989   4.228   3.005 -0.0677  0.1988  0.0593
   37MOL   C26220494   3.128   4.205   2.990 -0.2019  1.5205 -0.2766
   37MOL   C26320495   3.178   4.082   2.940  0.1190  0.0600  0.6372
   37MOL   O26420496   3.079   3.994   2.918  0.2818 -0.2682  0.4463
   37MOL   C26520497   3.115   3.869   2.854 -0.6946 -0.3855 -0.3878
   37MOL   C26620498   3.067   3.877   2.713  0.0646  0.4795  0.1610
   37MOL   O26720499   3.296   4.062   2.925  0.2044  0.4267 -0.1460
   37MOL   C26820500   3.221   4.311   3.031  0.7932 -0.2214 -0.2732
   37MOL   C26920501   3.168   4.427   3.076 -0.0086  0.1422 -0.3117
   37MOL   C27020502   3.257   4.534   3.114 -0.0163 -0.0303 -0.2593
   37MOL   C27120503   3.215   4.661   3.147  0.0411  1.1383 -0.2772
   37MOL   H27220504   2.882   4.587   3.102 -0.0749 -0.4240  2.0481
   37MOL   H27320505   2.839   4.381   3.050 -0.7052 -1.5769  1.7566
   37MOL   H27420506   2.924   4.149   2.969  0.8518 -0.1649 -0.8322
   37MOL   H27520507   3.062   3.795   2.914 -1.8290  2.1506  1.8217
   37MOL   H27620508   3.221   3.852   2.873 -0.8868  2.1164  3.3013
   37MOL   H27720509   3.102   3.970   2.669  1.5647 -0.1010  0.0813
   37MOL   H27820510   3.112   3.793   2.660  0.2533 -0.2545  1.4619
   37MOL   H27920511   3.327   4.295   3.033  1.1968  2.2577 -0.6961
   37MOL   H28020512   3.360   4.505   3.130  0.5205  3.3092  3.0460
   37MOL   H28120513   3.281   4.742   3.176  0.9641  0.0002  0.8718
   37MOL   O28220514   2.886   4.094   2.708  0.4288  0.3103  0.3509
   37MOL   C28320515   2.849   3.976   2.700 -0.6722  0.3919  0.0385
   37MOL   O28420516   2.931   3.867   2.716 -0.3380 -0.4913 -0.0496
   37MOL   C28520517   2.705   3.932   2.682  0.2232  0.0881 -0.2376
   37MOL   C28620518   2.673   3.813   2.607 -0.1814  0.1738 -0.5524
   37MOL   C28720519   2.535   3.778   2.599 -0.2951  0.1600 -0.2159
   37MOL   C28820520   2.507   3.655   2.529 -0.0262  0.6297  0.0379
   37MOL   C28920521   2.370   3.606   2.537 -0.0283  0.2122  0.1308
   37MOL   C29020522   2.266   3.682   2.599  0.0810  0.0739 -0.0794
   37MOL   C29120523   2.139   3.610   2.619 -0.1844  0.1041 -0.4838
   37MOL   O29220524   2.037   3.681   2.675  0.2919 -0.0913 -0.0219
   37MOL   C29320525   1.912   3.626   2.700 -0.3643 -0.5054 -0.8067
   37MOL   C29420526   1.820   3.748   2.706  0.2914 -0.1729 -0.4246
   37MOL   O29520527   2.121   3.488   2.589  0.0065 -0.5114  0.5716
   37MOL   C29620528   2.294   3.813   2.654  0.0630  0.6174 -0.0168
   37MOL   C29720529   2.431   3.853   2.657  0.0592 -0.1714  0.7246
   37MOL   C29820530   2.467   3.970   2.726 -0.0040 -0.0948  0.5902
   37MOL   C29920531   2.599   4.016   2.742  0.4890  0.1662 -0.5411
   37MOL   H30020532   2.752   3.752   2.566 -1.4743 -1.6320 -0.4230
   37MOL   H30120533   2.589   3.600   2.486 -0.3822  0.7742 -0.8402
   37MOL   H30220534   2.336   3.518   2.484 -0.0295  0.7889 -0.8262
   37MOL   H30320535   1.918   3.584   2.800 -0.1337  0.0222 -0.5947
   37MOL   H30420536   1.881   3.546   2.633  0.1399 -1.0909 -0.3431
   37MOL   H30520537   1.844   3.819   2.627  0.5416 -0.6780 -0.8043
   37MOL   H30620538   1.714   3.724   2.694 -0.3071 -0.3327  4.3598
   37MOL   H30720539   2.212   3.862   2.705  0.1292  0.3975  0.3032
   37MOL   H30820540   2.388   4.019   2.781 -0.6919 -1.0576  0.4856
   37MOL   H30920541   2.621   4.109   2.793  0.6130  0.2181 -0.6893
   37MOL   O31020542   1.634   3.892   2.845 -0.2812 -0.1013  0.3989
   37MOL   C31120543   1.748   3.878   2.885 -0.1540 -0.1142 -0.4047
   37MOL   O31220544   1.841   3.812   2.833 -0.1348 -0.1289 -0.7683
   37MOL   C31320545   1.797   3.948   3.004  0.7746 -0.1825 -0.4222
   37MOL   C31420546   1.924   3.916   3.055 -0.4375  0.2687 -0.0246
   37MOL   C31520547   1.978   3.964   3.180  0.2813  0.4891  0.3181
   37MOL   C31620548   2.105   3.936   3.234  0.3065 -0.4646 -0.6769
   37MOL   C31720549   2.146   3.983   3.362 -0.3066 -0.2743  0.2211
   37MOL   C31820550   2.066   4.085   3.424 -0.0617  0.0335  0.1277
   37MOL   C31920551   2.097   4.139   3.556  0.8090  0.4645  0.0258
   37MOL   O32020552   2.224   4.137   3.581 -0.3420  0.4252  0.1765
   37MOL   C32120553   2.248   4.123   3.720 -0.4502 -0.1687 -0.0671
   37MOL   C32220554   2.388   4.064   3.735 -0.6982  0.0316 -0.1583
   37MOL   O32320555   2.006   4.191   3.626 -0.1159  0.1903  0.5395
   37MOL   C32420556   1.942   4.122   3.365 -0.1384  0.1529 -0.3545
   37MOL   C32520557   1.898   4.056   3.246 -0.3045 -0.5463  0.2805
   37MOL   C32620558   1.768   4.094   3.191 -0.5289  0.5579 -0.4921
   37MOL   C32720559   1.724   4.042   3.074  0.1425  0.3306  1.0373
   37MOL   H32820560   1.984   3.848   2.996 -2.8255 -0.8286 -1.2462
   37MOL   H32920561   2.161   3.861   3.180 -1.4371 -1.7554 -0.7070
   37MOL   H33020562   2.237   3.946   3.408 -0.2815 -1.1520 -0.5308
   37MOL   H33120563   2.176   4.063   3.775  1.8989 -1.1976  2.0170
   37MOL   H33220564   2.237   4.224   3.760 -1.8784 -0.0339 -0.7759
   37MOL   H33320565   2.467   4.131   3.700  0.4980 -2.4425 -2.4224
   37MOL   H33420566   2.410   4.041   3.839  0.9856  2.0407 -0.0451
   37MOL   H33520567   1.883   4.193   3.420  1.1639  0.0896  1.1653
   37MOL   H33620568   1.694   4.149   3.247  0.0929  1.5741 -0.6532
   37MOL   H33720569   1.621   4.061   3.046  0.6019  1.2079 -0.0771
   37MOL   O33820570   2.273   3.813   3.747  0.1765  0.0954 -0.0974
   37MOL   C33920571   2.348   3.837   3.654  0.3863  0.6666  0.5940
   37MOL   O34020572   2.406   3.951   3.645  0.1998  0.1892 -0.1078
   37MOL   C34120573   2.390   3.741   3.553 -0.2993 -0.6813 -0.7177
   37MOL   C34220574   2.305   3.639   3.509 -0.2143  0.0982  0.0412
   37MOL   C34320575   2.346   3.554   3.400 -0.1377  0.3894  0.2652
   37MOL   C34420576   2.262   3.452   3.359 -0.0665 -0.5534  0.1046
   37MOL   C34520577   2.310   3.352   3.265 -0.5737  0.3971 -0.8308
   37MOL   C34620578   2.440   3.361   3.212  0.2569  0.0384 -0.3292
   37MOL   C34720579   2.474   3.254   3.114  0.4929 -0.5152  0.5201
   37MOL   O34820580   2.601   3.265   3.074  0.0178  0.4290 -0.2037
   37MOL   C34920581   2.654   3.178   2.975  1.2485  0.5491 -0.3658
   37MOL   C35020582   2.744   3.067   3.040 -0.4402 -0.5882 -0.0091
   37MOL   O35120583   2.394   3.168   3.076 -0.6575 -0.1088  0.1315
   37MOL   C35220584   2.523   3.465   3.251  1.1481 -0.2396 -0.0468
   37MOL   C35320585   2.482   3.554   3.352  0.9590 -0.3625  0.3275
   37MOL   C35420586   2.568   3.656   3.400 -0.8739  0.3178  0.6099
   37MOL   C35520587   2.521   3.747   3.497  0.4919 -0.2219 -0.6563
   37MOL   H35620588   2.209   3.629   3.557  0.5316 -2.6338  1.0217
   37MOL   H35720589   2.160   3.453   3.394 -0.5579 -1.7591 -1.2283
   37MOL   H35820590   2.238   3.285   3.221 -1.0999  1.6693 -1.9199
   37MOL   H35920591   2.714   3.231   2.901  0.8643 -0.5758 -1.4995
   37MOL   H36020592   2.579   3.129   2.914  0.6037  0.3262  0.5888
   37MOL   H36120593   2.685   3.032   3.124 -2.1179  2.5428  0.2150
   37MOL   H36220594   2.757   2.997   2.957  3.5461  2.1270 -1.8325
   37MOL   H36320595   2.614   3.484   3.195  1.1907 -0.7192 -0.1449
   37MOL   H36420596   2.670   3.657   3.366 -2.0895 -0.2989 -3.4043
   37MOL   H36520597   2.594   3.812   3.544  0.1187  0.0504 -0.4493
   37MOL   O36620598   2.969   2.939   3.069 -0.0998 -0.0129  0.5285
   37MOL   C36720599   2.973   3.054   3.081 -0.2218  0.3771 -1.0683
   37MOL   O36820600   2.862   3.133   3.079  0.5689  0.3188 -0.9084
   37MOL   C36920601   3.105   3.130   3.086  0.2048  0.9557 -0.0083
   37MOL   C37020602   3.215   3.094   3.004 -0.2945 -0.7381  0.8199
   37MOL   C37120603   3.335   3.152   3.025  0.7556  0.2681 -0.4328
   37MOL   C37220604   3.441   3.114   2.945 -0.4089  0.1695  0.4920
   37MOL   C37320605   3.569   3.173   2.964  0.8753  0.2832  0.1098
   37MOL   C37420606   3.591   3.268   3.072 -0.1486  0.0800  0.2687
   37MOL   C37520607   3.734   3.309   3.099  0.6894  0.4959 -0.1769
   37MOL   O37620608   3.826   3.266   3.013 -0.4788  0.5188 -0.0879
   37MOL   C37720609   3.966   3.301   3.020  0.4678  0.0638  0.4785
   37MOL   C37820610   4.023   3.223   3.131  0.1611  0.7798  0.3622
   37MOL   O37920611   3.759   3.365   3.202  0.3399 -0.4569  0.0057
   37MOL   C38020612   3.483   3.301   3.154  0.2213 -0.3190 -0.1666
   37MOL   C38120613   3.356   3.248   3.125  0.2343 -0.3634  0.7512
   37MOL   C38220614   3.245   3.292   3.201  1.1456 -0.6233 -0.3859
   37MOL   C38320615   3.118   3.230   3.185  0.2600 -0.8046  0.4836
   37MOL   H38420616   3.203   3.013   2.933  1.0372 -1.8641  1.8672
   37MOL   H38520617   3.439   3.040   2.866  1.7467  0.8634 -0.2462
   37MOL   H38620618   3.650   3.146   2.898 -0.7928 -0.8742 -1.5069
   37MOL   H38720619   3.987   3.406   3.038 -0.9385  0.8888 -2.3795
   37MOL   H38820620   4.004   3.270   2.923  2.2265  1.7690  0.5843
   37MOL   H38920621   3.956   3.138   3.136 -0.7991  1.4624 -0.6037
   37MOL   H39020622   4.122   3.190   3.101 -0.3731  0.3374 -0.9359
   37MOL   H39120623   3.504   3.368   3.237  1.2461 -0.0259 -0.6485
   37MOL   H39220624   3.267   3.372   3.270 -0.4111  0.1995 -0.8347
   37MOL   H39320625   3.042   3.273   3.250  1.3368  0.7456  0.7469
   37MOL   O39420626   4.233   3.384   3.185  0.0466 -0.1917 -0.0280
   37MOL   C39520627   4.136   3.375   3.266  0.0957  0.3283 -0.7846
   37MOL   O39620628   4.035   3.293   3.250  0.5803 -0.3027  0.2156
   37MOL   C39720629   4.129   3.451   3.391 -0.2093 -0.7436  1.1918
   37MOL   C39820630   4.238   3.539   3.429 -0.5358 -0.8916  0.7084
   37MOL   C39920631   4.233   3.605   3.554  0.4172  0.7816  0.2529
   37MOL   C40020632   4.339   3.693   3.588  0.3918 -0.0376 -0.1672
   37MOL   C40120633   4.334   3.765   3.708  0.0661 -0.0680 -0.7032
   37MOL   C40220634   4.237   3.736   3.801 -0.5128  0.0593  0.2206
   37MOL   C40320635   4.218   3.831   3.918  0.1137 -0.4339  0.2265
   37MOL   O40420636   4.091   3.854   3.939  0.2017  0.5933 -0.3816
   37MOL   C40520637   4.042   3.942   4.042  0.3237  0.7662  0.5421
   37MOL   C40620638   3.890   3.909   4.072 -0.8964  0.7838 -0.4066
   37MOL   O40720639   4.305   3.891   3.983  0.5084 -0.2662 -0.0410
   37MOL   C40820640   4.138   3.635   3.777  0.6817  0.5740  0.5216
   37MOL   C40920641   4.128   3.575   3.646  0.0027 -0.0171  0.5391
   37MOL   C41020642   4.015   3.494   3.610  0.5135 -0.5383 -0.0191
   37MOL   C41120643   4.026   3.435   3.483  0.0159 -0.3399  0.3372
   37MOL   H41220644   4.325   3.541   3.365 -1.7753 -0.7411 -1.0312
   37MOL   H41320645   4.420   3.704   3.519 -0.2407  2.4394 -0.5534
   37MOL   H41420646   4.402   3.848   3.723 -0.5153  0.0320  1.5186
   37MOL   H41520647   4.048   4.046   4.011  0.1715  0.7066  0.3087
   37MOL   H41620648   4.100   3.918   4.131 -0.5958 -0.8634  0.7297
   37MOL   H41720649   3.876   3.801   4.080 -1.4503  0.9307  0.6630
   37MOL   H41820650   3.872   3.964   4.165 -2.3845 -0.8740  0.3120
   37MOL   H41920651   4.056   3.614   3.843 -0.4801 -0.0315 -1.0765
   37MOL   H42020652   3.926   3.481   3.671  0.6837 -4.3265 -0.4895
   37MOL   H42120653   3.956   3.355   3.463 -0.2673 -0.1010  0.3610
   37MOL   O42220654   3.834   3.792   3.823 -0.1075  0.0273  0.7392
   37MOL   C42320655   3.768   3.889   3.865  0.4605  0.1095  0.3326
   37MOL   O42420656   3.791   3.954   3.980 -0.3435 -0.2132 -0.5407
   37MOL   C42520657   3.669   3.955   3.783  0.0906  0.1796  0.0895
   37MOL   C42620658   3.616   4.079   3.820 -0.0842 -0.2080  0.3137
   37MOL   C42720659   3.519   4.144   3.751 -0.7977  0.3050  0.0511
   37MOL   C42820660   3.481   4.279   3.788  0.5010 -0.2841  0.4567
   37MOL   C42920661   3.386   4.344   3.706  0.5793 -0.7807  0.1846
   37MOL   C43020662   3.315   4.273   3.603 -0.6403  0.9328 -0.1361
   37MOL   C43120663   3.203   4.329   3.518  0.5467 -0.3542 -0.0431
   37MOL   O43220664   3.194   4.456   3.538 -0.0820 -0.2926 -0.0092
   37MOL   C43320665   3.107   4.540   3.464  0.1924 -0.3707 -0.1408
   37MOL   C43420666   2.960   4.534   3.513  0.0086 -0.0522 -0.1978
   37MOL   O43520667   3.122   4.265   3.454 -0.4451  1.2163  0.0498
   37MOL   C43620668   3.354   4.139   3.582 -0.4698 -0.3955  0.3114
   37MOL   C43720669   3.463   4.075   3.643 -0.1440 -0.0317 -0.3065
   37MOL   C43820670   3.505   3.949   3.600  0.3025 -0.3255 -0.1204
   37MOL   C43920671   3.607   3.887   3.672 -0.3401 -0.3328  0.2538
   37MOL   H44020672   3.664   4.132   3.901 -2.1113  1.1518  0.6631
   37MOL   H44120673   3.530   4.332   3.869 -0.0579  2.4087 -0.9212
   37MOL   H44220674   3.365   4.447   3.730  1.6413 -0.8594  1.5094
   37MOL   H44320675   3.103   4.513   3.358  0.3583  1.4050 -0.6224
   37MOL   H44420676   3.153   4.639   3.463 -2.6949  1.0120 -1.5726
   37MOL   H44520677   2.905   4.454   3.463 -2.2761  0.3100  1.6798
   37MOL   H44620678   2.960   4.494   3.615  1.4728  1.7075  0.5245
   37MOL   H44720679   3.296   4.081   3.512 -0.7863 -0.2436  0.4487
   37MOL   H44820680   3.451   3.907   3.517  1.6223 -0.1640 -1.0877
   37MOL   H44920681   3.628   3.785   3.642  2.3207 -0.1250  1.2811
   37MOL   O45020682   2.984   4.714   3.706 -0.0372  0.0039  0.0101
   37MOL   C45120683   2.905   4.737   3.615 -0.2175  0.2451  0.5141
   37MOL   O45220684   2.890   4.649   3.511  1.0516 -0.2411  0.1131
   37MOL   C45320685   2.802   4.845   3.611 -0.2505  0.1645 -0.0694
   37MOL   C45420686   2.723   4.869   3.496  0.3810 -0.3053 -0.5992
   37MOL   C45520687   2.631   4.975   3.494 -0.3236  0.8610  0.7527
   37MOL   C45620688   2.557   4.996   3.372  0.3968 -0.0243  0.4032
   37MOL   C45720689   2.462   5.096   3.362  0.0400 -0.0379  0.6335
   37MOL   C45820690   2.426   5.172   3.480  0.0251  0.6446 -0.2422
   37MOL   C45920691   2.314   5.262   3.493  0.3585  0.1038  0.0064
   37MOL   O46020692   2.254   5.268   3.615  0.1863  0.6777  0.4497
   37MOL   C46120693   2.150   5.354   3.646 -0.0066 -0.6189 -0.1023
   37MOL   C46220694   2.196   5.501   3.687 -0.0167 -0.1313 -0.1092
   37MOL   O46320695   2.278   5.331   3.396 -0.3638 -0.5743  0.2671
   37MOL   C46420696   2.493   5.140   3.602  0.0971 -0.6590  0.8092
   37MOL   C46520697   2.600   5.049   3.607  0.0399 -0.2306 -0.2789
   37MOL   C46620698   2.681   5.031   3.723  0.4521  0.3379  0.2196
   37MOL   C46720699   2.785   4.936   3.718 -0.4553 -0.1420  0.3377
   37MOL   H46820700   2.742   4.815   3.405  2.1882 -0.2088 -0.2896
   37MOL   H46920701   2.582   4.944   3.281  0.7136  3.7778 -1.7751
   37MOL   H47020702   2.425   5.107   3.261 -1.1871  1.2340  1.2046
   37MOL   H47120703   2.103   5.308   3.733 -0.0675 -0.2025  0.0890
   37MOL   H47220704   2.080   5.359   3.563 -0.9902 -0.7102  0.7211
   37MOL   H47320705   2.250   5.545   3.603  0.3889  0.5944  0.5197
   37MOL   H47420706   2.101   5.554   3.692 -0.7513 -1.0527 -3.1519
   37MOL   H47520707   2.467   5.194   3.692  1.9218  0.2345  0.8245
   37MOL   H47620708   2.668   5.105   3.801 -1.0524  0.3298 -0.0014
   37MOL   H47720709   2.853   4.927   3.802  1.0071  1.4651 -0.6457
   37MOL   O47820710   2.468   5.463   3.693  0.0752 -0.2842  0.8484
   37MOL   C47920711   2.407   5.478   3.797  0.0090 -0.3625  0.3736
   37MOL   O48020712   2.269   5.505   3.807 -0.0600 -0.8020 -0.6030
   37MOL   C48120713   2.473   5.481   3.933  0.5221 -0.3418  0.8497
   37MOL   C48220714   2.402   5.487   4.053 -0.3898  0.0650  0.2197
   37MOL   C48320715   2.470   5.498   4.175 -0.2857  0.7529 -0.1118
   37MOL   C48420716   2.398   5.518   4.295  0.6547 -0.0406  0.7210
   37MOL   C48520717   2.466   5.522   4.417 -0.1614 -0.1311 -0.1259
   37MOL   C48620718   2.607   5.517   4.422  0.2928  0.8521  0.6849
   37MOL   C48720719   2.675   5.535   4.555  0.5463 -0.3018  0.4042
   37MOL   O48820720   2.598   5.552   4.672 -0.5341 -0.0981 -0.6685
   37MOL   C48920721   2.662   5.585   4.795 -1.0277 -0.0851  0.0639
   37MOL   C49020722   2.682   5.738   4.827 -0.5233  0.7122 -0.7384
   37MOL   O49120723   2.801   5.543   4.561  0.0878 -0.1343 -0.1378
   37MOL   C49220724   2.676   5.508   4.298 -0.0326 -0.3029 -0.0688
   37MOL   C49320725   2.605   5.496   4.181 -0.4021 -0.3994 -0.4889
   37MOL   C49420726   2.679   5.501   4.063  0.3866  0.2500 -0.6761
   37MOL   C49520727   2.614   5.500   3.940 -0.3343  0.6166 -0.1026
   37MOL   H49620728   2.294   5.490   4.050 -0.4420  2.7227  2.2335
   37MOL   H49720729   2.290   5.515   4.295  0.6668 -1.1814  1.9714
   37MOL   H49820730   2.415   5.515   4.512  1.8388 -2.2152  0.8195
   37MOL   H49920731   2.764   5.547   4.799  0.3088  3.1967 -0.5069
   37MOL   H50020732   2.609   5.534   4.876  0.6104  2.6174  2.9870
   37MOL   H50120733   2.778   5.759   4.875 -0.9180 -0.0973  0.4348
   37MOL   H50220734   2.668   5.786   4.731 -0.7730  1.0510 -0.5348
   37MOL   H50320735   2.784   5.516   4.297 -0.0690  0.1827 -0.7680
   37MOL   H50420736   2.787   5.502   4.068  0.3499 -0.4040  0.2213
   37MOL   H50520737   2.684   5.516   3.859  3.4170 -0.7271  2.7171
   37MOL   O50620738   2.685   5.701   5.094  0.5249 -0.9785 -0.0677
   37MOL   C50720739   2.587   5.761   5.043  0.8795  0.1562 -0.5712
   37MOL   O50820740   2.579   5.782   4.915 -0.3467 -0.6574 -0.1517
   37MOL   C50920741   2.480   5.832   5.124 -0.1914 -0.3179  0.8193
   37MOL   C51020742   2.474   5.811   5.259  0.0823  0.5274  0.4777
   37MOL   C51120743   2.366   5.862   5.335 -0.1502 -0.1594  0.1372
   37MOL   C51220744   2.355   5.839   5.470 -0.9696  0.1818 -0.2199
   37MOL   C51320745   2.241   5.874   5.544 -0.7370  0.9234  0.4914
   37MOL   C51420746   2.131   5.921   5.478 -0.2795  0.8639  0.0474
   37MOL   C51520747   2.002   5.968   5.539 -0.1812 -0.0692 -0.2430
   37MOL   O51620748   2.013   5.993   5.670  0.2555  0.1208  0.1125
   37MOL   C51720749   1.898   6.043   5.745  0.2210 -0.6235  0.6343
   37MOL   C51820750   1.860   6.193   5.730 -0.4976 -0.4912 -0.0360
   37MOL   O51920751   1.894   5.979   5.473 -1.2467  0.0375 -0.4573
   37MOL   C52020752   2.141   5.944   5.336  0.6769 -0.2464 -0.8741
   37MOL   C52120753   2.258   5.917   5.267  0.4849  0.7615  0.3775
   37MOL   C52220754   2.269   5.947   5.131  0.4215  0.3451  0.7788
   37MOL   C52320755   2.378   5.900   5.058 -1.3830 -0.9802  0.3660
   37MOL   H52420756   2.558   5.768   5.313  0.8583  0.6577 -0.6076
   37MOL   H52520757   2.439   5.811   5.531 -0.9004  1.1305  0.1311
   37MOL   H52620758   2.231   5.854   5.650 -2.3965  1.7683  0.5234
   37MOL   H52720759   1.904   6.012   5.849 -2.2762  1.8179  1.5612
   37MOL   H52820760   1.809   5.990   5.713  0.2594 -0.1031 -0.3716
   37MOL   H52920761   1.952   6.239   5.766 -0.6309 -0.9779  0.9648
   37MOL   H53020762   1.857   6.217   5.624  1.5840 -2.3418 -0.5694
   37MOL   H53120763   2.048   5.969   5.287 -1.3465 -2.0112  1.8757
   37MOL   H53220764   2.195   6.007   5.081  0.7964  0.7900  0.7535
   37MOL   H53320765   2.376   5.919   4.952  1.6649  0.7288  0.5609
   37MOL   O53420766   1.601   6.171   5.648  0.6975 -0.3064 -0.0102
   37MOL   C53520767   1.616   6.225   5.757  0.3768 -0.7990 -0.9456
   37MOL   O53620768   1.748   6.235   5.804 -0.1553 -0.0124 -0.6958
   37MOL   C53720769   1.516   6.264   5.864  0.0299 -0.3103 -0.0456
   37MOL   C53820770   1.380   6.235   5.848  0.0837 -0.3141 -0.2546
   37MOL   C53920771   1.293   6.258   5.962  0.6295 -0.3172 -0.2834
   37MOL   C54020772   1.155   6.222   5.959  0.3821 -0.0245  0.3282
   37MOL   C54120773   1.067   6.239   6.064 -0.3568  0.3169 -0.0227
   37MOL   C54220774   1.117   6.300   6.183 -0.4576  0.2568  0.0323
   37MOL   C54320775   1.022   6.326   6.302 -0.2832 -0.2979  0.9880
   37MOL   O54420776   0.896   6.265   6.285 -0.5889  0.8559  0.0285
   37MOL   C54520777   0.800   6.275   6.386  0.7304 -0.2439 -0.3595
   37MOL   C54620778   0.677   6.354   6.342  0.3516  0.3001 -0.7855
   37MOL   O54720779   1.049   6.410   6.389  0.4715 -0.1608 -0.1286
   37MOL   C54820780   1.248   6.346   6.189  0.2861  0.1639 -0.5802
   37MOL   C54920781   1.342   6.321   6.080  0.0688 -0.3632  0.2352
   37MOL   C55020782   1.475   6.363   6.089  0.4367  0.7138 -0.2152
   37MOL   C55120783   1.559   6.337   5.982  0.9019 -0.1362 -1.0076
   37MOL   H55220784   1.356   6.187   5.755  0.1175  0.0290 -0.4421
   37MOL   H55320785   1.125   6.175   5.866  1.9761  0.8854 -0.6909
   37MOL   H55420786   0.968   6.197   6.050  0.3180 -1.7202  1.1009
   37MOL   H55520787   0.833   6.328   6.475  0.5675 -1.3367  0.3671
   37MOL   H55620788   0.767   6.178   6.422  2.9140 -1.1544 -0.7307
   37MOL   H55720789   0.652   6.337   6.238  1.4073 -2.0253 -0.6863
   37MOL   H55820790   0.688   6.463   6.344 -0.0068  0.3590 -1.7738
   37MOL   H55920791   1.287   6.393   6.277 -2.5189 -0.5207  1.0812
   37MOL   H56020792   1.499   6.423   6.176 -0.0449 -1.9643  1.8379
   37MOL   H56120793   1.662   6.368   5.991  0.3497  1.1477  1.0801
   37MOL   H56220794   0.593   6.343   6.411  0.4439  1.1598 -0.5201
   38MOL     O120795   7.436   2.641   4.961 -0.2627 -0.1143 -0.1856
   38MOL     C220796   7.498   2.623   4.857 -0.1051  0.2122 -0.2154
   38MOL     O320797   7.583   2.516   4.835  0.1598 -0.6645  0.0446
   38MOL     C420798   7.490   2.721   4.746  0.1677 -0.4682 -0.1203
   38MOL     C520799   7.539   2.684   4.612  0.3187  0.3692 -0.1294
   38MOL     C620800   7.538   2.777   4.507 -0.9983  0.1377 -0.3536
   38MOL     C720801   7.572   2.734   4.377  0.2164 -0.8644  0.2957
   38MOL     C820802   7.551   2.826   4.274 -0.6179  0.0501  0.1770
   38MOL     C920803   7.516   2.959   4.296 -0.3992  0.5950  0.1575
   38MOL    C1020804   7.493   3.052   4.180 -0.6072  0.3039  0.1602
   38MOL    O1120805   7.519   2.991   4.067 -0.1159  0.1179  0.4190
   38MOL    C1220806   7.546   3.074   3.958  0.4536  0.4357  0.0698
   38MOL    C1320807   7.409   3.108   3.894 -0.5165  0.2323  0.1186
   38MOL    O1420808   7.462   3.168   4.187 -0.5100 -0.5915 -0.2640
   38MOL    C1520809   7.493   3.002   4.426  0.1650  0.8209 -0.4049
   38MOL    C1620810   7.494   2.911   4.533  0.4469 -0.7928  0.6672
   38MOL    C1720811   7.447   2.948   4.659  0.2582  0.1256  0.1333
   38MOL    C1820812   7.437   2.854   4.763  0.4409 -0.0631  0.2201
   38MOL    H1920813   7.570   2.581   4.599 -0.2017  0.3837 -1.4903
   38MOL    H2020814   7.607   2.632   4.370 -0.3420 -1.0407  0.0692
   38MOL    H2120815   7.575   2.802   4.171  0.0092  3.0510 -0.4278
   38MOL    H2220816   7.610   3.158   3.986 -0.7449  1.5609 -0.5423
   38MOL    H2320817   7.609   3.012   3.893  0.7391 -0.6948  1.3878
   38MOL    H2420818   7.329   3.037   3.915 -0.3084 -0.5286 -1.5523
   38MOL    H2520819   7.367   3.196   3.944  2.2974  1.7429 -0.1044
   38MOL    H2620820   7.460   3.103   4.443  1.4611  1.2620 -0.4040
   38MOL    H2720821   7.416   3.048   4.684 -0.8574 -0.2758  0.3852
   38MOL    H2820822   7.404   2.881   4.862  2.6212  0.8825  0.7160
   38MOL    H2920823   7.571   2.467   4.915 -0.9506 -0.3194  0.1093
   38MOL    O3020824   7.399   3.328   3.735 -0.1576  0.4268  0.3025
   38MOL    C3120825   7.443   3.221   3.696  0.1399  0.1183  0.0323
   38MOL    O3220826   7.427   3.106   3.759 -0.4503 -0.0311 -0.8012
   38MOL    C3320827   7.505   3.212   3.564  0.1383 -0.3141  0.1574
   38MOL    C3420828   7.476   3.317   3.473 -0.4178 -0.6046 -1.2480
   38MOL    C3520829   7.529   3.310   3.338 -0.7134 -0.1151  0.1313
   38MOL    C3620830   7.502   3.413   3.246 -0.0585  0.2649 -0.4682
   38MOL    C3720831   7.541   3.400   3.117 -0.3229  0.7503 -0.5131
   38MOL    C3820832   7.616   3.291   3.073  0.6881  0.9475 -0.2947
   38MOL    C3920833   7.645   3.270   2.926  0.7136  0.1913 -0.1181
   38MOL    O4020834   7.597   3.367   2.855  0.0164  0.7488 -0.1345
   38MOL    C4120835   7.609   3.361   2.717  0.4451 -0.1269  0.2744
   38MOL    C4220836   7.736   3.432   2.672  0.1418  0.3424 -0.6617
   38MOL    O4320837   7.708   3.174   2.886  0.0464  0.2628 -0.8585
   38MOL    C4420838   7.648   3.190   3.169  0.0178 -0.5171 -0.3618
   38MOL    C4520839   7.598   3.193   3.298  0.7106  0.0848  0.1611
   38MOL    C4620840   7.626   3.091   3.387 -0.2191  0.3563  1.3113
   38MOL    C4720841   7.581   3.101   3.523  0.2771 -0.0202 -0.1701
   38MOL    H4820842   7.404   3.394   3.496 -0.5540 -0.2971 -2.6388
   38MOL    H4920843   7.458   3.506   3.277  0.9699  1.2642 -1.9160
   38MOL    H5020844   7.523   3.480   3.046  2.1192  2.1842  0.4045
   38MOL    H5120845   7.533   3.435   2.693  1.5870  1.3886  1.2209
   38MOL    H5220846   7.581   3.267   2.670 -0.5035 -0.5855  1.7241
   38MOL    H5320847   7.718   3.476   2.573 -0.6505 -0.7126 -0.9964
   38MOL    H5420848   7.782   3.495   2.748 -1.6262  1.3505 -0.4036
   38MOL    H5520849   7.699   3.099   3.141  0.3997 -0.2521 -0.5228
   38MOL    H5620850   7.687   3.010   3.349  1.1661  1.5950  0.8782
   38MOL    H5720851   7.610   3.023   3.591  0.4378  1.0939  1.0616
   38MOL    O5820852   7.746   3.242   2.482  0.1763 -0.1061 -0.5342
   38MOL    C5920853   7.847   3.261   2.550  0.3507  0.7671  0.2303
   38MOL    O6020854   7.845   3.337   2.658  0.6048 -0.4354  0.3583
   38MOL    C6120855   7.969   3.174   2.541 -0.0558  0.3481 -0.1282
   38MOL    C6220856   8.062   3.149   2.652 -0.1569 -0.4739  0.4176
   38MOL    C6320857   8.184   3.083   2.627 -0.6155 -0.6975 -1.1056
   38MOL    C6420858   0.041   3.080   2.725  0.1304 -0.3725  0.5631
   38MOL    C6520859   0.155   3.001   2.698 -0.7886 -0.2316 -0.4073
   38MOL    C6620860   0.161   2.917   2.581  0.7731  0.3829 -0.6152
   38MOL    C6720861   0.285   2.833   2.552  0.0732 -0.1104 -0.2093
   38MOL    O6820862   0.277   2.778   2.430 -0.3579  0.4034  0.3335
   38MOL    C6920863   0.392   2.695   2.386 -0.2633  0.2828  0.2409
   38MOL    C7020864   0.498   2.784   2.323  0.2495  0.4085 -0.4013
   38MOL    O7120865   0.387   2.827   2.617 -0.9670 -0.6108 -0.0010
   38MOL    C7220866   0.059   2.924   2.485  0.5522  0.1091  0.0916
   38MOL    C7320867   8.197   3.010   2.507 -0.5790  0.3780 -0.3381
   38MOL    C7420868   8.102   3.023   2.403  0.3801  0.4278  0.4545
   38MOL    C7520869   7.990   3.106   2.421  0.3256  0.4005 -0.1802
   38MOL    H7620870   8.048   3.200   2.746 -0.8178 -1.0685  0.6420
   38MOL    H7720871   0.034   3.126   2.823  1.1841 -1.4344  1.1531
   38MOL    H7820872   0.235   3.005   2.771 -0.6915  1.5991 -0.5936
   38MOL    H7920873   0.340   2.636   2.311 -0.7948 -0.8782  1.4942
   38MOL    H8020874   0.432   2.629   2.464  0.3436 -0.3160 -0.5643
   38MOL    H8120875   0.536   2.744   2.229 -2.0996  0.3013 -1.3360
   38MOL    H8220876   0.450   2.880   2.301 -0.7109 -0.0718 -0.4170
   38MOL    H8320877   0.045   2.862   2.397 -2.5984 -0.1007  0.6796
   38MOL    H8420878   8.119   2.962   2.316  2.2115  0.0478  1.0557
   38MOL    H8520879   7.914   3.114   2.344  0.7792 -2.0383 -0.9316
   38MOL    O8620880   0.749   2.678   2.315  0.0260  0.4896  0.2865
   38MOL    C8720881   0.720   2.757   2.404  0.2275  0.1018  0.1276
   38MOL    O8820882   0.601   2.813   2.421 -0.2954 -0.2851 -0.2610
   38MOL    C8920883   0.810   2.783   2.517 -0.2840 -0.1271 -0.5618
   38MOL    C9020884   0.930   2.707   2.516 -1.0248 -0.4759 -0.6493
   38MOL    C9120885   1.007   2.698   2.631 -0.4064  0.2570  0.2892
   38MOL    C9220886   1.108   2.597   2.646  0.2541 -0.1428 -0.4522
   38MOL    C9320887   1.180   2.578   2.766  0.0267 -0.0634  0.6935
   38MOL    C9420888   1.165   2.676   2.874  0.0339  0.2343  0.8850
   38MOL    C9520889   1.245   2.662   2.998 -0.1907 -0.2773  0.0583
   38MOL    O9620890   1.211   2.756   3.096 -1.2108  0.4711 -0.1516
   38MOL    C9720891   1.310   2.802   3.184 -0.1997 -0.6949 -1.0245
   38MOL    C9820892   1.386   2.918   3.120  0.5392  0.0960 -0.6768
   38MOL    O9920893   1.332   2.577   3.014 -0.1167 -0.2288  0.3081
   38MOL   C10020894   1.067   2.778   2.853 -0.7437 -0.2132  0.7939
   38MOL   C10120895   0.985   2.786   2.738 -0.6116 -0.6374 -0.6696
   38MOL   C10220896   0.874   2.870   2.742 -0.2773 -0.0223  0.2153
   38MOL   C10320897   0.778   2.865   2.633 -0.1712  0.3892 -0.0463
   38MOL   H10420898   0.935   2.640   2.431 -1.9213 -0.9424 -0.3371
   38MOL   H10520899   1.114   2.519   2.572 -1.1364  1.9731 -2.8984
   38MOL   H10620900   1.243   2.490   2.769  1.0285  0.5777 -0.8237
   38MOL   H10720901   1.391   2.731   3.203  1.4020  1.5836  0.9171
   38MOL   H10820902   1.273   2.839   3.279  1.1759  0.3905 -0.8853
   38MOL   H10920903   1.473   2.927   3.184  0.4037 -2.2414 -0.1271
   38MOL   H11020904   1.417   2.893   3.018  1.5399 -1.0242 -0.1053
   38MOL   H11120905   1.045   2.849   2.931 -1.8046 -0.5385  0.8025
   38MOL   H11220906   0.859   2.927   2.832 -2.1410  1.4912 -0.9980
   38MOL   H11320907   0.685   2.920   2.641 -0.7753 -0.6477  0.2556
   38MOL   O11420908   1.484   3.157   3.101 -0.4085  0.9950  0.1167
   38MOL   C11520909   1.366   3.154   3.118  0.1513  0.1131 -0.7334
   38MOL   O11620910   1.303   3.034   3.135 -0.4381  0.3710 -0.0243
   38MOL   C11720911   1.269   3.265   3.121  0.1599  0.5372 -0.0197
   38MOL   C11820912   1.129   3.249   3.114 -0.1723  0.2375 -0.2209
   38MOL   C11920913   1.048   3.360   3.101 -0.0117  0.2115  0.3145
   38MOL   C12020914   0.914   3.347   3.087 -0.3916  0.8462 -0.0025
   38MOL   C12120915   0.825   3.450   3.065  0.0261 -0.3236  0.3461
   38MOL   C12220916   0.877   3.583   3.060 -0.4197  0.4510 -0.7672
   38MOL   C12320917   0.782   3.695   3.042 -0.7727 -0.3972 -0.3106
   38MOL   O12420918   0.852   3.810   3.024  0.3975  0.2010 -0.1126
   38MOL   C12520919   0.778   3.920   2.972  0.1005 -0.0429  0.8130
   38MOL   C12620920   0.863   4.048   2.968  0.3307  0.2438  0.2622
   38MOL   O12720921   0.659   3.674   3.032 -0.0988 -0.1589  0.0225
   38MOL   C12820922   1.018   3.599   3.084  0.1444  1.3363  0.3343
   38MOL   C12920923   1.101   3.489   3.092  0.2257 -0.6377 -0.4964
   38MOL   C13020924   1.239   3.508   3.114 -0.3313  0.0053 -0.2215
   38MOL   C13120925   1.321   3.399   3.113 -0.2742 -0.6027  0.6393
   38MOL   H13220926   1.094   3.147   3.118  1.7895 -0.5052 -1.2356
   38MOL   H13320927   0.880   3.244   3.084  3.0092 -0.2893 -1.4071
   38MOL   H13420928   0.718   3.432   3.057 -0.3966  1.8771  0.6692
   38MOL   H13520929   0.699   3.943   3.043 -2.4675 -0.9160 -1.6809
   38MOL   H13620930   0.736   3.898   2.874  0.6113 -1.0535  0.8106
   38MOL   H13720931   0.799   4.127   3.008 -0.3289  0.2318 -0.7432
   38MOL   H13820932   0.948   4.033   3.034  1.3830 -1.8526 -1.4774
   38MOL   H13920933   1.059   3.699   3.088  2.5666  0.4725 -1.8392
   38MOL   H14020934   1.295   3.600   3.117  0.1938 -0.3307  0.3534
   38MOL   H14120935   1.428   3.409   3.109 -0.2634 -1.3762 -1.4374
   38MOL   O14220936   0.952   4.297   2.889 -0.1709  0.0443  0.2347
   38MOL   C14320937   0.964   4.198   2.811  0.1666  0.3220  0.6184
   38MOL   O14420938   0.921   4.076   2.835  0.1241 -0.0372 -0.1273
   38MOL   C14520939   1.021   4.221   2.677  0.2501 -0.2508  0.6870
   38MOL   C14620940   1.104   4.333   2.649 -0.2334 -1.0363  0.5246
   38MOL   C14720941   1.148   4.364   2.514 -0.1949 -0.8064  0.1381
   38MOL   C14820942   1.210   4.483   2.480 -0.1209 -0.4926  0.3532
   38MOL   C14920943   1.252   4.501   2.349  0.0470  0.2580 -0.2157
   38MOL   C15020944   1.236   4.407   2.244 -0.5971  0.3275 -0.0181
   38MOL   C15120945   1.271   4.445   2.104 -0.4935  0.0957  0.5827
   38MOL   O15220946   1.367   4.537   2.104 -0.2492 -0.3305 -0.2851
   38MOL   C15320947   1.409   4.590   1.979  0.1852 -0.1513  0.1748
   38MOL   C15420948   1.545   4.652   1.996  0.9033 -0.5240  0.2127
   38MOL   O15520949   1.214   4.394   2.003 -0.5763  0.1164 -0.6049
   38MOL   C15620950   1.153   4.295   2.277  0.2421 -0.1038  0.6014
   38MOL   C15720951   1.107   4.276   2.408 -0.5094  0.2697 -0.1015
   38MOL   C15820952   1.043   4.157   2.438 -0.5433 -0.8237  0.1028
   38MOL   C15920953   1.002   4.128   2.573 -0.0198  0.6029  0.1221
   38MOL   H16020954   1.119   4.410   2.723 -0.3325  0.1452 -0.6654
   38MOL   H16120955   1.230   4.559   2.555 -1.2162  1.5016 -1.3406
   38MOL   H16220956   1.306   4.593   2.331 -3.4549  2.3777 -0.4613
   38MOL   H16320957   1.337   4.660   1.935  0.0170 -1.0146 -0.9293
   38MOL   H16420958   1.408   4.507   1.909  0.1403 -0.3505  0.4090
   38MOL   H16520959   1.595   4.593   2.073  1.8630  1.0247  0.8024
   38MOL   H16620960   1.593   4.658   1.899 -0.0425  3.2803 -0.1128
   38MOL   H16720961   1.120   4.224   2.203  0.1906  0.1279  0.3982
   38MOL   H16820962   1.019   4.079   2.367  2.0014  0.5456 -2.3682
   38MOL   H16920963   0.935   4.045   2.590  0.4429  0.2307  0.1303
   38MOL   O17020964   1.579   4.914   1.889  0.2599  0.2698  0.4112
   38MOL   C17120965   1.554   4.893   2.007 -0.3700  0.0816 -0.5687
   38MOL   O17220966   1.534   4.775   2.062 -0.2107 -0.5292  0.2630
   38MOL   C17320967   1.551   5.006   2.097 -0.0999  0.3615  0.3967
   38MOL   C17420968   1.461   4.999   2.207  0.0515 -0.5114 -0.3084
   38MOL   C17520969   1.446   5.107   2.294 -0.5183 -0.3973  0.7051
   38MOL   C17620970   1.357   5.092   2.401 -0.1516 -0.0090  0.0543
   38MOL   C17720971   1.338   5.200   2.485 -0.1490  0.1701  0.4678
   38MOL   C17820972   1.408   5.326   2.466  0.2644 -0.0195  0.2487
   38MOL   C17920973   1.393   5.432   2.564  0.1779  0.4740 -0.3016
   38MOL   O18020974   1.432   5.551   2.515  0.5306  0.4286  0.2640
   38MOL   C18120975   1.387   5.671   2.582 -0.1847 -0.3223  0.0175
   38MOL   C18220976   1.503   5.746   2.651  0.7606 -0.3508  0.1521
   38MOL   O18320977   1.343   5.411   2.673  0.3683  0.5755  0.1998
   38MOL   C18420978   1.500   5.333   2.360 -0.4169  0.9490 -0.2008
   38MOL   C18520979   1.518   5.223   2.269  0.3809 -0.0105 -0.0866
   38MOL   C18620980   1.601   5.237   2.158 -0.3888 -0.3077  0.3382
   38MOL   C18720981   1.614   5.128   2.071 -0.2347  0.2986  0.0890
   38MOL   H18820982   1.399   4.912   2.225  0.1192 -0.5771 -0.3931
   38MOL   H18920983   1.302   5.001   2.423  0.0734  0.1145  1.1404
   38MOL   H19020984   1.256   5.202   2.555 -0.0336 -1.0419  0.6359
   38MOL   H19120985   1.294   5.650   2.634  0.0096 -1.8300 -0.2147
   38MOL   H19220986   1.345   5.734   2.503 -0.2782 -0.8677 -0.3705
   38MOL   H19320987   1.595   5.726   2.597 -0.0559 -2.8909 -0.3521
   38MOL   H19420988   1.470   5.850   2.647 -0.7163 -0.6652  2.6564
   38MOL   H19520989   1.554   5.422   2.333  0.3521  0.2393 -1.0171
   38MOL   H19620990   1.652   5.330   2.142  0.2010 -0.7512 -0.3654
   38MOL   H19720991   1.675   5.135   1.982 -0.4932  1.6440  0.0164
   38MOL   O19820992   1.345   5.850   2.848  0.2986  0.3612 -0.0138
   38MOL   C19920993   1.438   5.783   2.882 -1.1331 -0.0399 -0.5600
   38MOL   O20020994   1.510   5.707   2.789  0.1617  0.2209  0.1695
   38MOL   C20120995   1.470   5.757   3.025 -0.3116 -0.7232 -0.1492
   38MOL   C20220996   1.604   5.724   3.065  0.3803  0.1306 -0.0409
   38MOL   C20320997   1.640   5.716   3.203  0.1928 -0.0870  0.0298
   38MOL   C20420998   1.772   5.673   3.231  0.5421  0.3734  0.1512
   38MOL   C20520999   1.813   5.661   3.365  0.0236 -0.3739  0.3683
   38MOL   C20621000   1.720   5.687   3.469 -0.1919  0.0266  0.4590
   38MOL   C20721001   1.767   5.647   3.606  0.0097  0.4049 -0.2222
   38MOL   O20821002   1.688   5.706   3.705  0.3451 -0.1951  0.0831
   38MOL   C20921003   1.721   5.692   3.846  0.3372 -0.0300  0.9454
   38MOL   C21021004   1.828   5.793   3.891  0.4533  0.6825  0.1168
   38MOL   O21121005   1.868   5.584   3.630 -0.6584  0.4326 -0.1133
   38MOL   C21221006   1.590   5.722   3.439 -0.1750  0.5822 -0.1540
   38MOL   C21321007   1.546   5.735   3.304  0.2134  0.1218 -0.5620
   38MOL   C21421008   1.417   5.780   3.265 -0.5344  0.1169  0.1390
   38MOL   C21521009   1.385   5.786   3.129 -0.4240  0.1873  0.2168
   38MOL   H21621010   1.670   5.698   2.985 -0.3498  0.1114 -0.6428
   38MOL   H21721011   1.846   5.662   3.153 -3.4035 -0.5295 -3.5951
   38MOL   H21821012   1.913   5.635   3.396 -0.0296 -0.5437  0.3990
   38MOL   H21921013   1.764   5.592   3.845  0.8611  0.1958  0.8108
   38MOL   H22021014   1.624   5.686   3.897 -2.0148  0.7749 -3.1636
   38MOL   H22121015   1.888   5.731   3.956  0.4718  1.3311  0.7320
   38MOL   H22221016   1.901   5.818   3.815 -0.2724 -1.3158 -1.2522
   38MOL   H22321017   1.521   5.743   3.519 -0.4077 -0.9051  0.0368
   38MOL   H22421018   1.339   5.799   3.338 -1.3175 -0.9391 -0.4025
   38MOL   H22521019   1.287   5.815   3.093 -1.0279  1.1347  2.5539
   38MOL   O22621020   1.841   6.036   3.779  0.0798 -0.0667  0.5752
   38MOL   C22721021   1.779   6.023   3.888  0.1653  0.0363 -0.0303
   38MOL   O22821022   1.773   5.907   3.954 -0.2209 -0.0183 -0.6069
   38MOL   C22921023   1.705   6.139   3.956  0.3055  0.2233 -0.1365
   38MOL   C23021024   1.657   6.118   4.091  0.5201  0.7019  1.0199
   38MOL   C23121025   1.584   6.221   4.154  0.4487  0.0987 -0.3092
   38MOL   C23221026   1.531   6.202   4.286  0.1581 -0.8580 -0.1946
   38MOL   C23321027   1.466   6.303   4.359 -0.3378  0.4716  0.9531
   38MOL   C23421028   1.455   6.429   4.301  0.0191  0.6249 -0.0318
   38MOL   C23521029   1.380   6.538   4.381 -0.6634  0.9061 -0.5390
   38MOL   O23621030   1.414   6.657   4.337  0.7335  0.1106 -0.1235
   38MOL   C23721031   1.340   6.771   4.372 -0.3981 -0.3193 -0.1437
   38MOL   C23821032   1.239   6.791   4.254 -0.0068 -0.2483  0.0357
   38MOL   O23921033   1.303   6.523   4.479  0.3864 -0.7446  0.2867
   38MOL   C24021034   1.501   6.451   4.168  1.0685 -0.4410 -0.3188
   38MOL   C24121035   1.571   6.351   4.100  0.7099  0.4666 -0.6848
   38MOL   C24221036   1.617   6.367   3.971  0.0677  0.6965 -0.4702
   38MOL   C24321037   1.687   6.264   3.895  0.6060  0.7002 -0.1945
   38MOL   H24421038   1.673   6.018   4.129  3.0618 -0.3365 -2.5514
   38MOL   H24521039   1.532   6.104   4.331  0.5825 -0.5472  0.4832
   38MOL   H24621040   1.416   6.276   4.450 -2.3028  2.1446  0.4201
   38MOL   H24721041   1.404   6.860   4.376 -0.1606 -0.5024  0.1321
   38MOL   H24821042   1.295   6.762   4.470  1.3072  1.8013  0.8888
   38MOL   H24921043   1.215   6.699   4.201  0.9236 -0.5266  0.0968
   38MOL   H25021044   1.143   6.839   4.273  1.4478  2.5849  0.4685
   38MOL   H25121045   1.492   6.552   4.130  0.3232 -0.1631  0.5717
   38MOL   H25221046   1.599   6.469   3.939 -0.9879  0.2578 -1.3268
   38MOL   H25321047   1.729   6.284   3.798  2.8404 -0.6442  0.4557
   38MOL   O25421048   1.306   7.056   4.265 -0.0462  0.3022 -0.0750
   38MOL   C25521049   1.313   6.998   4.157  0.0626  0.0471 -0.3029
   38MOL   O25621050   1.294   6.867   4.146  0.1941 -0.0908  0.5321
   38MOL   C25721051   1.343   7.059   4.024  0.2634  0.3644  0.4374
   38MOL   C25821052   1.347   7.201   4.013 -0.7041  0.1364 -0.8530
   38MOL   C25921053   1.365   7.254   3.886 -0.1012  0.6942  0.1382
   38MOL   C26021054   1.352   7.391   3.867 -0.1991 -0.6839 -0.7244
   38MOL   C26121055   1.349   7.454   3.741 -0.7745  0.4068 -0.1711
   38MOL   C26221056   1.368   7.374   3.628  0.1379 -0.0339 -0.4435
   38MOL   C26321057   1.382   7.441   3.491  0.5350  0.9935  0.2966
   38MOL   O26421058   1.445   7.555   3.499  0.1407 -0.0877 -0.5228
   38MOL   C26521059   1.495   7.625   3.386 -0.1843  0.2724  0.5192
   38MOL   C26621060   1.385   7.713   3.320  0.3033 -0.0161  0.4373
   38MOL   O26721061   1.341   7.390   3.389 -0.2793  0.1684  0.4022
   38MOL   C26821062   1.362   7.234   3.644  0.0601 -0.3487 -0.6257
   38MOL   C26921063   1.363   7.173   3.773  0.1156 -0.5291 -0.2594
   38MOL   C27021064   1.376   7.037   3.787  0.3992 -0.0379  0.1794
   38MOL   C27121065   1.358   6.976   3.914  0.0413  0.1971 -0.3468
   38MOL   H27221066   1.337   7.262   4.102 -3.7102 -2.1760  0.5225
   38MOL   H27321067   1.335   7.448   3.956 -0.9083 -0.1776 -1.1783
   38MOL   H27421068   1.340   7.561   3.726 -1.7611  0.4463  0.6553
   38MOL   H27521069   1.519   7.556   3.305  0.0575  1.2339 -0.2316
   38MOL   H27621070   1.586   7.679   3.412  0.4392 -0.9780  0.9961
   38MOL   H27721071   1.363   7.680   3.219  2.6055  0.6580 -0.3200
   38MOL   H27821072   1.290   7.702   3.372 -0.6018  2.1064 -0.7345
   38MOL   H27921073   1.363   7.166   3.560 -2.0520 -2.1633  0.7569
   38MOL   H28021074   1.402   6.976   3.702 -0.4617 -1.4033  0.8727
   38MOL   H28121075   1.371   6.869   3.921  0.4847  0.1070 -2.2995
   38MOL   O28221076   1.376   7.891   3.516 -0.5253 -0.3461  0.2019
   38MOL   C28321077   1.414   7.925   3.404  0.0379  0.1965  0.5672
   38MOL   O28421078   1.418   7.840   3.299  0.0439  0.4420  0.1714
   38MOL   C28521079   1.454   8.060   3.371  0.2611 -0.0823 -0.2055
   38MOL   C28621080   1.486   8.092   3.235  0.3034  0.7243 -0.3998
   38MOL   C28721081   1.529   8.222   3.204  0.8115  0.1538 -0.1097
   38MOL   C28821082   1.553   0.010   3.073  0.1001 -0.4505 -0.7642
   38MOL   C28921083   1.610   0.134   3.033  0.3267  0.1833  0.2539
   38MOL   C29021084   1.638   0.227   3.135  0.1667  0.6153  0.3219
   38MOL   C29121085   1.699   0.362   3.104  0.0149  0.2122  0.1042
   38MOL   O29221086   1.712   0.381   2.974 -0.4551  0.1014 -0.6144
   38MOL   C29321087   1.775   0.497   2.932 -0.1126  0.0389  0.2482
   38MOL   C29421088   1.766   0.497   2.779 -0.0853 -0.7313  0.5540
   38MOL   O29521089   1.718   0.453   3.188  0.3871 -0.4389 -0.0365
   38MOL   C29621090   1.604   0.196   3.272 -0.7921  0.0256  0.3404
   38MOL   C29721091   1.550   0.068   3.303 -0.6745  0.7774 -0.2832
   38MOL   C29821092   1.516   0.033   3.438  0.0664 -0.1420 -0.1596
   38MOL   C29921093   1.465   8.155   3.469  0.3972 -0.4017 -0.4169
   38MOL   H30021094   1.474   8.019   3.156 -1.4931  0.3975  0.1431
   38MOL   H30121095   1.548   8.186   2.994  2.0765 -2.7037  1.1341
   38MOL   H30221096   1.630   0.153   2.929 -2.1587  1.5027 -0.0250
   38MOL   H30321097   1.879   0.492   2.965 -0.9671  1.0370  3.2591
   38MOL   H30421098   1.725   0.587   2.968 -0.7217  0.2328 -1.0621
   38MOL   H30521099   1.664   0.494   2.741  0.5260 -2.1744 -0.9790
   38MOL   H30621100   1.818   0.588   2.747 -3.8530  0.9018 -1.2072
   38MOL   H30721101   1.623   0.283   3.332 -3.1051  0.2297  0.8505
   38MOL   H30821102   1.526   0.111   3.511  1.7603  0.9786 -1.5518
   38MOL   H30921103   1.442   8.126   3.571  2.2512  2.0147  0.7236
   38MOL   O31021104   2.037   0.461   2.775 -0.5078 -0.1009 -0.3352
   38MOL   C31121105   1.965   0.366   2.747  0.8814  0.4714 -0.1205
   38MOL   O31221106   1.829   0.381   2.731  0.0603  0.3528 -0.2246
   38MOL   C31321107   2.004   0.228   2.717 -0.3406 -0.6496 -0.6433
   38MOL   C31421108   1.914   0.130   2.741 -0.0761  0.2292  0.0264
   38MOL   C31521109   1.950   8.248   2.723 -0.0462  0.3324  0.0955
   38MOL   C31621110   1.847   8.151   2.746  0.3650  0.0799  0.4616
   38MOL   C31721111   1.877   8.013   2.744  0.8548 -0.1607 -0.0618
   38MOL   C31821112   2.010   7.975   2.705  0.1771 -1.3717  0.4548
   38MOL   C31921113   2.037   7.831   2.693  0.0617 -0.5968 -0.2402
   38MOL   O32021114   1.944   7.760   2.747  0.2466  0.1247 -0.5457
   38MOL   C32121115   1.969   7.619   2.779  0.2693 -0.6318 -0.0227
   38MOL   C32221116   2.066   7.611   2.899  0.2297 -0.4258  0.2892
   38MOL   O32321117   2.144   7.790   2.649 -0.6298 -0.3272  0.1059
   38MOL   C32421118   2.111   8.075   2.685 -0.5286 -0.0788 -0.0049
   38MOL   C32521119   2.080   8.211   2.693 -0.1855 -0.3978 -0.2681
   38MOL   C32621120   2.184   0.055   2.685  0.1390 -0.1124  0.1410
   38MOL   C32721121   2.141   0.191   2.698 -0.0259  0.5901  0.4678
   38MOL   H32821122   1.810   0.144   2.764 -0.4957 -2.7905  0.2290
   38MOL   H32921123   1.746   8.181   2.770  0.5218 -0.2394  1.5623
   38MOL   H33021124   1.798   7.948   2.776 -1.0793  1.5975 -1.1641
   38MOL   H33121125   1.997   7.548   2.702 -0.0502 -1.4699  0.6325
   38MOL   H33221126   1.867   7.588   2.799 -0.0929  0.3901 -0.2553
   38MOL   H33321127   2.172   7.615   2.872 -0.7999 -2.5443 -4.5568
   38MOL   H33421128   2.046   7.696   2.965 -0.0298  0.5591 -1.0299
   38MOL   H33521129   2.211   8.039   2.667 -0.6424  0.7208 -2.3965
   38MOL   H33621130   2.283   0.025   2.653  0.0394 -0.5957  0.2801
   38MOL   H33721131   2.220   0.264   2.682  1.5465 -1.0409  0.6371
   38MOL   O33821132   2.216   7.500   3.103 -0.5447 -0.7019  0.0839
   38MOL   C33921133   2.115   7.447   3.066  0.2248  0.3126  0.0686
   38MOL   O34021134   2.036   7.493   2.970  0.5291 -0.2391  0.3256
   38MOL   C34121135   2.064   7.316   3.122  0.0786 -0.0211 -0.5093
   38MOL   C34221136   2.149   7.237   3.202 -0.5505  0.3381 -0.7605
   38MOL   C34321137   2.104   7.114   3.244 -0.5007  0.5062 -1.0099
   38MOL   C34421138   2.179   7.036   3.333  0.2128 -0.2459 -0.7387
   38MOL   C34521139   2.138   6.909   3.385  0.2940  0.0615 -0.0307
   38MOL   C34621140   2.008   6.858   3.343 -0.4560 -0.2582  0.1138
   38MOL   C34721141   1.957   6.724   3.382 -0.5338 -0.6682 -0.1664
   38MOL   O34821142   2.037   6.664   3.477  0.3300  0.0931 -0.5290
   38MOL   C34921143   2.007   6.531   3.515 -0.0884  0.4301  0.2432
   38MOL   C35021144   1.868   6.516   3.581 -0.3559  0.0024  0.2275
   38MOL   O35121145   1.866   6.662   3.332  0.9426  0.3584  0.2104
   38MOL   C35221146   1.933   6.933   3.252  0.0601 -0.6023  0.7749
   38MOL   C35321147   1.981   7.062   3.209  0.5008  0.7466  0.2467
   38MOL   C35421148   1.891   7.144   3.139 -0.1478 -0.8742 -0.5626
   38MOL   C35521149   1.938   7.269   3.102  0.2129  0.3702  0.7749
   38MOL   H35621150   2.242   7.272   3.243 -0.8946 -2.3371  2.4817
   38MOL   H35721151   2.269   7.083   3.371  0.5314 -0.2033 -1.5529
   38MOL   H35821152   2.197   6.859   3.461  0.3511 -2.3078 -1.5979
   38MOL   H35921153   2.084   6.490   3.581 -0.6034  0.5465  0.9215
   38MOL   H36021154   2.008   6.458   3.434  0.5987 -1.6817  2.0903
   38MOL   H36121155   1.777   6.525   3.521 -0.8505 -1.6965  0.7071
   38MOL   H36221156   1.863   6.412   3.613  0.6126  0.2102  1.0527
   38MOL   H36321157   1.847   6.885   3.208 -0.1056  0.8195 -0.4951
   38MOL   H36421158   1.796   7.099   3.115 -2.0285  1.6919  1.7294
   38MOL   H36521159   1.867   7.335   3.053 -2.1672 -1.5537  1.5711
   38MOL   O36621160   1.983   6.472   3.824 -0.2737 -0.4310  0.5905
   38MOL   C36721161   1.917   6.574   3.803  0.1064  0.3742 -0.3841
   38MOL   O36821162   1.873   6.612   3.688 -0.2136 -0.3442  0.0838
   38MOL   C36921163   1.874   6.672   3.910 -0.7734  0.2817  0.2690
   38MOL   C37021164   1.840   6.618   4.037  0.3956  0.0125  0.2320
   38MOL   C37121165   1.792   6.703   4.140 -0.4289  0.5281 -0.3636
   38MOL   C37221166   1.748   6.656   4.263  0.0159  0.0204 -0.2420
   38MOL   C37321167   1.697   6.744   4.358  0.0323 -0.5088 -0.9976
   38MOL   C37421168   1.702   6.885   4.338  0.1615  0.3244 -0.1531
   38MOL   C37521169   1.672   6.983   4.444 -0.2051  0.0544 -0.2119
   38MOL   O37621170   1.608   6.934   4.544  0.4999 -0.3061  0.3835
   38MOL   C37721171   1.577   7.026   4.650  0.1663  0.4206 -0.4572
   38MOL   C37821172   1.442   7.098   4.633 -0.0034  0.0411  0.3789
   38MOL   O37921173   1.702   7.104   4.428 -0.2084 -0.1674 -0.2359
   38MOL   C38021174   1.744   6.936   4.213  0.3654 -0.1998  0.2292
   38MOL   C38121175   1.783   6.842   4.110  0.3343 -0.0760  0.5253
   38MOL   C38221176   1.824   6.890   3.989  0.3051  0.1067 -0.1301
   38MOL   C38321177   1.860   6.807   3.880  0.4419 -0.0881 -0.0615
   38MOL   H38421178   1.854   6.512   4.049 -2.1523 -0.4204 -0.3197
   38MOL   H38521179   1.767   6.551   4.283  1.0757  0.3577  0.5275
   38MOL   H38621180   1.662   6.707   4.453 -0.5193  2.0410 -0.1829
   38MOL   H38721181   1.658   7.098   4.665  0.4924  0.1912 -1.0738
   38MOL   H38821182   1.573   6.972   4.745  1.8215  3.3087  1.3193
   38MOL   H38921183   1.415   7.154   4.723 -1.2685  1.0910 -0.6288
   38MOL   H39021184   1.455   7.175   4.558  2.0161 -1.0056 -0.3979
   38MOL   H39121185   1.749   7.041   4.186 -0.0530 -0.5235 -1.1849
   38MOL   H39221186   1.828   6.995   3.968  0.2650  0.0567 -0.3948
   38MOL   H39321187   1.864   6.861   3.787 -0.1799  1.4396  0.7768
   38MOL   O39421188   1.333   6.933   4.811 -0.0686 -0.2429 -0.4564
   38MOL   C39521189   1.278   6.935   4.700  0.3008  0.6037 -0.6046
   38MOL   O39621190   1.328   7.013   4.601  0.2353 -0.2242  0.0954
   38MOL   C39721191   1.144   6.878   4.663  0.8397 -0.0385 -0.2569
   38MOL   C39821192   1.087   6.795   4.758 -0.2059  0.2043  0.2229
   38MOL   C39921193   0.962   6.731   4.728 -0.2469  0.3369  0.1017
   38MOL   C40021194   0.897   6.656   4.823 -0.2853  0.4089 -0.8895
   38MOL   C40121195   0.769   6.596   4.804 -0.1538  0.0664 -0.2456
   38MOL   C40221196   0.695   6.613   4.685  0.1639 -0.4071  0.3539
   38MOL   C40321197   0.567   6.544   4.654 -0.1450 -0.7548  0.1232
   38MOL   O40421198   0.544   6.443   4.730 -0.0955  0.5537 -0.4308
   38MOL   C40521199   0.449   6.341   4.690 -0.5754 -0.1999  0.2187
   38MOL   C40621200   0.322   6.368   4.776  0.2042  0.0361 -0.3814
   38MOL   O40721201   0.507   6.570   4.548  0.0668 -0.3412 -0.9833
   38MOL   C40821202   0.761   6.696   4.586  0.1455  0.5837  0.6732
   38MOL   C40921203   0.893   6.746   4.606 -0.3350 -0.0995 -0.1293
   38MOL   C41021204   0.966   6.823   4.507 -0.0056  0.1740 -0.6330
   38MOL   C41121205   1.078   6.899   4.539 -0.2196 -0.4303 -0.3301
   38MOL   H41221206   1.136   6.775   4.852 -0.9431 -0.7366  0.4170
   38MOL   H41321207   0.952   6.634   4.913 -1.2913 -1.5867 -0.7351
   38MOL   H41421208   0.735   6.521   4.874  2.2545  0.0442  0.9113
   38MOL   H41521209   0.484   6.239   4.705 -0.6824 -0.4612 -1.2960
   38MOL   H41621210   0.426   6.342   4.584  1.6411 -1.6878 -0.2910
   38MOL   H41721211   0.256   6.281   4.783 -1.2082  1.2314  1.4929
   38MOL   H41821212   0.357   6.401   4.874 -1.5402  0.7293  0.0143
   38MOL   H41921213   0.706   6.715   4.495  1.8918  2.0643 -0.1028
   38MOL   H42021214   0.923   6.834   4.409  0.4840 -2.4991 -1.1814
   38MOL   H42121215   1.126   6.969   4.472  1.4946  1.3684  2.7052
   38MOL   O42221216   0.092   6.350   4.600  0.0571  0.3947  0.0588
   38MOL   C42321217   0.157   6.450   4.619 -0.2253  0.3406 -0.2867
   38MOL   O42421218   0.247   6.472   4.713  0.1321  0.2274  0.2192
   38MOL   C42521219   0.146   6.573   4.546 -0.1008  0.2037  0.2634
   38MOL   C42621220   0.225   6.687   4.565  0.7207  0.2790  0.1304
   38MOL   C42721221   0.210   6.797   4.478 -0.6515  0.2117  0.4187
   38MOL   C42821222   0.292   6.912   4.488 -0.3316 -0.5615  0.1661
   38MOL   C42921223   0.283   7.018   4.396  0.0933  0.2781 -1.0949
   38MOL   C43021224   0.196   7.009   4.287  0.4064  0.0594  0.4357
   38MOL   C43121225   0.196   7.115   4.191 -0.7258 -0.4328  0.0523
   38MOL   O43221226   0.243   7.227   4.243  0.2707  0.6242 -0.4770
   38MOL   C43321227   0.286   7.339   4.163 -0.2684 -0.3860  0.3532
   38MOL   C43421228   0.432   7.332   4.118  0.0032  0.3863 -0.0211
   38MOL   O43521229   0.164   7.100   4.069  0.3222 -0.0657 -0.3886
   38MOL   C43621230   0.102   6.901   4.284  0.6094 -1.2870  0.6376
   38MOL   C43721231   0.113   6.797   4.373 -0.0763  0.7262  0.3086
   38MOL   C43821232   0.031   6.687   4.354  0.2178 -0.0043  0.3315
   38MOL   C43921233   0.051   6.574   4.437  0.3555  0.0646  0.2406
   38MOL   H44021234   0.304   6.684   4.639 -0.1764 -0.7974  1.0677
   38MOL   H44121235   0.364   6.914   4.568  0.5932 -1.3976 -0.6303
   38MOL   H44221236   0.354   7.098   4.406  2.3375 -1.7556  0.0135
   38MOL   H44321237   0.269   7.422   4.232  1.5530  1.0003 -0.8441
   38MOL   H44421238   0.223   7.344   4.074 -0.6250 -0.3306  0.6067
   38MOL   H44521239   0.451   7.266   4.033  2.6274  1.7620 -0.5606
   38MOL   H44621240   0.463   7.432   4.087 -0.6385  0.7327  0.4430
   38MOL   H44721241   0.034   6.896   4.201  1.3040  1.0811 -0.1089
   38MOL   H44821242   8.213   6.678   4.270 -0.6092 -1.4074  1.1173
   38MOL   H44921243   8.243   6.486   4.412  0.6422 -0.2749  0.7750
   38MOL   O45021244   0.701   7.376   4.139 -0.3480 -0.0176  0.0126
   38MOL   C45121245   0.644   7.310   4.233 -1.4757  0.0441 -0.0959
   38MOL   O45221246   0.511   7.279   4.224  0.1439 -0.1233 -0.7218
   38MOL   C45321247   0.715   7.267   4.363 -0.6168 -0.0349 -0.4769
   38MOL   C45421248   0.816   7.350   4.417 -0.5808  0.1896 -0.0333
   38MOL   C45521249   0.882   7.309   4.536 -0.0257  0.7137 -0.9966
   38MOL   C45621250   0.988   7.385   4.589  0.0873 -0.2610 -0.2197
   38MOL   C45721251   1.045   7.341   4.707  1.1089  0.1215  0.4259
   38MOL   C45821252   1.006   7.226   4.775  0.5691  0.6850  0.5584
   38MOL   C45921253   1.077   7.180   4.893 -0.4391  0.2243 -0.7289
   38MOL   O46021254   1.058   7.047   4.926  0.2832 -0.3154  0.2690
   38MOL   C46121255   1.080   7.002   5.060  0.4665  0.1187 -0.0013
   38MOL   C46221256   0.961   7.048   5.145  0.4207 -0.1352  0.0972
   38MOL   O46321257   1.149   7.253   4.962 -0.1980  0.3784  0.6214
   38MOL   C46421258   0.903   7.145   4.717 -0.5165 -1.1902  0.3814
   38MOL   C46521259   0.841   7.189   4.598 -0.0358 -0.8053 -0.3174
   38MOL   C46621260   0.735   7.110   4.547  0.6601 -0.2427  0.3297
   38MOL   C46721261   0.669   7.154   4.434  0.2828  0.1966  0.1094
   38MOL   H46821262   0.849   7.436   4.360 -0.9289 -1.4659 -2.8337
   38MOL   H46921263   1.032   7.456   4.520 -2.9119  0.6303 -1.3070
   38MOL   H47021264   1.135   7.397   4.726  0.5944  2.0570 -2.4959
   38MOL   H47121265   1.170   7.030   5.114  0.1588  0.1647  0.4915
   38MOL   H47221266   1.087   6.893   5.070  0.7168  0.0750 -0.6092
   38MOL   H47321267   0.971   7.008   5.246  3.2553 -4.3254 -1.6850
   38MOL   H47421268   0.964   7.156   5.160  3.0797 -0.1430 -0.1526
   38MOL   H47521269   0.882   7.049   4.763 -1.4027 -1.7002 -1.0343
   38MOL   H47621270   0.693   7.022   4.593  2.1251 -0.4001  1.3978
   38MOL   H47721271   0.585   7.100   4.392  0.1994 -0.8839  1.6322
   38MOL   O47821272   0.890   6.787   5.135  0.1141 -0.0724  0.3984
   38MOL   C47921273   0.808   6.874   5.092 -0.0973  1.0770 -0.0045
   38MOL   O48021274   0.837   7.006   5.088  0.3521 -0.7634  0.0925
   38MOL   C48121275   0.667   6.844   5.051 -0.1443  0.0713 -0.2284
   38MOL   C48221276   0.602   6.733   5.116 -0.1180  0.2972  0.2471
   38MOL   C48321277   0.475   6.691   5.073  0.3127 -0.5800  0.0165
   38MOL   C48421278   0.417   6.580   5.137 -1.0064 -1.0807  0.5490
   38MOL   C48521279   0.294   6.531   5.092 -0.8282  0.2340 -0.1648
   38MOL   C48621280   0.221   6.599   4.996 -0.3188  0.0180  0.7017
   38MOL   C48721281   0.079   6.551   4.965 -0.2403  0.3655  0.3465
   38MOL   O48821282   0.020   6.647   4.896 -0.0395 -0.0896 -0.1416
   38MOL   C48921283   8.143   6.619   4.843  0.4791  0.1109 -0.4614
   38MOL   C49021284   8.086   6.759   4.805 -0.1514 -0.2385  0.2844
   38MOL   O49121285   0.037   6.436   4.993  0.3240  0.0697  0.3231
   38MOL   C49221286   0.282   6.714   4.936  1.3392  0.5710  0.1903
   38MOL   C49321287   0.408   6.758   4.975 -0.2322  0.6802 -0.3098
   38MOL   C49421288   0.466   6.865   4.913 -0.3564 -0.1494 -0.2714
   38MOL   C49521289   0.593   6.913   4.953  0.0947 -0.0777 -0.2661
   38MOL   H49621290   0.655   6.680   5.194 -1.7059 -1.7296 -0.0131
   38MOL   H49721291   0.471   6.528   5.215 -0.5751 -0.8795  0.3894
   38MOL   H49821292   0.249   6.442   5.133 -1.7344  0.7175 -0.0837
   38MOL   H49921293   8.077   6.554   4.900  1.9872 -1.6701 -0.7143
   38MOL   H50021294   8.148   6.552   4.757 -1.2112 -0.1492 -0.3665
   38MOL   H50121295   8.014   6.786   4.882  1.4444 -2.8820  2.8317
   38MOL   H50221296   8.163   6.836   4.800  1.8460 -2.3217 -2.0550
   38MOL   H50321297   0.229   6.778   4.868  0.5997  0.3157  0.5186
   38MOL   H50421298   0.410   6.917   4.837  0.0611  0.8590  0.0999
   38MOL   H50521299   0.636   6.999   4.903  0.5358 -0.6761 -0.9148
   38MOL   O50621300   8.098   6.961   4.610 -0.3691 -0.0077 -0.0054
   38MOL   C50721301   8.050   6.849   4.590 -0.0922 -0.5537  0.4100
   38MOL   O50821302   8.024   6.758   4.682  0.3096 -0.2908 -0.0013
   38MOL   C50921303   7.988   6.822   4.458 -0.9796 -0.5547  0.2688
   38MOL   C51021304   7.886   6.724   4.440 -0.0276  0.0904 -0.4920
   38MOL   C51121305   7.819   6.704   4.323 -0.2447 -0.8069 -0.0912
   38MOL   C51221306   7.711   6.613   4.311  0.2366 -0.4537  0.0386
   38MOL   C51321307   7.648   6.601   4.187 -0.0241  0.3836 -0.0509
   38MOL   C51421308   7.686   6.673   4.072  0.0834  0.2307 -0.3368
   38MOL   C51521309   7.628   6.642   3.942 -0.4396  0.9324 -0.1136
   38MOL   O51621310   7.682   6.701   3.834  0.6009 -0.5834 -0.1885
   38MOL   C51721311   7.610   6.691   3.710  0.0586  0.3956 -1.0419
   38MOL   C51821312   7.516   6.806   3.700  1.1956 -0.5492 -0.4381
   38MOL   O51921313   7.526   6.568   3.935  0.2729  0.0202 -0.4739
   38MOL   C52021314   7.791   6.766   4.086  0.9785  0.4936  0.5379
   38MOL   C52121315   7.853   6.785   4.211  0.5685  0.9340  0.0529
   38MOL   C52221316   7.953   6.880   4.224  0.1181  0.4647  1.0576
   38MOL   C52321317   8.020   6.906   4.349  0.4122  0.2556  0.1700
   38MOL   H52421318   7.857   6.667   4.527 -1.3215 -0.1050 -1.0511
   38MOL   H52521319   7.678   6.556   4.396 -3.1836 -0.0940 -0.9848
   38MOL   H52621320   7.566   6.530   4.192  1.6640 -1.5463  0.6163
   38MOL   H52721321   7.556   6.599   3.690  0.5200 -0.2653  0.6237
   38MOL   H52821322   7.680   6.700   3.627 -1.0770  2.1192 -1.8298
   38MOL   H52921323   7.426   6.776   3.753  1.5230  0.4762  0.7348
   38MOL   H53021324   7.548   6.906   3.729 -2.5622  0.9733 -1.1618
   38MOL   H53121325   7.821   6.827   4.003 -1.2135  1.8234  0.6807
   38MOL   H53221326   7.976   6.937   4.136 -1.1607  0.5825  0.7874
   38MOL   H53321327   8.103   6.973   4.365 -0.6784  1.2670  1.8225
   38MOL   O53421328   7.638   6.953   3.497  0.6451  0.3451  0.1832
   38MOL   C53521329   7.544   6.877   3.470 -0.4425 -0.2188 -0.1803
   38MOL   O53621330   7.472   6.814   3.560  0.6212 -0.6484  0.1859
   38MOL   C53721331   7.489   6.848   3.333  0.2603 -0.0698 -0.1566
   38MOL   C53821332   7.383   6.761   3.303 -0.4877 -1.2540  0.2285
   38MOL   C53921333   7.342   6.739   3.166  0.0441 -0.5100  0.5727
   38MOL   C54021334   7.236   6.649   3.129  0.5004  0.2472 -0.3557
   38MOL   C54121335   7.216   6.629   2.992  0.6077  0.4183 -0.4372
   38MOL   C54221336   7.288   6.690   2.891  0.9814  0.1501  0.1015
   38MOL   C54321337   7.241   6.685   2.758  0.3735 -0.3283  0.5293
   38MOL   O54421338   7.108   6.665   2.746 -0.0976 -0.9414 -0.2263
   38MOL   C54521339   7.054   6.664   2.615  0.8773  0.6994  0.3399
   38MOL   C54621340   6.937   6.757   2.589  0.1432  0.7714 -0.3370
   38MOL   O54721341   7.318   6.700   2.660 -0.7214  0.2509 -0.1480
   38MOL   C54821342   7.392   6.774   2.926 -0.2411  0.0850 -0.3010
   38MOL   C54921343   7.422   6.799   3.063 -0.2300  1.1149 -0.0553
   38MOL   C55021344   7.523   6.887   3.092 -0.1344 -0.2292  0.1765
   38MOL   C55121345   7.559   6.910   3.226 -0.0094  0.9273 -0.1465
   38MOL   H55221346   7.316   6.728   3.382  1.1501 -1.5242  1.5255
   38MOL   H55321347   7.181   6.612   3.215  2.0136 -0.8054  0.1946
   38MOL   H55421348   7.134   6.562   2.969  0.6858  0.6152 -1.3283
   38MOL   H55521349   7.030   6.559   2.596  2.2689  0.8510 -2.6138
   38MOL   H55621350   7.124   6.689   2.535 -0.9530  2.3626 -0.7816
   38MOL   H55721351   6.845   6.743   2.645 -0.5434  1.4096 -1.2749
   38MOL   H55821352   6.903   6.754   2.485  0.8991  2.2695 -0.6429
   38MOL   H55921353   7.438   6.832   2.846 -2.4936  1.9597 -0.3060
   38MOL   H56021354   7.571   6.935   3.009  1.4764 -1.4064  0.3746
   38MOL   H56121355   7.639   6.982   3.238  0.9236 -0.2978  1.0234
   38MOL   H56221356   6.977   6.857   2.609 -1.5333  1.2790  0.6501
   39MOL     O121357   7.235   1.023   4.436 -0.1831 -0.2887  0.1975
   39MOL     C221358   7.207   1.055   4.325 -0.0099 -0.2232  0.5814
   39MOL     O321359   7.081   1.056   4.285  0.1194 -0.2154  0.3099
   39MOL     C421360   7.305   1.085   4.217  0.2470 -0.0484 -0.4634
   39MOL     C521361   7.439   1.060   4.252  0.5246  0.2185 -0.3423
   39MOL     C621362   7.538   1.109   4.170 -0.0298  0.3761 -0.3683
   39MOL     C721363   7.673   1.086   4.206  0.0291  0.4973 -0.7510
   39MOL     C821364   7.775   1.137   4.121  0.2722  0.2130 -0.3179
   39MOL     C921365   7.749   1.203   3.999  0.2745 -0.3065 -0.2298
   39MOL    C1021366   7.854   1.251   3.905  0.7991  0.5723 -0.1485
   39MOL    O1121367   7.967   1.187   3.923  0.1423  0.6170  0.1625
   39MOL    C1221368   8.085   1.227   3.853  0.1871 -0.3997  0.0497
   39MOL    C1321369   8.210   1.170   3.914  0.0140  0.7101  0.0316
   39MOL    O1421370   7.839   1.341   3.824 -0.4612  0.1814  0.1807
   39MOL    C1521371   7.615   1.226   3.970  0.6375  0.1612 -0.0454
   39MOL    C1621372   7.510   1.189   4.057 -0.2874  0.3809 -0.5414
   39MOL    C1721373   7.381   1.213   4.017 -0.1224 -0.3759  0.4489
   39MOL    C1821374   7.277   1.165   4.103 -0.4785  0.3429 -0.0852
   39MOL    H1921375   7.464   1.012   4.346  1.5428  0.6954 -0.3598
   39MOL    H2021376   7.705   1.025   4.290  0.6206  0.4348 -1.0189
   39MOL    H2121377   7.876   1.112   4.152 -0.2227 -0.3171  0.8945
   39MOL    H2221378   8.075   1.206   3.747  0.1718 -1.1081  0.1919
   39MOL    H2321379   8.102   1.335   3.857 -1.6330 -0.1267  0.7903
   39MOL    H2421380   0.043   1.157   3.843  1.2109 -0.8828  1.6662
   39MOL    H2521381   0.003   1.229   3.996  1.3364  0.5704 -0.5197
   39MOL    H2621382   7.597   1.284   3.881  0.2831  1.8928  1.1374
   39MOL    H2721383   7.360   1.269   3.928  0.9894 -1.3218 -0.4247
   39MOL    H2821384   7.173   1.195   4.092 -1.4814 -2.7590  0.5492
   39MOL    H2921385   7.037   0.975   4.308  1.2018 -0.7466  0.5324
   39MOL    O3021386   8.162   1.077   4.187  0.1769  0.1304  0.3803
   39MOL    C3121387   8.137   1.011   4.088  0.0869 -0.1336 -0.2575
   39MOL    O3221388   8.174   1.045   3.960  0.3435 -0.4938  0.0528
   39MOL    C3321389   8.066   0.879   4.105  0.2117  0.6092 -0.2146
   39MOL    C3421390   8.065   0.821   4.237  1.2856  0.1752  0.1762
   39MOL    C3521391   7.998   0.695   4.261 -0.1782 -0.0034 -0.3366
   39MOL    C3621392   8.003   0.637   4.390  0.6122  0.1333  1.1677
   39MOL    C3721393   7.932   0.515   4.410  0.0860 -0.2388  0.1323
   39MOL    C3821394   7.877   0.446   4.302 -0.7392 -0.7611 -0.1209
   39MOL    C3921395   7.819   0.308   4.330  0.8715 -0.3776  0.4395
   39MOL    O4021396   7.796   0.287   4.459 -0.2114  0.6034 -0.3747
   39MOL    C4121397   7.769   0.149   4.494 -0.8377 -0.3335 -0.0620
   39MOL    C4221398   7.895   0.099   4.562  0.0139  0.2008 -0.0340
   39MOL    O4321399   7.801   0.232   4.239  1.4886 -0.4272  0.1794
   39MOL    C4421400   7.877   0.504   4.172 -0.4758  0.0163 -0.1916
   39MOL    C4521401   7.935   0.633   4.153 -0.4919 -0.4939 -0.6051
   39MOL    C4621402   7.925   0.696   4.028 -0.5220 -0.3108  0.7057
   39MOL    C4721403   7.993   0.817   4.002  0.2357 -0.0365 -0.8828
   39MOL    H4821404   8.105   0.873   4.323 -2.3442  0.4920  1.7557
   39MOL    H4921405   8.060   0.684   4.469  1.9580 -1.4376  1.1650
   39MOL    H5021406   7.934   0.483   4.513  1.6088  0.7335  0.4180
   39MOL    H5121407   7.730   0.085   4.414  1.6880  0.9821 -2.4222
   39MOL    H5221408   7.695   0.159   4.573  0.1983  1.9008  0.6701
   39MOL    H5321409   7.897   8.239   4.550  1.5561  0.2841 -0.6054
   39MOL    H5421410   7.994   0.135   4.535  0.1549  1.1015  1.5897
   39MOL    H5521411   7.836   0.459   4.084 -1.2859  1.8985 -0.7989
   39MOL    H5621412   7.870   0.646   3.951 -0.0970 -0.9847  0.8379
   39MOL    H5721413   7.975   0.863   3.906  1.0585  0.3514 -0.8595
   39MOL    O5821414   7.965   0.321   4.717 -0.4326 -0.6683 -0.1831
   39MOL    C5921415   7.903   0.225   4.768  0.0668  0.3634  0.3996
   39MOL    O6021416   7.871   0.113   4.706 -0.1694  0.3082  0.1045
   39MOL    C6121417   7.851   0.213   4.911 -0.0964 -0.4327  0.0846
   39MOL    C6221418   7.873   0.321   5.004 -0.2848 -0.1488  0.6205
   39MOL    C6321419   7.816   0.317   5.132  0.3472  0.0860 -0.3490
   39MOL    C6421420   7.824   0.427   5.220  0.2169  0.3404 -0.1312
   39MOL    C6521421   7.748   0.426   5.343 -0.0636  0.0563 -0.6250
   39MOL    C6621422   7.672   0.315   5.386  0.2743 -0.0765  0.1503
   39MOL    C6721423   7.587   0.323   5.508 -0.2982 -0.3128 -0.5619
   39MOL    O6821424   7.540   0.207   5.555 -0.4146 -0.2968  0.1710
   39MOL    C6921425   7.424   0.210   5.633  0.0397  0.8900 -0.9593
   39MOL    C7021426   7.445   0.271   5.771  0.7381  0.1589 -0.3363
   39MOL    O7121427   7.558   0.431   5.551  0.8471 -0.1663 -0.1709
   39MOL    C7221428   7.670   0.204   5.302 -0.1264 -0.2750 -0.5546
   39MOL    C7321429   7.744   0.201   5.178  0.2100  0.6146 -0.7352
   39MOL    C7421430   7.743   0.083   5.100  0.0884  0.0906  0.5462
   39MOL    C7521431   7.796   0.092   4.969  0.2437 -0.0028  0.5049
   39MOL    H7621432   7.921   0.409   4.965 -1.1022 -0.4836 -1.1993
   39MOL    H7721433   7.868   0.518   5.183 -0.1995  0.9379  0.8054
   39MOL    H7821434   7.734   0.519   5.395 -0.3832 -0.3975  0.1060
   39MOL    H7921435   7.401   0.104   5.647 -1.9553  1.3380 -0.7368
   39MOL    H8021436   7.342   0.255   5.577 -1.3057 -0.0676  0.1968
   39MOL    H8121437   7.551   0.291   5.787  1.0040 -1.6168  0.2194
   39MOL    H8221438   7.406   0.373   5.769  0.8493  0.2625  1.6209
   39MOL    H8321439   7.600   0.126   5.330 -1.0432  0.7497  0.0575
   39MOL    H8421440   7.705   8.240   5.140  0.4157  0.2270  1.1735
   39MOL    H8521441   7.787   0.002   4.910  1.0182  0.2629 -0.0201
   39MOL    O8621442   7.425   0.354   6.010 -0.6151 -0.0652 -0.7443
   39MOL    C8721443   7.366   0.252   5.982  0.6045  0.1316  0.1596
   39MOL    O8821444   7.378   0.200   5.866  0.3168 -0.7608  0.7063
   39MOL    C8921445   7.279   0.176   6.076  0.4369  0.1164  0.0548
   39MOL    C9021446   7.255   0.219   6.208 -0.2177  0.0615  1.0404
   39MOL    C9121447   7.175   0.139   6.291 -0.4405 -0.2620 -0.3777
   39MOL    C9221448   7.150   0.181   6.425 -0.7308 -0.5299 -0.1863
   39MOL    C9321449   7.062   0.103   6.499  0.4624  0.6456 -0.8843
   39MOL    C9421450   6.996   8.239   6.449 -0.5574  0.7688  0.5933
   39MOL    C9521451   6.899   8.172   6.543 -0.2615 -0.2873 -0.0072
   39MOL    O9621452   6.822   8.076   6.488  0.2465  0.1872  0.0047
   39MOL    C9721453   6.727   8.001   6.573  0.3030 -0.0732  0.0347
   39MOL    C9821454   6.787   7.870   6.629 -0.2813 -0.4682  0.9524
   39MOL    O9921455   6.896   8.189   6.666  0.2997  0.0047 -0.3980
   39MOL   C10021456   7.022   8.196   6.319  0.4568 -0.1498  1.3581
   39MOL   C10121457   7.111   0.027   6.237  0.6785  0.2077 -0.2582
   39MOL   C10221458   7.137   8.236   6.105  0.1515 -0.3336 -0.0943
   39MOL   C10321459   7.216   0.061   6.023 -1.3981 -0.7483 -0.0325
   39MOL   H10421460   7.298   0.308   6.250 -2.2094  2.5450 -1.9821
   39MOL   H10521461   7.195   0.274   6.455 -0.8664 -0.3561 -0.5161
   39MOL   H10621462   7.029   0.145   6.593  1.3016 -1.1472  0.2365
   39MOL   H10721463   6.634   7.984   6.519 -0.0794 -0.8950  0.9394
   39MOL   H10821464   6.704   8.057   6.663  3.1447 -4.2313  3.5469
   39MOL   H10921465   6.778   7.784   6.563  0.6993 -0.8112  1.2460
   39MOL   H11021466   6.896   7.882   6.635 -0.4503  2.8125 -1.1780
   39MOL   H11121467   6.974   8.105   6.283  1.6276  1.1024 -3.7727
   39MOL   H11221468   7.095   8.147   6.060 -2.4508  0.2151  1.1920
   39MOL   H11321469   7.235   0.025   5.923 -2.3823  0.2636 -0.5864
   39MOL   O11421470   6.602   7.664   6.700 -0.3650 -0.4808 -0.0144
   39MOL   C11521471   6.666   7.727   6.783  0.3096  0.4177  0.8821
   39MOL   O11621472   6.743   7.841   6.761  0.5793 -0.0628  0.5732
   39MOL   C11721473   6.649   7.709   6.929  1.0786 -0.4725 -0.1675
   39MOL   C11821474   6.546   7.621   6.981  0.9280  0.1351  0.2402
   39MOL   C11921475   6.513   7.626   7.117  0.0351  0.7170  0.7587
   39MOL   C12021476   6.395   7.561   7.164 -0.4179  0.2366  0.4374
   39MOL   C12121477   6.361   7.564   7.300  0.1437  0.4714  0.3996
   39MOL   C12221478   6.440   7.629   7.392  0.4135 -0.3331  0.1390
   39MOL   C12321479   6.397   7.651   7.532 -0.1665  0.4074 -0.0016
   39MOL   O12421480   6.480   7.733   7.605  0.5718  0.0739  0.4887
   39MOL   C12521481   6.453   7.761   7.737  0.3393  0.2813 -0.0135
   39MOL   C12621482   6.522   7.659   7.836 -0.0972  0.0537  0.0910
   39MOL   O12721483   6.293   7.603   7.572 -0.0057 -0.1728 -0.1818
   39MOL   C12821484   6.557   7.696   7.345  0.2539  0.2075  0.0580
   39MOL   C12921485   6.596   7.692   7.212 -0.1369  0.1267  0.1507
   39MOL   C13021486   6.705   7.767   7.159  0.0411 -0.0056  0.0397
   39MOL   C13121487   6.729   7.783   7.020  0.0573  0.2648 -0.3267
   39MOL   H13221488   6.483   7.575   6.907  2.7057 -1.0961 -0.5645
   39MOL   H13321489   6.319   7.521   7.098 -3.5897  3.6819  1.8529
   39MOL   H13421490   6.269   7.522   7.336  0.8040 -2.1490 -0.8892
   39MOL   H13521491   6.346   7.763   7.756 -0.3331  1.3448 -3.5440
   39MOL   H13621492   6.489   7.864   7.749 -1.0363  0.8051 -0.2954
   39MOL   H13721493   6.476   7.673   7.934  0.4280  1.7121  0.1116
   39MOL   H13821494   6.502   7.556   7.807 -1.1283  0.3453 -0.2660
   39MOL   H13921495   6.621   7.757   7.408  1.5019 -1.7585  0.7609
   39MOL   H14021496   6.764   7.818   7.234  0.5831 -2.6655  1.4978
   39MOL   H14121497   6.806   7.857   7.001  1.9372 -1.2835  1.0081
   39MOL   O14221498   6.736   7.505   7.751  0.1864 -0.1340  0.1305
   39MOL   C14321499   6.755   7.616   7.795  0.5510  0.8158  0.0432
   39MOL   O14421500   6.661   7.696   7.853 -0.3724  0.3010 -0.9853
   39MOL   C14521501   6.884   7.685   7.781 -0.5621 -0.7914  0.5337
   39MOL   C14621502   6.901   7.823   7.791 -0.2406  0.8022 -0.0146
   39MOL   C14721503   7.025   7.891   7.782  0.0356  0.0259  0.7574
   39MOL   C14821504   7.041   8.029   7.788  0.0865 -0.0397 -0.3088
   39MOL   C14921505   7.170   8.083   7.798  0.1411  0.4415  0.2626
   39MOL   C15021506   7.289   8.003   7.801 -0.2196  0.0213  0.4195
   39MOL   C15121507   7.425   8.055   7.833 -0.1851  0.6502 -0.9073
   39MOL   O15221508   7.512   7.962   7.885  0.1121 -0.3397 -0.3087
   39MOL   C15321509   7.646   8.010   7.905  0.1476 -0.3649 -0.6792
   39MOL   C15421510   7.668   8.090   8.040 -0.1735  1.4619  0.5446
   39MOL   O15521511   7.457   8.170   7.816 -0.0159  0.2181  0.2335
   39MOL   C15621512   7.271   7.864   7.778 -0.3263  0.1491 -0.3789
   39MOL   C15721513   7.144   7.811   7.768 -0.2576  0.1970 -0.0914
   39MOL   C15821514   7.123   7.671   7.746 -1.0010 -0.3045  0.2885
   39MOL   C15921515   6.995   7.611   7.742 -0.8432  0.5169 -0.7323
   39MOL   H16021516   6.811   7.879   7.810 -0.6684  0.5715 -1.2877
   39MOL   H16121517   6.958   8.096   7.803  0.4034 -0.1862  2.3641
   39MOL   H16221518   7.189   8.189   7.807  0.6384  0.2665  1.3811
   39MOL   H16321519   7.687   8.061   7.818  3.6681 -0.4893  0.7908
   39MOL   H16421520   7.702   7.918   7.922 -0.0298 -0.3389  0.0808
   39MOL   H16521521   7.605   8.028   8.104 -0.6369 -0.4466 -1.7084
   39MOL   H16621522   7.768   8.093   8.082 -0.1417  1.6559  0.4570
   39MOL   H16721523   7.352   7.793   7.770 -0.9325 -0.6811  0.7299
   39MOL   H16821524   7.206   7.606   7.723 -0.2177  0.2505  1.4847
   39MOL   H16921525   6.985   7.505   7.728  0.2202  0.3536 -0.2823
   39MOL   O17021526   7.821   0.070   7.981 -0.4278  0.1405  0.2162
   39MOL   C17121527   7.700   0.074   8.004  0.2564 -0.8224  0.2690
   39MOL   O17221528   7.617   8.222   8.036  0.0051 -0.0442  0.4069
   39MOL   C17321529   7.630   0.210   8.005 -0.5420  0.8594  0.3480
   39MOL   C17421530   7.710   0.321   7.992  0.0922  0.3454 -0.3874
   39MOL   C17521531   7.646   0.448   7.983  0.2474  0.0405 -0.4650
   39MOL   C17621532   7.721   0.564   7.967  0.3320  0.8644 -0.1787
   39MOL   C17721533   7.662   0.691   7.966  1.2409  0.0316  0.0311
   39MOL   C17821534   7.519   0.703   7.992  0.1338 -0.0565 -0.1732
   39MOL   C17921535   7.456   0.836   8.010  0.2010 -0.7366  0.0393
   39MOL   O18021536   7.536   0.942   7.982  0.5895  0.2724  0.2457
   39MOL   C18121537   7.481   1.074   7.963  0.0940  0.2150 -0.2019
   39MOL   C18221538   7.396   1.082   7.839 -0.3416  0.2791  0.8475
   39MOL   O18321539   7.344   0.847   8.058  0.0713  0.5896  0.0099
   39MOL   C18421540   7.437   0.588   7.995  0.2695 -0.1320 -0.3653
   39MOL   C18521541   7.503   0.461   7.993 -0.3873  0.5292 -0.6328
   39MOL   C18621542   7.426   0.346   8.000  0.7965  0.0819  0.4891
   39MOL   C18721543   7.490   0.218   8.006  0.6919 -0.6311 -0.6412
   39MOL   H18821544   7.812   0.301   7.963 -0.0636 -0.5130 -0.3311
   39MOL   H18921545   7.828   0.557   7.954  0.4377  2.9590 -0.6429
   39MOL   H19021546   7.723   0.780   7.957  1.1196  0.2412  1.2512
   39MOL   H19121547   7.577   1.126   7.958  0.4583 -0.3430  0.7009
   39MOL   H19221548   7.431   1.102   8.056  2.0431 -0.1102  0.9857
   39MOL   H19321549   7.413   0.991   7.783 -0.2792  0.4819  0.5361
   39MOL   H19421550   7.288   1.088   7.848 -0.3056  1.5542  0.5567
   39MOL   H19521551   7.331   0.593   8.014  0.5380  2.6397  0.5594
   39MOL   H19621552   7.318   0.348   8.003  0.8003 -0.3207  1.0897
   39MOL   H19721553   7.434   0.126   8.010  0.3407 -0.3706  0.6161
   39MOL   O19821554   7.291   1.322   7.838 -0.4808  0.6291  0.4554
   39MOL   C19921555   7.377   1.294   7.753  0.2442  0.3723  0.2915
   39MOL   O20021556   7.438   1.182   7.753  0.2918  0.0858  0.0683
   39MOL   C20121557   7.427   1.389   7.644  0.8047  0.1602 -0.0275
   39MOL   C20221558   7.369   1.517   7.621  0.0335  0.8008  0.3284
   39MOL   C20321559   7.414   1.591   7.512  0.0331  0.5778  0.4015
   39MOL   C20421560   7.358   1.715   7.477 -0.0510 -0.4244  0.2549
   39MOL   C20521561   7.411   1.787   7.367  0.3491 -0.2010 -0.3540
   39MOL   C20621562   7.511   1.733   7.285  0.1426 -0.3647  0.7552
   39MOL   C20721563   7.574   1.821   7.178  0.5245 -0.7387 -0.2372
   39MOL   O20821564   7.652   1.750   7.090 -0.1826 -0.0524  0.2422
   39MOL   C20921565   7.726   1.819   6.989  0.2593  0.6361  0.2766
   39MOL   C21021566   7.864   1.854   7.039 -0.0687 -0.0575 -0.2233
   39MOL   O21121567   7.560   1.941   7.177  0.6776  0.3592  0.0638
   39MOL   C21221568   7.554   1.606   7.307  0.1103 -0.1056 -0.0324
   39MOL   C21321569   7.512   1.541   7.424 -0.5506 -0.1372 -0.3344
   39MOL   C21421570   7.567   1.416   7.451  0.0269  0.1815  0.2439
   39MOL   C21521571   7.518   1.337   7.551 -0.0450  0.4091  0.0297
   39MOL   H21621572   7.302   1.568   7.689  0.6655  0.4116  1.2348
   39MOL   H21721573   7.279   1.764   7.532  0.0492  0.1133 -0.0723
   39MOL   H21821574   7.378   1.886   7.342  0.4009 -0.4678 -1.4746
   39MOL   H21921575   7.671   1.909   6.964 -0.3300  0.9585  2.5889
   39MOL   H22021576   7.729   1.758   6.899 -0.6319  1.4732 -0.3255
   39MOL   H22121577   7.910   1.891   6.947  0.2271  0.4925  0.1437
   39MOL   H22221578   7.862   1.941   7.104 -0.8128 -0.7437  0.6849
   39MOL   H22321579   7.630   1.559   7.245 -0.9009  1.0791 -2.1987
   39MOL   H22421580   7.645   1.380   7.387 -0.1450 -1.2933  0.8456
   39MOL   H22521581   7.554   1.237   7.568 -2.1293 -0.5005 -0.7908
   39MOL   O22621582   8.070   1.677   6.932 -0.0380 -0.0739 -0.0705
   39MOL   C22721583   8.008   1.648   7.039 -0.4857  0.2019 -0.3233
   39MOL   O22821584   7.914   1.727   7.102 -0.6089 -0.2513  0.8553
   39MOL   C22921585   8.036   1.525   7.120  0.1241 -0.2290  0.1772
   39MOL   C23021586   8.151   1.445   7.097 -0.0576 -0.3127  0.1977
   39MOL   C23121587   8.192   1.340   7.176 -0.1898  0.6114  0.4056
   39MOL   C23221588   0.061   1.266   7.149  0.1028  0.0864 -0.3793
   39MOL   C23321589   0.094   1.146   7.220 -0.5252 -0.1844  0.0802
   39MOL   C23421590   0.006   1.112   7.328 -0.0263 -0.4954 -0.5563
   39MOL   C23521591   0.036   0.991   7.402 -0.3600  0.2304 -0.4156
   39MOL   O23621592   8.180   0.940   7.467 -0.4752 -0.7275  0.0852
   39MOL   C23721593   8.202   0.829   7.553  0.3274 -0.0181 -0.1857
   39MOL   C23821594   0.000   0.882   7.686  0.1817 -0.6092  0.7197
   39MOL   O23921595   0.149   0.936   7.411  0.2949  0.3394  0.1425
   39MOL   C24021596   8.143   1.189   7.365 -0.5687 -0.3447 -0.4089
   39MOL   C24121597   8.109   1.304   7.285 -0.1694 -0.1392 -0.4644
   39MOL   C24221598   7.987   1.370   7.301 -0.3851  0.7710 -0.0265
   39MOL   C24321599   7.954   1.484   7.227 -0.8524 -0.8032 -0.8985
   39MOL   H24421600   8.214   1.456   7.010  0.4637 -0.9017  0.4986
   39MOL   H24521601   0.114   1.286   7.057 -1.4295 -0.8708 -1.4883
   39MOL   H24621602   0.179   1.085   7.192  0.4928  1.8015 -1.2617
   39MOL   H24721603   0.023   0.752   7.522 -0.1058  0.0915 -1.4635
   39MOL   H24821604   8.107   0.777   7.550  0.5397 -0.3227 -1.7875
   39MOL   H24921605   8.208   0.981   7.702  0.2318 -0.3063 -0.9080
   39MOL   H25021606   8.211   0.815   7.763 -2.4177  0.0746  0.0787
   39MOL   H25121607   8.072   1.160   7.441  1.4969 -2.8979  0.6350
   39MOL   H25221608   7.918   1.344   7.381 -1.6705 -0.5005 -1.5103
   39MOL   H25321609   7.868   1.538   7.263  0.1774  0.7188 -0.6851
   39MOL   O25421610   0.177   0.686   7.735  0.1228 -0.0124 -0.2544
   39MOL   C25521611   0.220   0.793   7.714 -0.9059 -0.5987  0.0894
   39MOL   O25621612   0.139   0.902   7.704 -0.3902  0.4700 -0.1148
   39MOL   C25721613   0.365   0.826   7.710 -0.0523 -0.1175 -0.3931
   39MOL   C25821614   0.457   0.722   7.709 -0.0066  0.6127 -0.3962
   39MOL   C25921615   0.593   0.749   7.700  0.6757  0.0993 -0.0779
   39MOL   C26021616   0.688   0.646   7.689  0.4658  0.0137  0.5853
   39MOL   C26121617   0.823   0.682   7.680 -0.0701  0.1600 -0.4205
   39MOL   C26221618   0.866   0.812   7.669  0.4673 -0.8251  0.6420
   39MOL   C26321619   1.010   0.836   7.653 -0.8900 -0.1201  0.2648
   39MOL   O26421620   1.042   0.968   7.646 -0.3928 -0.0191 -0.2667
   39MOL   C26521621   1.183   1.002   7.643  0.0373  0.2638 -0.4012
   39MOL   C26621622   1.269   0.957   7.521  0.6709 -0.3856  0.2850
   39MOL   O26721623   1.099   0.749   7.649 -0.0697 -0.3448 -0.5200
   39MOL   C26821624   0.767   0.912   7.679  0.3059 -0.1505  0.1996
   39MOL   C26921625   0.635   0.883   7.699 -0.4924  0.5264 -0.4809
   39MOL   C27021626   0.543   0.993   7.709 -0.0186  0.4898 -0.8273
   39MOL   C27121627   0.406   0.958   7.704 -0.5040 -1.2582  0.0384
   39MOL   H27221628   0.423   0.621   7.727  0.5289 -0.1190 -3.1228
   39MOL   H27321629   0.657   0.542   7.693 -1.4900  0.6093  1.6659
   39MOL   H27421630   0.899   0.605   7.678 -0.9970 -0.8666  2.0019
   39MOL   H27521631   1.226   0.963   7.736 -0.4369 -2.7569 -1.3854
   39MOL   H27621632   1.192   1.110   7.648 -0.1268  0.3288 -1.3999
   39MOL   H27721633   1.357   1.018   7.540  0.3001 -0.4761  2.3392
   39MOL   H27821634   1.302   0.853   7.512  2.4240  0.1733 -0.0905
   39MOL   H27921635   0.790   1.017   7.687 -1.7383  0.0746  3.7758
   39MOL   H28021636   0.578   1.095   7.704  0.2393  0.4344 -0.1520
   39MOL   H28121637   0.339   1.043   7.707 -0.4890 -1.2076 -0.8572
   39MOL   O28221638   1.101   0.809   7.350  0.4525 -0.2767 -1.2625
   39MOL   C28321639   1.136   0.923   7.317 -0.4515 -0.5024  0.2991
   39MOL   O28421640   1.218   1.000   7.389  0.1682 -0.5125  0.0322
   39MOL   C28521641   1.094   0.984   7.189  0.3292 -0.5983  0.0386
   39MOL   C28621642   1.129   1.113   7.152 -0.5498  0.3247 -0.9326
   39MOL   C28721643   1.103   1.164   7.024  0.3116  0.0347 -0.1264
   39MOL   C28821644   1.147   1.292   6.987 -0.5489  0.9807 -0.3237
   39MOL   C28921645   1.118   1.339   6.859  0.1985 -0.2608 -0.0825
   39MOL   C29021646   1.055   1.259   6.760 -0.3166 -0.0075  0.6155
   39MOL   C29121647   1.018   1.320   6.628 -0.0552 -0.2125  0.3739
   39MOL   O29221648   0.975   1.222   6.541  0.3696  0.1867 -0.9084
   39MOL   C29321649   0.920   1.263   6.415 -0.1611  0.1352  0.4362
   39MOL   C29421650   0.767   1.287   6.424  0.1819 -0.2165  0.3656
   39MOL   O29521651   1.045   1.439   6.599  0.1247 -0.3890  0.1836
   39MOL   C29621652   1.019   1.125   6.798 -0.0520 -0.0486  0.4687
   39MOL   C29721653   1.032   1.076   6.931 -0.6355 -0.3865  0.3183
   39MOL   C29821654   0.979   0.954   6.978  0.6179  0.7069 -0.6218
   39MOL   C29921655   1.009   0.905   7.106  0.6517  0.1125 -0.4283
   39MOL   H30021656   1.191   1.173   7.217 -0.1600 -2.0541  0.9639
   39MOL   H30121657   1.197   1.345   7.066 -2.2595  0.1764  1.3392
   39MOL   H30221658   1.155   1.439   6.845  0.3727  0.0377  2.3226
   39MOL   H30321659   0.945   1.187   6.341  0.9710 -1.7024  2.6078
   39MOL   H30421660   0.976   1.353   6.390  1.7230 -0.5041  2.1490
   39MOL   H30521661   0.753   1.382   6.476 -3.1572 -1.1059  1.2261
   39MOL   H30621662   0.713   1.306   6.331 -2.3439  1.7957  2.1695
   39MOL   H30721663   0.962   1.065   6.728  2.2083 -0.8402 -0.7387
   39MOL   H30821664   0.926   0.892   6.907  3.3558 -1.8520 -0.5626
   39MOL   H30921665   0.981   0.804   7.135  2.4984 -0.2945 -0.0120
   39MOL   O31021666   0.670   1.062   6.299  0.7543  0.1106  0.2030
   39MOL   C31121667   0.654   1.083   6.419  0.4509 -0.2044 -0.0299
   39MOL   O31221668   0.695   1.188   6.490 -0.7382  1.0164 -0.0559
   39MOL   C31321669   0.585   0.982   6.508 -0.1667  0.1414  0.3209
   39MOL   C31421670   0.552   0.857   6.445 -0.4036  0.4048 -0.2463
   39MOL   C31521671   0.489   0.751   6.517 -0.2922 -0.7808  0.3559
   39MOL   C31621672   0.468   0.625   6.453 -0.8759  0.3056  0.6277
   39MOL   C31721673   0.407   0.524   6.529 -0.2186 -0.5052  0.4785
   39MOL   C31821674   0.395   0.538   6.673  0.0338  0.4899  0.1673
   39MOL   C31921675   0.349   0.419   6.758 -0.2901  0.5250  0.1961
   39MOL   O32021676   0.360   0.438   6.882 -0.7474  0.1187 -0.5289
   39MOL   C32121677   0.315   0.350   6.981  0.0954 -0.2708  0.0315
   39MOL   C32221678   0.177   0.395   7.031 -0.2851 -0.4861  0.3709
   39MOL   O32321679   0.299   0.321   6.713  0.5699  0.4486  0.0316
   39MOL   C32421680   0.409   0.668   6.730 -0.2552 -0.4161  0.3497
   39MOL   C32521681   0.464   0.772   6.658 -0.1158  0.0037  0.0002
   39MOL   C32621682   0.493   0.895   6.719  0.0563  0.2778  0.1614
   39MOL   C32721683   0.557   1.002   6.645 -0.0909 -0.7202  0.3192
   39MOL   H32821684   0.577   0.839   6.342 -0.4068  0.7379 -0.3060
   39MOL   H32921685   0.495   0.612   6.349  0.0640 -0.7351  0.9893
   39MOL   H33021686   0.397   0.431   6.475  1.5415 -0.5908  0.2610
   39MOL   H33121687   0.388   0.366   7.061 -0.2978 -0.2282  0.3866
   39MOL   H33221688   0.328   0.243   6.965  0.9709 -0.7455  3.4474
   39MOL   H33321689   0.169   0.348   7.129  0.4926 -0.8048  0.2816
   39MOL   H33421690   0.181   0.504   7.038 -2.1692 -0.5382  3.3615
   39MOL   H33521691   0.381   0.691   6.832  0.3116  0.9978  0.2064
   39MOL   H33621692   0.478   0.901   6.825  2.7859  0.5328  0.5668
   39MOL   H33721693   0.582   1.087   6.707  1.4282 -1.0085  0.1220
   39MOL   O33821694   8.214   0.220   7.096 -0.1075  0.5002 -0.6072
   39MOL   C33921695   8.239   0.256   6.983  0.6659 -0.1099  0.7783
   39MOL   O34021696   0.069   0.357   6.947 -0.4047  0.2771 -0.4673
   39MOL   C34121697   8.165   0.192   6.866  1.1778 -0.0751  0.1825
   39MOL   C34221698   8.053   0.107   6.891 -0.1759 -0.2488  0.1392
   39MOL   C34321699   7.987   0.040   6.787 -0.1426  0.4301  0.5439
   39MOL   C34421700   7.880   8.205   6.822  0.6359 -0.1779 -0.2523
   39MOL   C34521701   7.811   8.145   6.716  0.7658 -0.8701 -0.1707
   39MOL   C34621702   7.850   8.170   6.578  0.0470  0.5087 -0.8117
   39MOL   C34721703   7.760   8.127   6.471 -0.5752  0.4220  0.2581
   39MOL   O34821704   7.651   8.083   6.524  0.2951 -0.5726 -0.0506
   39MOL   C34921705   7.557   8.021   6.433  0.2801  0.5424 -0.3092
   39MOL   C35021706   7.481   8.110   6.327 -0.6111 -0.6747 -0.4241
   39MOL   O35121707   7.781   8.133   6.352 -1.3959 -0.1645  0.3324
   39MOL   C35221708   7.948   0.011   6.544 -0.2017 -1.0673  0.4485
   39MOL   C35321709   8.019   0.071   6.651 -0.1257 -0.5814  0.1669
   39MOL   C35421710   8.123   0.165   6.629 -0.3292  0.1356  0.7063
   39MOL   C35521711   8.200   0.221   6.733  0.0903  0.8207  0.2035
   39MOL   H35621712   8.013   0.091   6.990  1.9349 -1.4014  0.8202
   39MOL   H35721713   7.858   8.196   6.927  1.8585 -2.3887 -0.1458
   39MOL   H35821714   7.742   8.067   6.746  0.4707 -0.5442  0.0087
   39MOL   H35921715   7.476   7.973   6.488  0.7580  0.0357 -0.0401
   39MOL   H36021716   7.603   7.933   6.388  1.2008  0.3781  0.9178
   39MOL   H36121717   7.386   8.139   6.372  0.8206  0.3762  2.0488
   39MOL   H36221718   7.536   8.204   6.330 -0.7984 -0.4584 -3.1575
   39MOL   H36321719   7.967   0.031   6.440 -0.2735 -1.5186  0.3487
   39MOL   H36421720   8.154   0.186   6.527  0.9196  1.8684  1.4153
   39MOL   H36521721   0.027   0.295   6.711  0.7042  0.3559  0.7410
   39MOL   O36621722   7.330   7.903   6.251  0.4253  0.0143 -0.6410
   39MOL   C36721723   7.396   7.959   6.172  0.1133 -0.2350 -0.4978
   39MOL   O36821724   7.480   8.053   6.199  0.5616  0.2809 -0.2092
   39MOL   C36921725   7.390   7.924   6.025  0.0609 -0.0533  0.2125
   39MOL   C37021726   7.260   7.885   5.975 -0.1910 -0.4868  0.0856
   39MOL   C37121727   7.242   7.851   5.844  0.0134  0.2272  0.0643
   39MOL   C37221728   7.111   7.826   5.792  0.2775  0.4503 -0.1777
   39MOL   C37321729   7.102   7.779   5.659 -0.2659  0.5929  0.0670
   39MOL   C37421730   7.218   7.748   5.584  0.0445  0.1729 -0.3726
   39MOL   C37521731   7.193   7.678   5.455 -0.0470 -0.9429  0.1966
   39MOL   O37621732   7.272   7.715   5.353 -0.1509 -0.2897  0.4545
   39MOL   C37721733   7.278   7.639   5.227  0.5078 -0.2476  0.1208
   39MOL   C37821734   7.426   7.602   5.202  0.1660  0.1076  0.4772
   39MOL   O37921735   7.098   7.611   5.432  0.1372  0.0618 -0.1337
   39MOL   C38021736   7.341   7.795   5.629  0.2544 -0.1612  0.1502
   39MOL   C38121737   7.354   7.847   5.760  1.0192  0.3533 -0.2519
   39MOL   C38221738   7.485   7.886   5.807  0.0825  0.3468 -0.4607
   39MOL   C38321739   7.499   7.924   5.942  0.2268  0.4198  0.9887
   39MOL   H38421740   7.174   7.891   6.040  0.9285  1.8541  1.4331
   39MOL   H38521741   7.033   7.816   5.866  0.0986  0.2211 -0.3996
   39MOL   H38621742   7.009   7.738   5.624  1.6847 -2.8210 -1.3681
   39MOL   H38721743   7.236   7.716   5.162 -0.9336 -0.9409  0.2163
   39MOL   H38821744   7.200   7.563   5.220 -1.2280  1.2128  2.7881
   39MOL   H38921745   7.467   7.578   5.300  2.5797 -4.0677 -1.4200
   39MOL   H39021746   7.445   7.512   5.143  1.9767  0.1790  0.9145
   39MOL   H39121747   7.429   7.787   5.567 -1.9821 -0.2626 -3.0985
   39MOL   H39221748   7.569   7.888   5.740  2.2081  1.8773  2.1478
   39MOL   H39321749   7.599   7.948   5.975  0.6364  1.3697 -0.8523
   39MOL   O39421750   7.369   7.691   4.958 -0.2425  0.6717  0.4484
   39MOL   C39521751   7.476   7.731   5.010  1.1324  0.4861  0.1529
   39MOL   O39621752   7.510   7.699   5.139 -0.0764  0.5143 -0.1426
   39MOL   C39721753   7.583   7.810   4.947  0.7461 -0.2457  0.8561
   39MOL   C39821754   7.704   7.845   5.017 -0.0990 -0.1083  0.2020
   39MOL   C39921755   7.815   7.897   4.948  0.2567 -0.3808  0.7094
   39MOL   C40021756   7.933   7.929   5.019  0.1337 -0.1369  0.0358
   39MOL   C40121757   8.031   7.999   4.951 -0.0836  0.1893 -0.2604
   39MOL   C40221758   8.021   8.029   4.813 -0.1787 -0.3156  0.2152
   39MOL   C40321759   8.130   8.096   4.743  0.3293 -0.5913 -0.4223
   39MOL   O40421760   8.226   8.147   4.829  0.7903 -0.4792 -0.7824
   39MOL   C40521761   0.074   8.238   4.769 -0.6992 -0.9440  0.7526
   39MOL   C40621762   0.037   0.138   4.766  0.1712 -0.5066  0.0909
   39MOL   O40721763   8.136   8.115   4.623 -0.1266 -0.0757 -0.2524
   39MOL   C40821764   7.907   7.985   4.743  0.3181  0.8553 -0.0063
   39MOL   C40921765   7.795   7.920   4.807  0.6595  0.7166  0.1834
   39MOL   C41021766   7.682   7.875   4.734 -0.2447 -0.0951 -0.5239
   39MOL   C41121767   7.576   7.822   4.802  0.0681 -0.0895  0.4609
   39MOL   H41221768   7.712   7.804   5.117  0.2909 -2.2711 -0.6745
   39MOL   H41321769   7.945   7.909   5.125 -1.8253  0.3775  0.3661
   39MOL   H41421770   8.121   8.027   5.003  0.5233  1.3383 -1.8718
   39MOL   H41521771   0.116   8.211   4.672  0.6016 -0.3093  1.1270
   39MOL   H41621772   0.167   8.228   4.826  1.1085 -0.2762 -2.0153
   39MOL   H41721773   0.118   0.190   4.715 -0.8332  1.9362  0.8840
   39MOL   H41821774   8.197   0.148   4.704  0.1907 -1.7151 -0.1326
   39MOL   H41921775   7.906   7.994   4.636  0.7311 -0.7644 -0.1669
   39MOL   H42021776   7.668   7.900   4.630 -1.3492 -0.6291 -0.5027
   39MOL   H42121777   7.486   7.798   4.747  2.3684  0.6791 -3.8749
   39MOL   O42221778   0.231   0.222   4.957 -0.0144 -0.0737  0.1980
   39MOL   C42321779   0.109   0.215   4.989 -0.4377  0.2576 -0.0335
   39MOL   O42421780   0.011   0.185   4.900  0.4311 -0.2242 -0.4346
   39MOL   C42521781   0.064   0.231   5.129 -0.0413  0.1671  0.5692
   39MOL   C42621782   0.160   0.248   5.234  0.3452  0.4193 -0.1565
   39MOL   C42721783   0.122   0.286   5.361  0.1290  0.0734 -0.1143
   39MOL   C42821784   0.224   0.294   5.456  0.4343 -0.4224  0.3745
   39MOL   C42921785   0.190   0.318   5.589 -0.3325  0.1274  0.0649
   39MOL   C43021786   0.051   0.328   5.623 -0.4104 -0.3462 -1.0630
   39MOL   C43121787   0.002   0.365   5.761 -0.4104 -0.0480  0.0358
   39MOL   O43221788   0.095   0.344   5.853 -0.0581 -0.0071  0.1647
   39MOL   C43321789   0.079   0.374   5.987 -0.1674 -0.1080  0.0795
   39MOL   C43421790   0.076   0.526   6.007 -0.1822  0.0310  0.0263
   39MOL   O43521791   8.145   0.424   5.787  0.1550 -0.1298  0.4700
   39MOL   C43621792   8.198   0.320   5.524 -0.1672  0.1691  0.1630
   39MOL   C43721793   8.237   0.299   5.392 -0.8866 -1.1884  0.4787
   39MOL   C43821794   8.138   0.274   5.293 -0.3540 -0.1361  0.3070
   39MOL   C43921795   8.178   0.236   5.161 -0.0920 -0.0523  0.4649
   39MOL   H44021796   0.261   0.234   5.199 -0.0281 -1.1253 -0.6727
   39MOL   H44121797   0.326   0.271   5.427  0.5747  0.5708  0.0244
   39MOL   H44221798   0.267   0.335   5.663  0.8842  2.1462 -1.6029
   39MOL   H44321799   0.169   0.338   6.037  0.4561  1.0134 -0.2275
   39MOL   H44421800   8.238   0.322   6.022 -0.4060  0.6743  0.6380
   39MOL   H44521801   8.232   0.566   5.966  0.3427  0.6292 -0.6085
   39MOL   H44621802   0.079   0.548   6.113  2.5627  0.7193 -0.1511
   39MOL   H44721803   8.092   0.325   5.544  0.0684  1.1611  1.2764
   39MOL   H44821804   8.034   0.290   5.317  0.2665  1.0628  2.2496
   39MOL   H44921805   8.098   0.220   5.089 -0.3052 -0.2782  0.7531
   39MOL   O45021806   0.250   0.735   6.085 -0.3725 -0.7415  0.3039
   39MOL   C45121807   0.260   0.676   5.977  0.3470  0.4682 -0.2645
   39MOL   O45221808   0.177   0.582   5.928 -0.5004 -0.3046  0.1688
   39MOL   C45321809   0.371   0.704   5.888  0.0994  0.2636 -0.3909
   39MOL   C45421810   0.454   0.816   5.916 -0.3582 -0.0933 -0.0577
   39MOL   C45521811   0.559   0.841   5.825 -0.5868  0.3655 -0.7638
   39MOL   C45621812   0.635   0.953   5.852 -0.2335 -0.5416  0.0077
   39MOL   C45721813   0.756   0.976   5.774 -0.2522  0.0425 -0.1463
   39MOL   C45821814   0.782   0.896   5.661  0.7573 -0.2302  0.0355
   39MOL   C45921815   0.914   0.900   5.592 -0.7550 -0.5112 -0.4500
   39MOL   O46021816   0.996   1.010   5.621  0.4778 -0.8842  0.2228
   39MOL   C46121817   1.135   1.001   5.584  0.6762 -0.6963 -0.1390
   39MOL   C46221818   1.202   0.886   5.657 -0.5250  0.7902 -0.4856
   39MOL   O46321819   0.953   0.813   5.510  0.6457  0.0098  0.0110
   39MOL   C46421820   0.686   0.801   5.624  0.4045  0.6240  0.4732
   39MOL   C46521821   0.575   0.765   5.706  0.1159 -0.4296 -0.6961
   39MOL   C46621822   0.494   0.657   5.683 -0.5667  0.1906 -0.1003
   39MOL   C46721823   0.389   0.632   5.765 -0.2230 -0.8035  0.1817
   39MOL   H46821824   0.441   0.875   6.006  0.0082  2.4087 -1.6090
   39MOL   H46921825   0.629   0.989   5.953  0.1406 -0.4257 -0.0111
   39MOL   H47021826   0.834   1.044   5.803 -0.3350 -0.5908  1.6506
   39MOL   H47121827   1.188   1.090   5.618  1.9432 -0.6024 -2.2743
   39MOL   H47221828   1.149   0.986   5.477  0.6203 -1.1327 -0.0858
   39MOL   H47321829   1.167   0.791   5.618  1.2202 -0.5931  1.2431
   39MOL   H47421830   1.307   0.885   5.629 -0.4520 -2.5077 -0.2873
   39MOL   H47521831   0.696   0.734   5.540  1.7013  0.8137  0.4587
   39MOL   H47621832   0.511   0.595   5.596  1.8490  2.3870 -1.2862
   39MOL   H47721833   0.323   0.549   5.746 -0.0442 -0.5045 -1.8645
   39MOL   O47821834   1.310   1.070   5.823 -0.4574 -0.6360 -0.5253
   39MOL   C47921835   1.234   0.985   5.872 -0.7406 -0.1166 -0.0018
   39MOL   O48021836   1.183   0.884   5.800  0.5766 -0.6482  0.2271
   39MOL   C48121837   1.211   0.977   6.023  0.6251  0.2912  0.5018
   39MOL   C48221838   1.320   1.005   6.111  0.3430  0.4225  0.4711
   39MOL   C48321839   1.302   0.987   6.247  0.6488  0.3973 -0.0333
   39MOL   C48421840   1.407   1.005   6.338  0.0855  0.0272  0.2605
   39MOL   C48521841   1.389   0.976   6.476  0.1015  0.5400  0.4976
   39MOL   C48621842   1.265   0.925   6.520 -0.3224 -0.3040  0.1227
   39MOL   C48721843   1.252   0.887   6.666 -0.3102  0.1920  0.7668
   39MOL   O48821844   1.352   0.938   6.740  0.0209 -0.2575  0.0511
   39MOL   C48921845   1.359   0.914   6.876  0.1353  0.0077  0.6030
   39MOL   C49021846   1.441   0.786   6.897 -0.9917 -0.3933 -0.2414
   39MOL   O49121847   1.156   0.831   6.704  0.3066 -0.4764 -0.0038
   39MOL   C49221848   1.155   0.911   6.430 -0.4292  0.4386  0.7197
   39MOL   C49321849   1.176   0.938   6.289  0.0203 -0.3999  0.1416
   39MOL   C49421850   1.066   0.919   6.206  0.3810  0.3753 -0.3494
   39MOL   C49521851   1.085   0.938   6.067 -0.4018  0.0385 -0.9295
   39MOL   H49621852   1.415   1.033   6.069  0.0822 -0.6484 -0.8531
   39MOL   H49721853   1.504   1.044   6.312  0.9100 -2.0325  0.1656
   39MOL   H49821854   1.473   0.985   6.543  0.3036  0.5231  0.2460
   39MOL   H49921855   1.263   0.909   6.927  0.4921 -0.3066  1.2461
   39MOL   H50021856   1.410   1.006   6.903 -0.1397  0.4883 -0.4864
   39MOL   H50121857   1.368   0.707   6.909 -0.9538 -0.1805  1.5148
   39MOL   H50221858   1.482   0.756   6.801 -1.6696  0.0750 -0.6878
   39MOL   H50321859   1.067   0.858   6.463 -2.3988  1.6755 -2.3661
   39MOL   H50421860   0.963   0.897   6.229 -0.3834  1.4270 -2.6609
   39MOL   H50521861   1.004   0.933   5.996 -0.6301  1.6086 -0.7917
   39MOL   O50621862   1.376   0.772   7.152  0.3512 -0.4818 -0.4346
   39MOL   C50721863   1.496   0.792   7.123 -0.1686 -0.3680  0.2856
   39MOL   O50821864   1.540   0.791   6.995  0.0785 -0.1535  0.5366
   39MOL   C50921865   1.612   0.812   7.218 -0.7051  0.0705  0.0189
   39MOL   C51021866   1.581   0.815   7.356 -0.4455 -0.1188 -0.0116
   39MOL   C51121867   1.678   0.819   7.456 -0.1168 -0.1710 -0.5920
   39MOL   C51221868   1.644   0.815   7.595 -0.5876 -0.5511  0.5989
   39MOL   C51321869   1.748   0.814   7.691 -0.2803 -0.5127 -0.0587
   39MOL   C51421870   1.885   0.824   7.651  0.3313 -0.8593 -0.5614
   39MOL   C51521871   2.000   0.824   7.749 -0.1762  0.6388  0.4022
   39MOL   O51621872   1.962   0.841   7.881 -0.0994  0.1465 -0.5202
   39MOL   C51721873   2.065   0.815   7.977 -0.9213  0.2522 -0.2742
   39MOL   C51821874   2.028   0.705   8.075 -0.2053  0.0216 -0.9547
   39MOL   O51921875   2.113   0.816   7.708 -0.6955  0.2519  0.4419
   39MOL   C52021876   1.915   0.832   7.513 -0.0996  0.3936  0.8238
   39MOL   C52121877   1.814   0.825   7.418 -0.0694 -0.4988  0.6284
   39MOL   C52221878   1.843   0.823   7.281 -0.3941  0.1617  0.3568
   39MOL   C52321879   1.747   0.818   7.179  0.4606 -0.1152 -0.0514
   39MOL   H52421880   1.476   0.812   7.379 -0.4588 -1.7745 -0.2252
   39MOL   H52521881   1.542   0.817   7.630 -1.1096  0.6942 -0.9112
   39MOL   H52621882   1.725   0.814   7.797 -1.3675 -0.1721 -0.2905
   39MOL   H52721883   2.078   0.902   8.041 -1.8882 -0.5516  1.0387
   39MOL   H52821884   2.161   0.793   7.931 -1.4971 -2.1041 -0.4331
   39MOL   H52921885   1.976   0.620   8.030 -1.7173  0.6411 -0.3882
   39MOL   H53021886   2.112   0.659   8.128  0.6427  2.2621 -0.2888
   39MOL   H53121887   2.020   0.844   7.492 -0.4749  2.2948 -0.0909
   39MOL   H53221888   1.947   0.824   7.254 -0.7978  0.4957 -1.2840
   39MOL   H53321889   1.774   0.806   7.075 -1.0257  0.9274 -0.5880
   39MOL   O53421890   2.092   0.759   0.099  0.4584 -0.4460 -0.2325
   39MOL   C53521891   1.976   0.773   0.061  0.0724 -0.2082  0.6104
   39MOL   O53621892   1.939   0.751   8.176 -0.3776 -0.1095 -0.8797
   39MOL   C53721893   1.864   0.806   0.145  0.4544 -0.0354 -0.4785
   39MOL   C53821894   1.746   0.868   0.101 -0.3458 -0.1403 -0.1075
   39MOL   C53921895   1.643   0.894   0.191  0.2771  0.7973  0.7164
   39MOL   C54021896   1.515   0.948   0.144 -0.1056 -0.3992  0.9600
   39MOL   C54121897   1.418   0.982   0.244 -0.2471 -0.8188 -0.1132
   39MOL   C54221898   1.436   0.938   0.377  0.2778  0.1542  0.2715
   39MOL   C54321899   1.334   0.955   0.488 -0.2993  0.3109  0.0369
   39MOL   O54421900   1.210   0.965   0.440 -0.0251 -0.0382 -0.2660
   39MOL   C54521901   1.088   0.954   0.524 -0.1031 -0.0175  0.6969
   39MOL   C54621902   0.977   0.967   0.430 -0.1065 -0.2376  0.1881
   39MOL   O54721903   1.365   0.955   0.612  0.2717  0.6150  0.0450
   39MOL   C54821904   1.559   0.872   0.412  0.1337  0.2362 -0.3244
   39MOL   C54921905   1.662   0.851   0.325 -0.1730 -0.3790  1.2045
   39MOL   C55021906   1.783   0.795   0.372 -0.5324 -0.1277  0.2587
   39MOL   C55121907   1.884   0.766   0.279  0.0441 -0.5295  0.2476
   39MOL   H55221908   1.728   0.892   8.246  1.1207 -1.1997 -0.6280
   39MOL   H55321909   1.512   0.986   0.043  2.4593 -0.8534  0.6618
   39MOL   H55421910   1.339   1.051   0.219  0.0098  0.1997  1.8425
   39MOL   H55521911   1.089   1.028   0.605 -0.3556  4.0367 -2.7942
   39MOL   H55621912   1.089   0.850   0.553  0.6636 -0.0252  0.6581
   39MOL   H55721913   0.983   0.895   0.348  1.3472  0.0323  0.0538
   39MOL   H55821914   0.965   1.072   0.400 -0.2210  0.1897  1.6942
   39MOL   H55921915   1.573   0.827   0.509  0.4867 -0.1190 -0.5398
   39MOL   H56021916   1.805   0.773   0.476  2.1070  0.4767 -0.1281
   39MOL   H56121917   1.977   0.730   0.320  0.1995  0.6353  0.9505
   39MOL   H56221918   0.883   0.953   0.484 -1.0212 -1.3122 -1.6054
   40MOL     O121919   7.974   5.907   0.508  0.0317 -0.5837 -0.3697
   40MOL     C221920   8.002   5.937   0.622  0.7107  0.0950  0.0049
   40MOL     O321921   7.975   6.062   0.675 -0.2308 -0.3316 -0.5165
   40MOL     C421922   8.065   5.844   0.722  0.0528  0.1264  0.2967
   40MOL     C521923   8.127   5.900   0.835 -0.1985 -0.0461 -0.4062
   40MOL     C621924   8.163   5.807   0.935  0.5521 -0.4687 -0.1522
   40MOL     C721925   8.213   5.855   1.061  0.3356 -0.1851  0.5286
   40MOL     C821926   0.020   5.762   1.155  0.1276 -0.4154  0.5923
   40MOL     C921927   0.009   5.623   1.137 -0.0616  1.0716 -0.2857
   40MOL    C1021928   0.063   5.524   1.233  0.2946  0.2379 -0.8726
   40MOL    O1121929   0.035   5.563   1.363  0.4626  0.3913  0.2793
   40MOL    C1221930   0.106   5.500   1.472 -0.1567  0.2298 -0.8183
   40MOL    C1321931   0.205   5.603   1.539 -0.7174 -0.2161  0.4690
   40MOL    O1421932   0.131   5.424   1.206 -0.6207 -0.1054 -0.0268
   40MOL    C1521933   8.192   5.573   1.019 -0.9357  0.7686 -0.1039
   40MOL    C1621934   8.152   5.667   0.917  0.1965  0.4775 -0.4997
   40MOL    C1721935   8.090   5.615   0.798  0.0384  0.6154 -0.3621
   40MOL    C1821936   8.050   5.702   0.699  0.7974 -0.3117  0.0558
   40MOL    H1921937   8.135   6.005   0.858 -1.0248 -0.0705  0.0069
   40MOL    H2021938   8.234   5.959   1.079 -0.9284  0.1013  0.3809
   40MOL    H2121939   0.072   5.798   1.242  2.3892 -2.7206  0.2527
   40MOL    H2221940   0.024   5.476   1.539 -0.0896  0.7780 -0.5353
   40MOL    H2321941   0.165   5.411   1.450 -1.1778 -0.7279  0.2972
   40MOL    H2421942   0.145   5.671   1.599  0.8233  0.1844  1.5896
   40MOL    H2521943   0.264   5.557   1.618  0.4288 -0.9583 -0.7985
   40MOL    H2621944   8.176   5.468   1.001 -0.8111  1.1441 -2.5237
   40MOL    H2721945   8.064   5.510   0.788  0.1412  0.2563  2.5938
   40MOL    H2821946   7.998   5.651   0.620  1.4549 -0.6883 -0.1381
   40MOL    H2921947   7.914   6.111   0.621 -0.9089 -2.1443 -1.4443
   40MOL    O3021948   0.345   5.822   1.550  0.1309 -0.5423 -0.0850
   40MOL    C3121949   0.346   5.760   1.443 -0.2314  0.0701  0.1999
   40MOL    O3221950   0.275   5.652   1.429  0.3538 -0.2252  0.1860
   40MOL    C3321951   0.409   5.800   1.314 -0.2911  0.3300  0.4984
   40MOL    C3421952   0.491   5.915   1.301  0.5799 -0.9640  0.0905
   40MOL    C3521953   0.550   5.954   1.177 -0.5961  0.1122  0.0272
   40MOL    C3621954   0.635   6.065   1.167 -0.0706  0.4522  0.7600
   40MOL    C3721955   0.691   6.098   1.042 -0.2483  0.3142  0.5739
   40MOL    C3821956   0.637   6.041   0.919  0.6479  0.0514 -0.8262
   40MOL    C3921957   0.703   6.077   0.791 -0.0840 -0.4512 -0.5124
   40MOL    O4021958   0.652   6.010   0.693 -0.2508  0.0794  0.1093
   40MOL    C4121959   0.698   6.026   0.560  0.6854  0.3950 -0.0728
   40MOL    C4221960   0.581   6.049   0.455 -0.4263  0.0429 -0.0978
   40MOL    O4321961   0.795   6.162   0.777  0.5714 -0.2281  0.5937
   40MOL    C4421962   0.548   5.929   0.931 -0.3923 -0.6915 -0.3525
   40MOL    C4521963   0.514   5.884   1.059 -0.3010  0.7974 -0.3215
   40MOL    C4621964   0.420   5.776   1.071  0.5230 -0.4218  0.5272
   40MOL    C4721965   0.370   5.736   1.197 -0.2869  0.5924  0.1620
   40MOL    H4821966   0.506   5.974   1.390  0.1779 -0.9290  0.1392
   40MOL    H4921967   0.662   6.117   1.258  1.1649  0.9351  0.1344
   40MOL    H5021968   0.767   6.174   1.044 -1.1438  1.3306 -1.7619
   40MOL    H5121969   0.757   5.936   0.547  0.8292  0.1454  2.1349
   40MOL    H5221970   0.756   6.119   0.553 -0.5064  1.0481 -1.4861
   40MOL    H5321971   0.504   6.108   0.504 -0.2901 -1.6906  2.3036
   40MOL    H5421972   0.621   6.095   0.365  1.0300  0.9172  0.9603
   40MOL    H5521973   0.519   5.888   0.835  0.9667  0.9602 -1.5078
   40MOL    H5621974   0.378   5.738   0.979 -0.5875  2.3212 -0.1468
   40MOL    H5721975   0.288   5.666   1.192 -0.7356  1.1931 -1.3648
   40MOL    O5821976   0.391   5.975   0.263  0.0292  0.5242  0.2203
   40MOL    C5921977   0.453   5.889   0.325 -0.4147  0.0615 -0.1098
   40MOL    O6021978   0.531   5.913   0.431 -0.7580 -0.7324  0.7570
   40MOL    C6121979   0.448   5.748   0.284 -0.2373  0.6830 -0.1854
   40MOL    C6221980   0.467   5.642   0.371 -0.2139  0.0470 -0.0103
   40MOL    C6321981   0.440   5.504   0.344  0.4660 -0.1560  0.6502
   40MOL    C6421982   0.461   5.396   0.435  0.8309  0.1651 -0.1030
   40MOL    C6521983   0.440   5.263   0.394 -0.1296  0.0990 -0.2345
   40MOL    C6621984   0.399   5.237   0.257 -0.0939  0.0471  0.0052
   40MOL    C6721985   0.392   5.097   0.205  0.0735 -0.2826  0.1038
   40MOL    O6821986   0.444   5.078   0.088 -0.6028 -0.1419 -0.4689
   40MOL    C6921987   0.457   4.956   0.017  0.0380  0.3967  0.3315
   40MOL    C7021988   0.316   4.924   8.206 -0.1984 -0.3132  0.7121
   40MOL    O7121989   0.341   5.005   0.272  0.0221 -0.7526  0.2098
   40MOL    C7221990   0.380   5.343   0.169 -0.0010  0.0225  0.1347
   40MOL    C7321991   0.396   5.477   0.214 -0.5178  0.0715  0.5814
   40MOL    C7421992   0.372   5.579   0.119  0.1824  0.0843  0.4784
   40MOL    C7521993   0.398   5.718   0.154 -0.3331  0.2509  0.0380
   40MOL    H7621994   0.504   5.664   0.470  2.5646 -0.7423 -0.8394
   40MOL    H7721995   0.503   5.426   0.530  1.0614 -0.2650 -0.0714
   40MOL    H7821996   0.452   5.179   0.461  0.5197  0.7187  0.4359
   40MOL    H7921997   0.493   4.881   0.087 -0.6853  1.4117  1.8137
   40MOL    H8021998   0.531   4.972   8.188 -0.5154 -0.5907 -0.4052
   40MOL    H8121999   0.287   4.819   8.203  0.2763 -0.4313  0.0423
   40MOL    H8222000   0.231   4.951   0.020 -1.0505 -0.4282 -0.3617
   40MOL    H8322001   0.349   5.331   0.066  3.0689  0.4812 -0.9002
   40MOL    H8422002   0.349   5.560   0.015  0.2699  1.8310  0.1239
   40MOL    H8522003   0.389   5.800   0.084 -1.1392 -0.1484 -0.3330
   40MOL    O8622004   0.432   4.840   7.955  0.1978 -0.5618  0.3040
   40MOL    C8722005   0.331   4.913   7.962 -0.5989 -0.1305  0.8427
   40MOL    O8822006   0.296   4.976   8.074  0.0530 -0.2955 -0.4880
   40MOL    C8922007   0.238   4.937   7.849 -0.4118 -0.2950 -0.8967
   40MOL    C9022008   0.133   5.032   7.858 -0.2129  0.5612  0.7551
   40MOL    C9122009   0.043   5.056   7.751 -0.1205 -0.8725  0.3667
   40MOL    C9222010   8.191   5.160   7.760 -1.6700 -0.0856 -0.3715
   40MOL    C9322011   8.124   5.183   7.641 -0.7267 -0.1279  0.2856
   40MOL    C9422012   8.137   5.096   7.530  0.3069  0.4885  0.0951
   40MOL    C9522013   8.038   5.105   7.428  0.0996 -0.0218 -0.0768
   40MOL    O9622014   8.069   5.040   7.318 -0.5229  0.1098  0.1813
   40MOL    C9722015   7.973   5.023   7.218  0.3045 -0.7604  0.0659
   40MOL    C9822016   8.009   5.115   7.101  0.2527  0.8712 -0.4783
   40MOL    O9922017   7.932   5.171   7.452  0.2547 -0.0620  0.0890
   40MOL   C10022018   8.235   5.000   7.525  0.1475 -0.8455 -0.0801
   40MOL   C10122019   0.073   4.986   7.631 -0.3893 -0.3830 -0.7302
   40MOL   C10222020   0.179   4.895   7.618 -0.2968 -0.2579 -0.7520
   40MOL   C10322021   0.260   4.864   7.734  0.2712  0.2828  0.6363
   40MOL   H10422022   0.125   5.089   7.950 -0.4597 -1.0101  1.7199
   40MOL   H10522023   8.164   5.210   7.852  0.3552  0.8053 -0.2247
   40MOL   H10622024   8.047   5.258   7.644 -2.0167 -1.4511  1.0335
   40MOL   H10722025   7.875   5.051   7.255  0.1861  0.7290 -1.3160
   40MOL   H10822026   7.960   4.923   7.177 -1.6263 -0.2072 -0.7459
   40MOL   H10922027   7.916   5.164   7.074 -0.7795 -1.1968 -0.7972
   40MOL   H11022028   8.079   5.195   7.127  0.1317  0.0623  2.5773
   40MOL   H11122029   0.001   4.939   7.437 -1.1277 -0.1731 -0.7753
   40MOL   H11222030   0.200   4.836   7.530 -0.9576 -0.1374 -0.9965
   40MOL   H11322031   0.338   4.790   7.723 -0.3553 -0.5726  1.8666
   40MOL   O11422032   7.997   5.203   6.835 -0.0979 -0.7685 -0.1758
   40MOL   C11522033   8.046   5.092   6.862  0.0735 -0.4395  0.5735
   40MOL   O11622034   8.050   5.041   6.987 -0.0180  0.1248  0.0334
   40MOL   C11722035   8.108   4.995   6.763 -0.0088 -0.1551 -0.2065
   40MOL   C11822036   8.160   4.872   6.801  0.7870 -1.1577  0.3412
   40MOL   C11922037   8.227   4.789   6.704  0.3423 -0.0952 -0.5659
   40MOL   C12022038   0.034   4.669   6.748 -0.4645  0.0742  0.0352
   40MOL   C12122039   0.094   4.582   6.661  0.7219 -0.1361  0.4818
   40MOL   C12222040   0.110   4.618   6.522  0.5683 -0.3393  0.1510
   40MOL   C12322041   0.161   4.510   6.427  0.5185 -0.0418  0.5160
   40MOL   O12422042   0.168   4.558   6.293 -0.0631 -0.5587  0.7559
   40MOL   C12522043   0.201   4.465   6.182 -0.2571 -0.2450 -0.1543
   40MOL   C12622044   0.355   4.438   6.185 -0.3930 -0.2765 -0.4883
   40MOL   O12722045   0.177   4.396   6.459 -0.7122 -0.1851 -0.0217
   40MOL   C12822046   0.059   4.744   6.482  0.2476 -0.3290 -0.0803
   40MOL   C12922047   8.235   4.827   6.573  0.0538 -0.4673 -0.4763
   40MOL   C13022048   8.180   4.952   6.533  0.3552 -0.6972 -0.0611
   40MOL   C13122049   8.115   5.030   6.630  0.9151  0.5903  0.3331
   40MOL   H13222050   8.148   4.835   6.902  3.0699 -1.3397  0.5796
   40MOL   H13322051   0.035   4.641   6.852  1.1595 -2.9352 -0.7314
   40MOL   H13422052   0.120   4.484   6.699  3.2810  0.5165  0.4581
   40MOL   H13522053   0.192   4.528   6.093  1.7658 -1.2574 -1.0958
   40MOL   H13622054   0.141   4.374   6.175 -1.4891  0.1212  4.2741
   40MOL   H13722055   0.377   4.401   6.085 -1.8908  0.6814 -1.1800
   40MOL   H13822056   0.414   4.526   6.208 -1.5339 -0.0492  1.7643
   40MOL   H13922057   0.071   4.779   6.380 -0.2814 -0.5948 -0.2368
   40MOL   H14022058   8.181   4.993   6.433  0.8306 -0.4124  0.0624
   40MOL   H14122059   8.088   5.130   6.599  1.4992  1.0104  1.1631
   40MOL   O14222060   0.608   4.355   6.209  0.3487  0.1791 -0.2696
   40MOL   C14322061   0.524   4.312   6.287 -0.1654 -0.3035  0.1033
   40MOL   O14422062   0.395   4.350   6.283  0.2703  0.3210 -0.2028
   40MOL   C14522063   0.557   4.222   6.401  0.2561  0.4350 -0.4204
   40MOL   C14622064   0.689   4.173   6.403 -0.3151  0.1351  0.1801
   40MOL   C14722065   0.729   4.071   6.492 -0.1701  0.1069  0.2868
   40MOL   C14822066   0.859   4.017   6.479  0.1687 -0.4692  0.0998
   40MOL   C14922067   0.907   3.920   6.569  0.2038 -0.2470  0.3275
   40MOL   C15022068   0.816   3.875   6.668 -0.0414  1.1409 -0.5986
   40MOL   C15122069   0.857   3.770   6.767  0.2509 -0.2941 -0.5318
   40MOL   O15222070   0.756   3.735   6.849  0.1830  0.3371  0.4458
   40MOL   C15322071   0.775   3.655   6.963 -0.0597 -0.0565 -1.2580
   40MOL   C15422072   0.702   3.710   7.083  0.2152 -0.8061  0.4689
   40MOL   O15522073   0.974   3.731   6.774  0.6475  0.6033 -0.0145
   40MOL   C15622074   0.680   3.921   6.677 -0.1400 -0.0818  0.0781
   40MOL   C15722075   0.638   4.023   6.591  0.5052 -0.6208  1.0368
   40MOL   C15822076   0.501   4.066   6.588 -0.7215 -0.1165 -0.3313
   40MOL   C15922077   0.463   4.162   6.487  0.4414  0.9272  0.3261
   40MOL   H16022078   0.757   4.218   6.332 -2.2592 -0.7809 -2.3066
   40MOL   H16122079   0.916   4.054   6.395  0.4802 -0.7175  0.2008
   40MOL   H16222080   1.002   3.871   6.554 -1.4316 -2.9018 -1.6778
   40MOL   H16322081   0.884   3.658   6.970 -0.0836  0.2762 -0.9887
   40MOL   H16422082   0.730   3.556   6.960 -0.0260 -0.0648 -1.4979
   40MOL   H16522083   0.601   3.668   7.087 -0.0193 -0.3538 -0.6852
   40MOL   H16622084   0.753   3.678   7.174 -0.5382 -1.6024  0.6216
   40MOL   H16722085   0.604   3.881   6.742 -0.2558  1.2505  0.7785
   40MOL   H16822086   0.420   4.032   6.650  1.5153 -0.2056  2.6419
   40MOL   H16922087   0.359   4.189   6.484 -0.2242 -1.6799 -0.8351
   40MOL   O17022088   0.676   3.879   7.305  0.2597 -0.1439  0.4631
   40MOL   C17122089   0.694   3.928   7.189 -0.6071 -0.3990  0.1151
   40MOL   O17222090   0.707   3.854   7.075 -0.0032 -0.0557 -0.2447
   40MOL   C17322091   0.695   4.079   7.157  0.1822  0.3209 -0.4648
   40MOL   C17422092   0.709   4.169   7.266  0.1227  0.5252  0.0148
   40MOL   C17522093   0.705   4.311   7.243 -0.7490 -0.1099  0.3840
   40MOL   C17622094   0.723   4.400   7.354 -0.2292 -0.1748 -0.6894
   40MOL   C17722095   0.716   4.537   7.332  0.3904  0.2887 -0.2001
   40MOL   C17822096   0.701   4.590   7.198  0.5514 -0.6067  0.0944
   40MOL   C17922097   0.702   4.736   7.169  0.2537  0.4993  0.0057
   40MOL   O18022098   0.654   4.810   7.260  0.3787  0.3608  0.1262
   40MOL   C18122099   0.639   4.950   7.247 -0.5850  0.0599  0.3934
   40MOL   C18222100   0.513   5.015   7.177 -0.3749 -0.7719  0.4066
   40MOL   O18322101   0.733   4.783   7.060 -0.2805 -0.2485 -0.2141
   40MOL   C18422102   0.685   4.496   7.095  0.8272 -0.2696  0.0369
   40MOL   C18522103   0.683   4.360   7.111  0.2273  0.0036  0.6486
   40MOL   C18622104   0.665   4.267   7.008 -0.5101  0.2758  0.3419
   40MOL   C18722105   0.674   4.125   7.022 -0.0733  0.0935 -0.3225
   40MOL   H18822106   0.718   4.132   7.367  0.6416 -0.0496 -0.2429
   40MOL   H18922107   0.752   4.366   7.452 -2.2136 -0.2410 -0.1033
   40MOL   H19022108   0.718   4.602   7.418 -3.9302  1.4333 -0.8151
   40MOL   H19122109   0.722   4.977   7.181 -1.5284  1.1201 -0.3731
   40MOL   H19222110   0.659   4.985   7.348  0.2722  0.0950  0.2147
   40MOL   H19322111   0.484   4.958   7.089  1.0189 -0.3831 -0.3287
   40MOL   H19422112   0.435   5.013   7.253 -0.9231 -1.4205 -0.1738
   40MOL   H19522113   0.671   4.534   6.995 -0.0263  1.6079  0.8635
   40MOL   H19622114   0.623   4.314   6.921  1.7429  1.4518 -0.1660
   40MOL   H19722115   0.663   4.052   6.944 -1.2581 -2.1267  1.8580
   40MOL   O19822116   0.520   5.232   7.336  0.4893 -0.1094  0.4515
   40MOL   C19922117   0.563   5.242   7.219  0.0612 -0.1475  0.4258
   40MOL   O20022118   0.561   5.139   7.133 -0.2511 -0.4308  0.0167
   40MOL   C20122119   0.601   5.371   7.157  0.0397  0.2580  0.1237
   40MOL   C20222120   0.564   5.483   7.226  0.0510  0.1055 -0.1080
   40MOL   C20322121   0.603   5.612   7.176 -0.6402 -0.5431 -0.6962
   40MOL   C20422122   0.563   5.728   7.249  0.0144 -0.0117  0.7314
   40MOL   C20522123   0.577   5.855   7.188  0.1268 -0.4825 -0.1707
   40MOL   C20622124   0.646   5.864   7.065 -0.6836 -0.0319  0.6516
   40MOL   C20722125   0.661   5.998   7.013  0.0900 -0.7983  0.2841
   40MOL   O20822126   0.720   5.998   6.888  0.4641 -0.1138  0.0169
   40MOL   C20922127   0.678   6.107   6.800  0.1258 -0.1916 -0.0293
   40MOL   C21022128   0.522   6.116   6.772 -0.1512 -0.0281 -0.6270
   40MOL   O21122129   0.635   6.100   7.071 -0.8101  0.6258  0.4532
   40MOL   C21222130   0.709   5.750   7.002  0.4111 -0.6501 -0.1069
   40MOL   C21322131   0.677   5.624   7.051  0.6420 -0.1434 -0.4397
   40MOL   C21422132   0.714   5.499   6.982 -0.7324  0.0668  0.2492
   40MOL   C21522133   0.671   5.375   7.033  0.7135 -0.7992 -0.8306
   40MOL   H21622134   0.506   5.482   7.317 -0.8259 -0.1623 -0.6648
   40MOL   H21722135   0.507   5.719   7.341 -1.5573  0.7068 -0.1446
   40MOL   H21822136   0.553   5.947   7.238  1.5604  0.0050 -0.3501
   40MOL   H21922137   0.720   6.083   6.703 -0.8659 -1.2893 -0.2128
   40MOL   H22022138   0.721   6.202   6.829 -1.2211  0.9134 -1.5926
   40MOL   H22122139   0.462   6.150   6.857  1.6899  0.8524  0.3581
   40MOL   H22222140   0.521   6.195   6.697 -0.2584 -2.1561 -2.9079
   40MOL   H22322141   0.783   5.767   6.926  1.1163 -2.6722  0.1115
   40MOL   H22422142   0.777   5.496   6.894 -1.2955 -1.6133 -0.1303
   40MOL   H22522143   0.696   5.287   6.976  0.3969 -0.0273 -2.1878
   40MOL   O22622144   0.418   6.059   6.516  0.0245  1.0448  0.5521
   40MOL   C22722145   0.426   5.973   6.609  0.2644  0.5115  0.7321
   40MOL   O22822146   0.479   5.986   6.735  0.0960 -0.4774 -0.0586
   40MOL   C22922147   0.378   5.827   6.600  0.0626 -0.0110  0.3292
   40MOL   C23022148   0.407   5.735   6.707  0.1362  0.2394  1.0712
   40MOL   C23122149   0.375   5.603   6.692  0.7935  0.1926  0.1239
   40MOL   C23222150   0.396   5.516   6.807 -0.3107 -0.5016  0.1425
   40MOL   C23322151   0.355   5.381   6.791 -0.5492 -0.3316  0.0521
   40MOL   C23422152   0.296   5.337   6.670  0.5459  0.3015  0.5533
   40MOL   C23522153   0.254   5.194   6.654 -0.7212  0.1315 -0.6547
   40MOL   O23622154   0.302   5.114   6.744 -0.0555  0.2282 -0.0997
   40MOL   C23722155   0.294   4.971   6.733 -0.4391 -0.3516  0.4579
   40MOL   C23822156   0.410   4.909   6.810 -0.7987  0.8167 -0.1680
   40MOL   O23922157   0.176   5.155   6.565 -0.5193 -0.0913  0.4502
   40MOL   C24022158   0.267   5.426   6.566  0.2509 -0.4295  0.0553
   40MOL   C24122159   0.298   5.564   6.577 -0.1921  0.4865  0.0499
   40MOL   C24222160   0.252   5.658   6.484  0.1278  0.4308 -0.0316
   40MOL   C24322161   0.300   5.790   6.491  0.3537 -1.0369 -0.0122
   40MOL   H24422162   0.481   5.764   6.780  0.5580  2.5837 -0.2689
   40MOL   H24522163   0.447   5.554   6.894  1.8171 -1.0144 -0.8216
   40MOL   H24622164   0.384   5.309   6.866  2.6343 -0.1389 -0.8924
   40MOL   H24722165   0.298   4.940   6.629  0.2726 -0.0055  0.3807
   40MOL   H24822166   0.205   4.936   6.785 -0.9671  0.5969  0.2065
   40MOL   H24922167   0.495   4.900   6.743 -0.5034  3.1211 -0.1719
   40MOL   H25022168   0.440   4.977   6.890 -0.3852  1.1655 -0.6138
   40MOL   H25122169   0.216   5.400   6.474  2.6420 -0.7017 -1.2373
   40MOL   H25222170   0.186   5.631   6.403 -0.6159  1.1896  0.3081
   40MOL   H25322171   0.265   5.865   6.421 -1.4600 -1.2468  0.6517
   40MOL   O25422172   0.409   4.673   6.704  0.4240  0.8221  0.1816
   40MOL   C25522173   0.387   4.676   6.825  0.3482  0.2274 -0.3979
   40MOL   O25622174   0.383   4.797   6.884  0.3162  0.1146 -0.0206
   40MOL   C25722175   0.361   4.563   6.915 -0.2585 -0.7465  0.3959
   40MOL   C25822176   0.354   4.438   6.856 -0.3883 -0.0337  0.1660
   40MOL   C25922177   0.337   4.322   6.935  0.6576  0.0744  0.4029
   40MOL   C26022178   0.332   4.195   6.881 -0.4509 -0.1490 -0.3414
   40MOL   C26122179   0.326   4.084   6.958  0.1418 -0.9668  0.0740
   40MOL   C26222180   0.317   4.092   7.102  0.2130 -0.3379 -0.6713
   40MOL   C26322181   0.321   3.966   7.175 -0.4900 -0.7178  0.4174
   40MOL   O26422182   0.347   3.986   7.305  0.0894 -0.3615 -0.1271
   40MOL   C26522183   0.347   3.870   7.389 -0.2205  0.0349  0.0729
   40MOL   C26622184   0.337   3.924   7.534  0.6963  0.2395  0.1027
   40MOL   O26722185   0.313   3.859   7.126 -0.0573  0.1189  0.1415
   40MOL   C26822186   0.319   4.223   7.158  0.3086  0.0317  0.3520
   40MOL   C26922187   0.332   4.336   7.077 -0.4890 -0.1078 -0.4666
   40MOL   C27022188   0.336   4.461   7.136 -0.2873 -0.0766  0.0315
   40MOL   C27122189   0.347   4.575   7.056 -0.1074  0.7526  0.2115
   40MOL   H27222190   0.380   4.425   6.752 -2.3030 -1.0559 -0.2130
   40MOL   H27322191   0.336   4.196   6.773  1.8609 -0.5943 -0.2922
   40MOL   H27422192   0.319   3.988   6.908 -0.7211 -1.2469  0.7206
   40MOL   H27522193   0.433   3.805   7.372  0.6499  1.0683  0.4275
   40MOL   H27622194   0.260   3.806   7.378 -0.5104  0.2213  1.2382
   40MOL   H27722195   0.359   3.838   7.598  0.1724 -0.6986 -0.9537
   40MOL   H27822196   0.407   4.007   7.547  0.5066  0.0340  2.7692
   40MOL   H27922197   0.310   4.234   7.265 -2.2678 -1.8269  0.3917
   40MOL   H28022198   0.340   4.476   7.243 -1.4846  1.9178 -0.1847
   40MOL   H28122199   0.345   4.674   7.099 -1.8336 -0.4441  3.0373
   40MOL   O28222200   0.183   3.895   7.764  0.2421  0.6204 -0.0832
   40MOL   C28322201   0.132   3.945   7.667 -0.5654  0.4836 -0.6747
   40MOL   O28422202   0.200   3.970   7.550 -0.6617 -0.4494  0.2954
   40MOL   C28522203   8.237   3.985   7.651  0.4549  0.3740 -0.2384
   40MOL   C28622204   8.192   4.054   7.535 -0.3005  0.0015  0.3290
   40MOL   C28722205   8.057   4.086   7.521  0.1332  0.2319 -0.1723
   40MOL   C28822206   8.008   4.147   7.405 -0.1807  0.5018  0.2213
   40MOL   C28922207   7.873   4.164   7.378 -0.0395  0.0643  0.6376
   40MOL   C29022208   7.780   4.133   7.482  0.2331 -0.4429 -0.2109
   40MOL   C29122209   7.634   4.137   7.458 -0.4545  0.1463  0.3384
   40MOL   O29222210   7.555   4.129   7.562  0.0215 -0.0669 -0.1560
   40MOL   C29322211   7.415   4.131   7.544 -0.3699  0.5470 -0.3016
   40MOL   C29422212   7.367   4.273   7.535  0.5316 -0.1639  0.5233
   40MOL   O29522213   7.584   4.149   7.346 -0.1002  0.1253  0.3010
   40MOL   C29622214   7.822   4.068   7.595  0.3674 -0.2545  0.2508
   40MOL   C29722215   7.961   4.046   7.622  0.0501 -0.3336 -0.3882
   40MOL   C29822216   8.003   3.979   7.737 -0.7134  0.9323 -0.2057
   40MOL   C29922217   8.143   3.952   7.755 -0.3571 -0.9212  0.1756
   40MOL   H30022218   0.007   4.079   7.452 -0.8067 -1.5866 -0.5577
   40MOL   H30122219   8.073   4.191   7.331 -1.1577 -0.8514 -1.4915
   40MOL   H30222220   7.836   4.207   7.286 -2.0198  1.9579  2.2723
   40MOL   H30322221   7.362   4.083   7.626  2.4128 -0.2860  1.0842
   40MOL   H30422222   7.387   4.086   7.449  0.8468  1.7312 -1.2352
   40MOL   H30522223   7.395   4.330   7.624 -2.6510 -3.0252  3.5242
   40MOL   H30622224   7.399   4.317   7.441 -2.1709 -0.5439 -0.5907
   40MOL   H30722225   7.747   4.049   7.670 -0.4536 -1.3863 -0.8474
   40MOL   H30822226   7.932   3.952   7.814  1.4978 -0.2670  1.5001
   40MOL   H30922227   8.165   3.900   7.846  0.5119  1.6566  1.4810
   40MOL   O31022228   7.239   4.267   7.767 -0.1645 -0.4502  0.3507
   40MOL   C31122229   7.171   4.271   7.667 -0.8010  0.1280  0.1649
   40MOL   O31222230   7.225   4.281   7.544  0.0539 -0.0147  0.0975
   40MOL   C31322231   7.022   4.247   7.659 -0.2454  0.5046 -0.0127
   40MOL   C31422232   6.942   4.259   7.774 -1.1983  0.3682  0.6550
   40MOL   C31522233   6.801   4.241   7.774 -0.1433  0.0075  0.6036
   40MOL   C31622234   6.729   4.256   7.897  0.2404  0.8725  0.0991
   40MOL   C31722235   6.590   4.237   7.890  0.0243 -0.2500  0.4224
   40MOL   C31822236   6.526   4.208   7.769 -0.1185  0.4659 -0.3590
   40MOL   C31922237   6.381   4.195   7.770  0.1190  0.2326 -0.0345
   40MOL   O32022238   6.322   4.169   7.882 -0.1391 -0.2093  0.2976
   40MOL   C32122239   6.180   4.152   7.898 -0.2287 -0.1982 -0.5193
   40MOL   C32222240   6.147   4.172   8.047  0.0219 -0.1858 -0.5761
   40MOL   O32322241   6.316   4.207   7.666  0.2410 -0.4215  0.4976
   40MOL   C32422242   6.600   4.197   7.648 -0.3818 -0.3247 -0.0674
   40MOL   C32522243   6.738   4.216   7.650 -0.2051 -0.1053  1.0111
   40MOL   C32622244   6.816   4.194   7.536  0.0793  0.5142  0.3067
   40MOL   C32722245   6.958   4.200   7.540 -0.3052 -0.1391  0.0286
   40MOL   H32822246   6.991   4.280   7.868  1.9955  0.3109 -0.9359
   40MOL   H32922247   6.774   4.276   7.993  2.5019  0.0318 -0.7477
   40MOL   H33022248   6.531   4.248   7.980 -0.9171 -0.9097 -0.1135
   40MOL   H33122249   6.167   4.048   7.870  1.0559 -0.0305 -1.8604
   40MOL   H33222250   6.124   4.202   7.819 -1.5954 -0.6076  0.1890
   40MOL   H33322251   6.043   4.145   8.063 -0.1760  2.4921  3.4274
   40MOL   H33422252   6.209   4.120   8.119 -0.2485  2.9320  2.0307
   40MOL   H33522253   6.562   4.188   7.547 -1.0956 -1.7984  0.3129
   40MOL   H33622254   6.771   4.165   7.442  4.3338  3.2914 -2.7430
   40MOL   H33722255   7.016   4.201   7.448 -0.2051 -0.4291  0.0893
   40MOL   O33822256   6.380   4.302   8.151 -0.0774 -0.5838  0.0989
   40MOL   C33922257   6.280   4.364   8.115  0.0340 -0.0359  0.1496
   40MOL   O34022258   6.157   4.311   8.081 -0.3709 -0.0881  0.1554
   40MOL   C34122259   6.288   4.513   8.102  0.2971  0.3044  0.1812
   40MOL   C34222260   6.414   4.578   8.131 -0.1765  0.1724 -0.2486
   40MOL   C34322261   6.430   4.716   8.119  0.2774  0.5460  0.4756
   40MOL   C34422262   6.555   4.777   8.140  0.2469  0.3986 -1.3358
   40MOL   C34522263   6.581   4.911   8.103  0.9816  0.6380 -0.5926
   40MOL   C34622264   6.471   4.989   8.054  0.5089 -0.9605 -0.2159
   40MOL   C34722265   6.500   5.138   8.012  0.3706  0.2375 -1.0762
   40MOL   O34822266   6.633   5.170   8.005 -0.4792  0.6702 -0.7508
   40MOL   C34922267   6.671   5.299   7.973 -0.1045  0.5922  0.1132
   40MOL   C35022268   6.824   5.295   7.965 -0.0209  0.1261 -0.0867
   40MOL   O35122269   6.411   5.218   7.989  0.0440  0.2060 -0.5208
   40MOL   C35222270   6.341   4.936   8.041  0.0522 -0.5502  0.7222
   40MOL   C35322271   6.324   4.798   8.069 -0.2982 -0.0976  0.7841
   40MOL   C35422272   6.198   4.737   8.058  0.4341 -0.4282 -0.2353
   40MOL   C35522273   6.180   4.595   8.069 -0.5447  0.1169 -0.2549
   40MOL   H35622274   6.499   4.519   8.160 -0.0685 -0.1661 -1.2313
   40MOL   H35722275   6.634   4.718   8.186 -1.2254  0.6564  1.6097
   40MOL   H35822276   6.676   4.961   8.115  0.7823  0.8075  0.3476
   40MOL   H35922277   6.639   5.371   8.048  1.3922  0.7068  0.6529
   40MOL   H36022278   6.624   5.317   7.876  1.6652 -2.2669 -1.3276
   40MOL   H36122279   6.846   5.210   7.900 -0.1680 -0.0934  0.1510
   40MOL   H36222280   6.870   5.383   7.920  0.4844  0.8207  1.7370
   40MOL   H36322281   6.261   5.003   8.012 -0.8662 -1.7750  0.3997
   40MOL   H36422282   6.118   4.803   8.029 -1.0680 -1.9812  0.2859
   40MOL   H36522283   6.078   4.561   8.059 -0.8573  0.5963  1.2066
   40MOL   O36622284   6.833   5.476   8.182 -0.3141  0.6459 -0.0161
   40MOL   C36722285   6.866   5.360   8.194 -0.5060  0.5067  0.1306
   40MOL   O36822286   6.874   5.263   8.101 -0.0957 -0.5451  0.9065
   40MOL   C36922287   6.907   5.296   0.074  0.6233 -0.2369  0.3486
   40MOL   C37022288   6.910   5.155   0.092 -0.3692  0.5987  0.3819
   40MOL   C37122289   6.959   5.110   0.212 -0.6073  0.4200  0.9094
   40MOL   C37222290   6.949   4.967   0.232 -0.3351 -0.4563 -0.2123
   40MOL   C37322291   6.998   4.910   0.349  0.1033 -0.8824  0.3258
   40MOL   C37422292   7.040   4.991   0.458  0.5808 -0.0474  0.3916
   40MOL   C37522293   7.065   4.924   0.589 -0.0057  0.4255  0.0970
   40MOL   O37622294   7.082   4.794   0.586 -0.0027 -0.8241  0.9564
   40MOL   C37722295   7.109   4.724   0.707  0.5711 -0.5616 -0.3991
   40MOL   C37822296   6.973   4.681   0.758  0.0398 -0.5620  0.1004
   40MOL   O37922297   7.092   4.989   0.689  0.3906  0.4196  0.3048
   40MOL   C38022298   7.048   5.130   0.433 -0.3040 -0.2401  0.2420
   40MOL   C38122299   7.003   5.191   0.314 -0.0849  0.3197 -0.4524
   40MOL   C38222300   7.003   5.330   0.302  0.0997 -0.4824  0.4767
   40MOL   C38322301   6.953   5.385   0.178  0.1226  0.3494  0.2143
   40MOL   H38422302   6.865   5.085   0.023  0.9142  0.4054 -0.2679
   40MOL   H38522303   6.916   4.889   0.165  1.3505 -1.4413  0.0796
   40MOL   H38622304   6.983   4.804   0.363  2.9377 -1.4548 -0.6791
   40MOL   H38722305   7.169   4.783   0.777  1.7053 -1.9025 -0.2228
   40MOL   H38822306   7.168   4.635   0.689  0.1512 -1.2082  1.3342
   40MOL   H38922307   6.987   4.662   0.865 -2.2356  0.4241  0.5963
   40MOL   H39022308   6.898   4.758   0.740  0.1457 -1.2523 -3.6517
   40MOL   H39122309   7.069   5.194   0.516 -0.5272  1.3547 -0.9139
   40MOL   H39222310   7.040   5.396   0.380  1.1136  1.2397 -1.4136
   40MOL   H39322311   6.951   5.490   0.153  1.0286  0.8610  2.1964
   40MOL   O39422312   6.848   4.462   0.864 -0.3000  0.1462 -0.7853
   40MOL   C39522313   6.887   4.463   0.744  0.4873  0.1731 -0.2219
   40MOL   O39622314   6.952   4.559   0.690 -0.2956 -0.0456  0.1858
   40MOL   C39722315   6.876   4.342   0.657 -0.5501 -0.1559  0.4586
   40MOL   C39822316   6.934   4.329   0.528 -0.1065  0.0616  0.4553
   40MOL   C39922317   6.926   4.207   0.461  0.2445  0.1184 -0.1768
   40MOL   C40022318   6.988   4.195   0.334 -0.5059 -0.2064 -0.3623
   40MOL   C40122319   6.998   4.067   0.271 -0.7411  0.1244 -0.1113
   40MOL   C40222320   6.935   3.955   0.330 -0.2811 -0.3401  0.4306
   40MOL   C40322321   6.940   3.822   0.258 -0.1690  0.5798  0.5408
   40MOL   O40422322   6.969   3.834   0.127  0.4496  0.4994 -0.1254
   40MOL   C40522323   6.969   3.711   0.051  0.0639 -0.1014 -0.0285
   40MOL   C40622324   7.087   3.618   0.081  0.0508  0.1970  0.8174
   40MOL   O40722325   6.926   3.717   0.322  0.1235 -0.3441 -0.1424
   40MOL   C40822326   6.879   3.967   0.456  0.1057 -0.0645  0.0984
   40MOL   C40922327   6.870   4.091   0.526  0.3097 -0.1219  0.0562
   40MOL   C41022328   6.817   4.102   0.654 -0.1734  0.1523 -0.0688
   40MOL   C41122329   6.824   4.227   0.718  0.0929  0.7435  0.4206
   40MOL   H41222330   6.982   4.401   0.463 -0.2163 -0.6279 -0.4007
   40MOL   H41322331   7.020   4.290   0.292 -5.2626  1.9024  0.5233
   40MOL   H41422332   7.057   4.064   0.180 -0.2443 -0.2718  0.2176
   40MOL   H41522333   6.969   3.737   8.194  0.1158  1.0515  0.2479
   40MOL   H41622334   6.883   3.645   0.061  0.2485 -0.1038  1.6299
   40MOL   H41722335   7.097   3.590   0.186  0.8074  1.2194  1.0339
   40MOL   H41822336   7.101   3.532   0.016 -1.4326  0.6110 -0.0698
   40MOL   H41922337   6.852   3.878   0.511  1.0942  0.2740  1.1546
   40MOL   H42022338   6.776   4.019   0.709 -0.4672  1.4100  1.6503
   40MOL   H42122339   6.781   4.235   0.817 -0.5641 -0.6800  0.2531
   40MOL   O42222340   7.249   3.672   8.110  0.6092 -0.0761 -0.0434
   40MOL   C42322341   7.270   3.718   8.222  0.1970 -0.2199 -0.2835
   40MOL   O42422342   7.193   3.698   0.077 -0.2684 -0.3811  0.2030
   40MOL   C42522343   7.373   3.821   8.242 -0.0334  0.0780  1.1453
   40MOL   C42622344   7.499   3.800   8.173  0.4754 -0.2838 -0.2437
   40MOL   C42722345   7.598   3.898   8.194 -0.2808  0.4921 -0.5560
   40MOL   C42822346   7.715   3.885   8.113  0.1396  0.2734 -0.3839
   40MOL   C42922347   7.827   3.958   8.140 -0.4310 -0.5354  0.2004
   40MOL   C43022348   7.819   4.062   8.233  0.3730 -0.1873  0.0364
   40MOL   C43122349   7.928   4.158   8.234  0.8926  0.0457 -0.3822
   40MOL   O43222350   7.909   4.255   0.079 -0.4629  0.7541 -0.7601
   40MOL   C43322351   8.013   4.355   0.097  0.1430 -0.0541  0.2750
   40MOL   C43422352   8.113   4.317   0.205  0.4516 -0.6613 -0.6453
   40MOL   O43522353   8.025   4.159   8.151  0.1533 -0.2805 -0.0768
   40MOL   C43622354   7.696   4.082   0.061  0.8202 -0.0154  0.3902
   40MOL   C43722355   7.585   4.001   0.038  0.4790  0.1374 -0.2905
   40MOL   C43822356   7.459   4.016   0.100  0.4839  0.3523  0.1953
   40MOL   C43922357   7.352   3.937   0.064  1.0933 -0.6762 -0.1319
   40MOL   H44022358   7.512   3.719   8.104 -0.1242  1.0723 -1.9917
   40MOL   H44122359   7.721   3.801   8.045  1.6200 -1.2592  1.5943
   40MOL   H44222360   7.920   3.931   8.091  0.6418  0.5486  1.5802
   40MOL   H44322361   7.958   4.445   0.125 -0.3895 -0.7917  1.6221
   40MOL   H44422362   8.056   4.378   8.248 -0.3294  1.0145  0.3143
   40MOL   H44522363   8.168   4.406   0.237 -1.3830  0.3041 -0.1343
   40MOL   H44622364   8.057   4.290   0.294 -1.4434  3.5856 -0.4284
   40MOL   H44722365   7.693   4.158   0.138 -2.2088  0.4725 -0.1439
   40MOL   H44822366   7.449   4.105   0.162 -0.2758  0.5568 -0.2206
   40MOL   H44922367   7.254   3.951   0.108  1.0729 -1.2901  0.0288
   40MOL   O45022368   0.035   4.376   0.000  0.8815  0.9708  0.1746
   40MOL   C45122369   0.039   4.263   0.055 -0.0795 -0.0636  1.1045
   40MOL   O45222370   8.204   4.221   0.150 -0.5369 -0.6994 -0.2054
   40MOL   C45322371   0.130   4.155   0.014 -0.1064  0.1309  0.0960
   40MOL   C45422372   0.174   4.061   0.105  0.3272  0.2568 -0.7981
   40MOL   C45522373   0.249   3.948   0.075  0.5738 -0.3622 -0.0979
   40MOL   C45622374   0.286   3.851   0.173 -0.4369  0.4471  0.4720
   40MOL   C45722375   0.344   3.730   0.132  0.1870 -0.3167  0.1657
   40MOL   C45822376   0.367   3.702   8.244 -0.9217 -0.1375 -0.7787
   40MOL   C45922377   0.421   3.572   8.199  0.1919  0.1731 -1.1401
   40MOL   O46022378   0.442   3.576   8.068 -0.1818  0.1950  0.4814
   40MOL   C46122379   0.446   3.451   8.007 -0.3372  0.0144  0.4836
   40MOL   C46222380   0.369   3.463   7.874  1.1084  0.4126  0.0543
   40MOL   O46322381   0.444   3.478   0.026 -0.0936 -0.2906  0.3551
   40MOL   C46422382   0.328   3.799   8.147  0.2990 -0.0641 -0.2721
   40MOL   C46522383   0.268   3.921   8.187 -0.1020 -0.2897  0.1959
   40MOL   C46622384   0.213   4.008   8.086  0.0604 -0.5706  0.4595
   40MOL   C46722385   0.161   4.130   8.125  0.5304  0.3205 -0.1273
   40MOL   H46822386   0.160   4.077   0.211 -0.4683  0.2737 -0.9011
   40MOL   H46922387   0.279   3.867   0.280 -1.2745 -0.8135  0.6166
   40MOL   H47022388   0.366   3.653   0.204 -0.2152  0.6686  1.3627
   40MOL   H47122389   0.383   3.380   8.061  0.1708 -2.9496 -2.6520
   40MOL   H47222390   0.545   3.406   7.994  0.8777  2.6202  0.3223
   40MOL   H47322391   0.406   3.542   7.809 -0.6490  1.2168  0.0123
   40MOL   H47422392   0.374   3.371   7.815 -0.5744  2.2533 -3.1298
   40MOL   H47522393   0.342   3.779   8.042  0.1689 -0.4355 -0.2207
   40MOL   H47622394   0.225   3.981   7.982  0.5638 -1.5995  0.7732
   40MOL   H47722395   0.124   4.204   8.056  1.4286  1.9895  1.1284
   40MOL   O47822396   0.200   3.602   7.703  0.7802  0.3830  0.5628
   40MOL   C47922397   0.152   3.550   7.806 -0.5688 -1.2336 -0.4008
   40MOL   O48022398   0.232   3.480   7.900 -0.0409 -0.3974 -0.5472
   40MOL   C48122399   0.009   3.553   7.841  0.2457 -0.5070  0.9446
   40MOL   C48222400   8.163   3.615   7.754 -0.7828 -0.7851 -0.4275
   40MOL   C48322401   8.021   3.615   7.769  0.2643 -0.1905 -0.0740
   40MOL   C48422402   7.927   3.664   7.676  0.8621  0.7452 -0.2381
   40MOL   C48522403   7.792   3.667   7.712 -0.3674 -0.4575  0.3843
   40MOL   C48622404   7.743   3.608   7.826 -0.5294  0.2077  0.1688
   40MOL   C48722405   7.596   3.601   7.860 -0.1761  0.7975 -0.4583
   40MOL   O48822406   7.511   3.664   7.767  0.2489 -1.1499  0.2632
   40MOL   C48922407   7.365   3.658   7.780 -0.1905 -0.9738  0.2176
   40MOL   C49022408   7.300   3.520   7.789  0.3247  0.8555  0.3617
   40MOL   O49122409   7.560   3.550   7.969 -0.6111  0.1945  0.0660
   40MOL   C49222410   7.841   3.561   7.918  0.2074  0.2020  0.0712
   40MOL   C49322411   7.978   3.565   7.895 -0.1476  0.0805 -0.4340
   40MOL   C49422412   8.071   3.514   7.991  0.3710 -0.3570  0.0274
   40MOL   C49522413   8.210   3.508   7.969  0.0990 -0.3809  0.4365
   40MOL   H49622414   8.211   3.657   7.667 -0.8382 -1.3152 -0.7116
   40MOL   H49722415   7.961   3.697   7.579  0.1934 -0.7650 -1.0017
   40MOL   H49822416   7.735   3.717   7.635  1.4063 -2.2836 -2.1911
   40MOL   H49922417   7.294   3.720   7.726  1.0795 -1.2503 -1.7964
   40MOL   H50022418   7.345   3.698   7.880 -2.0219  0.9624 -0.8933
   40MOL   H50122419   7.299   3.473   7.690 -0.3113 -0.1220  0.8226
   40MOL   H50222420   7.359   3.442   7.836  0.6437 -1.0578 -3.0465
   40MOL   H50322421   7.799   3.524   8.010 -0.3620 -0.9372 -0.6404
   40MOL   H50422422   8.025   3.487   8.085 -2.3635  0.0659 -1.1365
   40MOL   H50522423   0.021   3.457   8.044  1.9835  0.0601 -0.7349
   40MOL   O50622424   7.066   3.608   7.680  0.1453 -0.0299  0.2908
   40MOL   C50722425   7.060   3.555   7.795  0.2303  0.3502  0.0766
   40MOL   O50822426   7.169   3.505   7.847 -0.3091 -0.1864  0.5979
   40MOL   C50922427   6.937   3.540   7.874  0.0319 -0.0621  0.2565
   40MOL   C51022428   6.812   3.548   7.802  0.5951 -0.2362  0.1108
   40MOL   C51122429   6.696   3.509   7.871  0.5130  0.0907  0.7014
   40MOL   C51222430   6.576   3.504   7.800 -0.4244 -0.8205  0.1618
   40MOL   C51322431   6.455   3.465   7.861  0.9458 -0.1215  0.7636
   40MOL   C51422432   6.455   3.407   7.993 -0.5207  0.7906  0.2801
   40MOL   C51522433   6.333   3.355   8.059 -1.0933  0.1902  0.0198
   40MOL   O51622434   6.355   3.320   8.184  0.1899 -0.0331  0.1868
   40MOL   C51722435   6.271   3.231   0.007  0.6709  0.3597  0.0846
   40MOL   C51822436   6.370   3.173   0.108 -0.0326  0.0751 -0.3757
   40MOL   O51922437   6.224   3.348   8.001  0.4182  0.3877  0.6754
   40MOL   C52022438   6.580   3.412   8.063 -0.4602 -0.4363  0.0305
   40MOL   C52122439   6.699   3.464   8.008 -0.5320  1.0453  0.6988
   40MOL   C52222440   6.820   3.461   8.078 -0.5454 -0.1863  0.0999
   40MOL   C52322441   6.939   3.489   8.007 -0.3576  0.1356  0.7454
   40MOL   H52422442   6.800   3.579   7.699  0.4511  1.1950  0.5381
   40MOL   H52522443   6.570   3.554   7.704  1.5809  1.4407  1.1535
   40MOL   H52622444   6.367   3.469   7.798  2.6333  0.6723 -1.5833
   40MOL   H52722445   6.228   3.156   8.189  0.7700 -0.6061  1.0777
   40MOL   H52822446   6.189   3.277   0.063 -0.5536 -0.6122 -0.8900
   40MOL   H52922447   6.461   3.137   0.059  0.7551 -0.0637  1.1579
   40MOL   H53022448   6.413   3.253   0.169  0.6381 -1.8396  1.7494
   40MOL   H53122449   6.592   3.375   8.164  1.6584  1.6902  0.5975
   40MOL   H53222450   6.811   3.432   8.181 -0.1175 -2.1610 -0.4126
   40MOL   H53322451   7.031   3.461   8.055  0.6470  0.4676 -0.9427
   40MOL   O53422452   6.158   3.201   0.298 -0.4373  0.1676 -0.2491
   40MOL   C53522453   6.222   3.094   0.281 -0.2163  0.1305  0.3419
   40MOL   O53622454   6.309   3.070   0.183 -0.0331  0.1857  0.5946
   40MOL   C53722455   6.208   2.983   0.372  0.4004 -0.5105  0.4034
   40MOL   C53822456   6.325   2.919   0.415 -0.1397 -0.4020 -0.7653
   40MOL   C53922457   6.311   2.819   0.513 -0.0624 -0.0858  0.0973
   40MOL   C54022458   6.429   2.771   0.570  0.2197  0.6422  0.1938
   40MOL   C54122459   6.422   2.664   0.659 -0.1274 -0.7089  0.0464
   40MOL   C54222460   6.297   2.604   0.693 -0.3001 -0.0533  0.1863
   40MOL   C54322461   6.296   2.476   0.764  0.1017  0.3163 -0.4634
   40MOL   O54422462   6.171   2.434   0.780  0.1186  0.1285  0.1526
   40MOL   C54522463   6.142   2.296   0.794 -0.2274  0.4959 -0.1197
   40MOL   C54622464   6.014   2.266   0.721 -0.1807  0.7999 -0.2723
   40MOL   O54722465   6.391   2.420   0.804 -0.2671 -0.1465 -0.3237
   40MOL   C54822466   6.182   2.658   0.636 -0.0401  0.4144  0.9089
   40MOL   C54922467   6.185   2.774   0.551 -1.0631  0.1807  0.1376
   40MOL   C55022468   6.070   2.843   0.509  0.5037 -0.0283  0.9008
   40MOL   C55122469   6.081   2.952   0.423 -0.0804  0.2969  0.6577
   40MOL   H55222470   6.426   2.951   0.393 -0.2819  1.0609  0.6048
   40MOL   H55322471   6.521   2.820   0.541 -0.4083  0.9382 -1.3333
   40MOL   H55422472   6.519   2.639   0.699  0.8196  2.1852 -0.3259
   40MOL   H55522473   6.147   2.280   0.901 -0.8956 -0.4171 -0.2178
   40MOL   H55622474   6.208   2.221   0.750 -1.9232 -0.4662 -1.0920
   40MOL   H55722475   5.927   2.295   0.780  0.1095 -1.6699  1.4527
   40MOL   H55822476   6.007   2.160   0.694 -0.9409  1.1661 -1.5758
   40MOL   H55922477   6.087   2.611   0.656 -0.4123  0.6162 -0.3436
   40MOL   H56022478   5.971   2.806   0.530 -0.0185 -0.4167 -2.1572
   40MOL   H56122479   5.989   2.988   0.379 -0.0988  0.6554  0.9917
   40MOL   H56222480   5.994   2.329   0.634 -0.6122  1.0052 -0.0245
   41MOL     O122481   5.330   0.468   0.351 -0.1610  0.5729 -0.3906
   41MOL     C222482   5.240   0.526   0.415 -0.3975 -0.1601  0.3830
   41MOL     O322483   5.128   0.460   0.440 -0.1258 -0.4330  0.8116
   41MOL     C422484   5.252   0.660   0.479  0.0020  0.4500  0.1838
   41MOL     C522485   5.136   0.731   0.529 -0.4293  0.2106  0.5302
   41MOL     C622486   5.154   0.852   0.602  0.1396  0.9185  0.4067
   41MOL     C722487   5.043   0.923   0.652 -0.2392 -0.1054  0.4239
   41MOL     C822488   5.061   1.033   0.734  0.2640 -0.2213 -0.4306
   41MOL     C922489   5.187   1.087   0.748  0.3566 -0.9233 -0.4069
   41MOL    C1022490   5.205   1.208   0.834 -0.1891 -0.0551 -0.7687
   41MOL    O1122491   5.326   1.267   0.822 -0.0254  0.1018 -0.1140
   41MOL    C1222492   5.354   1.387   0.893 -0.3297  0.5688 -0.4240
   41MOL    C1322493   5.394   1.353   1.045  0.1158 -0.1683  0.2692
   41MOL    O1422494   5.106   1.262   0.892 -0.2999  0.2041 -0.4648
   41MOL    C1522495   5.299   1.021   0.696  0.0622 -1.1488  0.6006
   41MOL    C1622496   5.283   0.904   0.621  0.4034 -0.7006  0.5582
   41MOL    C1722497   5.394   0.835   0.564 -0.3243 -0.2992 -0.5399
   41MOL    C1822498   5.377   0.718   0.497 -1.2709  0.2790 -0.7016
   41MOL    H1922499   5.037   0.693   0.513 -0.5479 -0.2967  2.3470
   41MOL    H2022500   4.946   0.886   0.621  0.3959 -0.7857 -0.8142
   41MOL    H2122501   4.978   1.090   0.772  0.7586  2.0951 -2.6462
   41MOL    H2222502   5.438   1.439   0.847 -0.2384  1.4297  0.7093
   41MOL    H2322503   5.269   1.449   0.866 -0.4458 -0.1654 -1.8059
   41MOL    H2422504   5.310   1.328   1.110  0.1230  1.2381  0.8397
   41MOL    H2522505   5.461   1.268   1.058  0.3119 -0.3481 -1.7012
   41MOL    H2622506   5.403   1.048   0.703 -0.1072 -0.7571  1.6308
   41MOL    H2722507   5.494   0.875   0.573 -0.7763  1.2290 -2.0530
   41MOL    H2822508   5.463   0.668   0.455  0.8213  0.7236  2.8430
   41MOL    H2922509   5.159   0.375   0.412  4.5456  1.5541 -0.5522
   41MOL    O3022510   5.651   1.365   1.169 -0.1127  0.9178  0.2391
   41MOL    C3122511   5.581   1.463   1.157  0.6126  0.2386 -0.0275
   41MOL    O3222512   5.453   1.464   1.099  0.1809  0.4168  0.0950
   41MOL    C3322513   5.623   1.597   1.206  0.3504  0.2828 -0.2702
   41MOL    C3422514   5.522   1.692   1.254 -0.4493  0.0638  0.0032
   41MOL    C3522515   5.564   1.817   1.303 -0.5092  0.4326  0.3019
   41MOL    C3622516   5.468   1.905   1.348  1.2415  0.0379 -0.6461
   41MOL    C3722517   5.496   2.037   1.386 -0.2690 -0.5082 -0.8754
   41MOL    C3822518   5.633   2.073   1.388  0.6289  0.1468 -0.0278
   41MOL    C3922519   5.676   2.204   1.450  0.0398  0.6405 -0.3047
   41MOL    O4022520   5.578   2.303   1.476 -0.1660  0.6265  0.3574
   41MOL    C4122521   5.608   2.421   1.556 -0.1385 -0.3405 -0.3801
   41MOL    C4222522   5.708   2.519   1.494 -1.1143  0.7720  0.2608
   41MOL    O4322523   5.793   2.225   1.478  0.4121 -0.9218 -0.1989
   41MOL    C4422524   5.731   1.980   1.359 -0.3367  0.7486 -0.2755
   41MOL    C4522525   5.696   1.849   1.325 -0.1718 -0.5714 -0.0620
   41MOL    C4622526   5.790   1.754   1.298 -1.2718  0.1804  0.1382
   41MOL    C4722527   5.761   1.630   1.234  0.4372 -0.2284  0.9784
   41MOL    H4822528   5.419   1.668   1.274 -0.5874  1.0503  0.5221
   41MOL    H4922529   5.363   1.882   1.356  0.8743  1.8478  0.1511
   41MOL    H5022530   5.411   2.103   1.402 -0.3675 -0.7713 -0.3030
   41MOL    H5122531   5.651   2.384   1.649  0.3673 -1.6852 -1.1313
   41MOL    H5222532   5.521   2.476   1.592  1.5884  2.8198 -0.8365
   41MOL    H5322533   5.770   2.566   1.571  1.4399  0.6501 -1.6401
   41MOL    H5422534   5.781   2.471   1.428  0.6099 -0.5563  3.0117
   41MOL    H5522535   5.835   2.005   1.375  0.5242 -1.6988 -1.6633
   41MOL    H5622536   5.894   1.776   1.316 -1.4996  0.5264  1.0287
   41MOL    H5722537   5.831   1.552   1.208 -3.9241 -3.1035 -2.9150
   41MOL    O5822538   5.824   2.751   1.440 -0.2351 -0.5957  0.2794
   41MOL    C5922539   5.713   2.729   1.394 -0.5455 -0.3738 -0.6222
   41MOL    O6022540   5.647   2.619   1.413 -0.3717 -0.3597 -1.0072
   41MOL    C6122541   5.634   2.831   1.312  0.0514  0.0104  0.0850
   41MOL    C6222542   5.686   2.959   1.295  0.4733 -0.0086 -0.2633
   41MOL    C6322543   5.613   3.062   1.232  0.1445  0.5669 -0.9977
   41MOL    C6422544   5.665   3.189   1.221  0.5087  0.5127  0.2283
   41MOL    C6522545   5.589   3.287   1.162 -0.4757  0.1227 -0.2184
   41MOL    C6622546   5.466   3.259   1.102 -0.8505  0.1645  0.6183
   41MOL    C6722547   5.391   3.358   1.025 -0.4514  0.4314 -0.2974
   41MOL    O6822548   5.260   3.334   1.025  0.1232 -0.4947 -0.4209
   41MOL    C6922549   5.170   3.443   0.998 -0.1580  1.0354 -0.5991
   41MOL    C7022550   5.140   3.506   1.138  0.3011 -1.1001  0.2286
   41MOL    O7122551   5.441   3.464   0.986  0.6431  0.7685  0.7531
   41MOL    C7222552   5.409   3.131   1.122 -0.0070 -0.3414 -0.4401
   41MOL    C7322553   5.487   3.030   1.182 -0.8544  0.1887 -0.1041
   41MOL    C7422554   5.431   2.901   1.197 -0.0077  0.3450  0.5110
   41MOL    C7522555   5.510   2.803   1.254  0.0981 -0.5955  0.2561
   41MOL    H7622556   5.780   2.984   1.340 -1.3066  2.3323  2.3328
   41MOL    H7722557   5.759   3.218   1.266  0.1142  0.6199  0.9835
   41MOL    H7822558   5.630   3.387   1.164 -0.3217  0.0575 -0.1408
   41MOL    H7922559   5.069   3.427   0.960 -0.1124 -2.8577  0.7345
   41MOL    H8022560   5.212   3.529   0.946 -1.1688  1.9397  0.0703
   41MOL    H8122561   5.036   3.486   1.165 -0.0400 -1.1864 -1.1124
   41MOL    H8222562   5.199   3.465   1.220 -1.1063 -1.7995  0.8956
   41MOL    H8322563   5.312   3.096   1.092 -1.0253  0.2088  2.0701
   41MOL    H8422564   5.332   2.888   1.155  1.1428  0.1196 -2.2001
   41MOL    H8522565   5.455   2.713   1.280 -1.2918  0.4912  1.1130
   41MOL    O8622566   4.990   3.711   1.028 -0.1972 -0.1069  0.8689
   41MOL    C8722567   5.088   3.742   1.096  0.3910  0.2279  0.5077
   41MOL    O8822568   5.171   3.648   1.139 -0.1295 -0.0793  0.1628
   41MOL    C8922569   5.123   3.876   1.144 -0.0071 -0.4734 -0.2052
   41MOL    C9022570   5.257   3.911   1.174 -0.9407  0.2530 -0.4601
   41MOL    C9122571   5.288   4.043   1.210  0.0886 -0.7083 -0.1447
   41MOL    C9222572   5.419   4.084   1.229 -0.4065 -0.6397 -0.0856
   41MOL    C9322573   5.446   4.216   1.266 -0.6865  0.1861 -0.6137
   41MOL    C9422574   5.349   4.312   1.284  0.5924  0.6376 -0.2529
   41MOL    C9522575   5.378   4.456   1.316  0.3854  0.0147  0.2119
   41MOL    O9622576   5.483   4.467   1.398 -0.0099 -0.1553 -0.2433
   41MOL    C9722577   5.515   4.596   1.447  0.1894 -0.3040 -0.2413
   41MOL    C9822578   5.410   4.658   1.536  0.3173 -0.0552  0.0988
   41MOL    O9922579   5.322   4.548   1.261  0.0485  0.1994 -0.1392
   41MOL   C10022580   5.216   4.276   1.265 -0.6393  0.1978  0.0556
   41MOL   C10122581   5.192   4.142   1.226 -1.4301  0.0752 -0.5972
   41MOL   C10222582   5.054   4.106   1.208  0.8402 -0.2493  0.7719
   41MOL   C10322583   5.020   3.970   1.168 -0.1014  0.3397 -0.1126
   41MOL   H10422584   5.335   3.836   1.163 -1.5533 -0.2608 -1.3461
   41MOL   H10522585   5.494   4.007   1.239 -2.3135 -2.3554  1.5182
   41MOL   H10622586   5.550   4.242   1.278 -0.5470 -1.1635  1.5109
   41MOL   H10722587   5.524   4.656   1.357 -0.2773  0.6155  0.3191
   41MOL   H10822588   5.611   4.596   1.500  0.0367 -2.2556  0.0992
   41MOL   H10922589   5.422   4.766   1.530  2.2745 -0.2986 -0.7544
   41MOL   H11022590   5.306   4.651   1.503  0.7983 -2.1579 -1.0975
   41MOL   H11122591   5.134   4.345   1.273 -1.0140 -0.2843  0.4553
   41MOL   H11222592   4.975   4.179   1.219 -0.6347 -1.7942  0.7668
   41MOL   H11322593   4.918   3.943   1.145 -0.5327  1.3740  0.5265
   41MOL   O11422594   5.609   4.756   1.711  0.1982  0.5599  0.6311
   41MOL   C11522595   5.524   4.672   1.748 -0.1301 -0.3773  0.4431
   41MOL   O11622596   5.419   4.629   1.674  0.1181  0.9122 -0.2470
   41MOL   C11722597   5.542   4.588   1.874 -1.2394 -0.2077  0.1266
   41MOL   C11822598   5.439   4.506   1.929 -0.8485 -0.7142  0.6455
   41MOL   C11922599   5.459   4.430   2.043 -1.0262  0.7531  0.7620
   41MOL   C12022600   5.354   4.360   2.106  0.2804  0.3324 -0.0523
   41MOL   C12122601   5.377   4.283   2.220  0.4089  0.2920  0.1317
   41MOL   C12222602   5.509   4.276   2.278  0.2217  0.5164  0.4408
   41MOL   C12322603   5.548   4.211   2.403  0.7078 -0.1332 -0.6643
   41MOL   O12422604   5.443   4.184   2.472  0.2838  0.0673 -0.1434
   41MOL   C12522605   5.453   4.110   2.598 -0.3264 -0.1156  0.5947
   41MOL   C12622606   5.453   3.957   2.560  0.0914 -0.3900  0.4196
   41MOL   O12722607   5.663   4.183   2.442  0.4755 -0.4033  0.0862
   41MOL   C12822608   5.612   4.344   2.207 -0.7824 -0.1934  0.1504
   41MOL   C12922609   5.593   4.425   2.092 -0.0703 -0.1188  0.0056
   41MOL   C13022610   5.699   4.504   2.036 -0.4380  0.0069 -0.7066
   41MOL   C13122611   5.672   4.585   1.924  0.4166  0.0352 -0.1812
   41MOL   H13222612   5.350   4.485   1.873 -0.7320 -0.0575  0.2160
   41MOL   H13322613   5.254   4.385   2.077  0.7908  1.9445 -0.4576
   41MOL   H13422614   5.295   4.226   2.261  1.8491 -2.1272 -0.2757
   41MOL   H13522615   5.376   4.143   2.667 -0.7605  0.4553 -0.1473
   41MOL   H13622616   5.551   4.134   2.638 -0.4067 -0.4164  0.9748
   41MOL   H13722617   5.510   3.931   2.471 -0.9909  2.7960 -1.2711
   41MOL   H13822618   5.516   3.915   2.638  0.2037  0.0075  0.5442
   41MOL   H13922619   5.712   4.344   2.249  0.1581 -0.2926 -2.0002
   41MOL   H14022620   5.797   4.502   2.079 -0.8909 -0.8097  0.3041
   41MOL   H14122621   5.757   4.632   1.877  0.2817  1.0541  0.5642
   41MOL   O14222622   5.279   3.985   2.362 -0.2935 -0.2991 -0.5374
   41MOL   C14322623   5.240   3.924   2.464  0.0826  0.3839  0.2521
   41MOL   O14422624   5.324   3.909   2.573 -0.2530  0.0177 -0.0336
   41MOL   C14522625   5.105   3.863   2.487 -0.2504 -0.6366  0.1266
   41MOL   C14622626   4.989   3.899   2.409 -0.0656 -0.9167  0.0347
   41MOL   C14722627   4.869   3.824   2.428  0.2203  0.4707  0.2864
   41MOL   C14822628   4.751   3.854   2.355  0.3525 -0.2301  0.2463
   41MOL   C14922629   4.643   3.765   2.366  0.1958  0.3865 -0.4318
   41MOL   C15022630   4.642   3.652   2.447  0.0812 -0.0300  0.0454
   41MOL   C15122631   4.529   3.559   2.433 -0.5121 -0.0741  0.4704
   41MOL   O15222632   4.441   3.587   2.331 -0.5868  0.4119 -0.2161
   41MOL   C15322633   4.363   3.478   2.281  0.2789  0.3117  0.0347
   41MOL   C15422634   4.421   3.439   2.146  0.3038 -0.0086  0.4745
   41MOL   O15522635   4.517   3.460   2.503  0.2387  0.3636 -0.6101
   41MOL   C15622636   4.752   3.631   2.536  0.0976 -0.1284 -0.0642
   41MOL   C15722637   4.871   3.712   2.516  0.1417 -0.1596 -0.5320
   41MOL   C15822638   4.984   3.680   2.589 -0.1735  0.5360  0.2199
   41MOL   C15922639   5.099   3.758   2.583 -0.3284 -0.3645 -0.0512
   41MOL   H16022640   4.990   3.977   2.335  1.4654 -0.7519  0.2204
   41MOL   H16122641   4.745   3.933   2.282  0.6206 -1.3193 -0.9591
   41MOL   H16222642   4.556   3.781   2.304 -1.4335  0.0126  1.7189
   41MOL   H16322643   4.257   3.502   2.284  0.6261  2.0679 -1.0043
   41MOL   H16422644   4.370   3.391   2.346 -0.8059  0.4282  0.3098
   41MOL   H16522645   4.353   3.366   2.104 -0.9868  1.5622 -0.1992
   41MOL   H16622646   4.406   3.526   2.083 -1.1377 -0.0961  0.6928
   41MOL   H16722647   4.744   3.546   2.603 -1.2157  0.5497  0.6585
   41MOL   H16822648   4.979   3.598   2.658 -3.2999  0.8692  0.4904
   41MOL   H16922649   5.186   3.719   2.634  0.8494  1.5286 -0.5454
   41MOL   O17022650   4.514   3.206   2.065 -0.4199 -0.3685 -0.1487
   41MOL   C17122651   4.584   3.275   2.140 -0.4003  0.2506 -0.0381
   41MOL   O17222652   4.559   3.402   2.157 -0.0702 -0.2463  0.6329
   41MOL   C17322653   4.687   3.218   2.226  0.1434 -0.5929  0.5628
   41MOL   C17422654   4.770   3.297   2.307  0.6038  0.2170  0.3618
   41MOL   C17522655   4.860   3.238   2.398  1.0479 -0.1539  0.0992
   41MOL   C17622656   4.937   3.322   2.478 -0.1092  0.1746 -0.3807
   41MOL   C17722657   5.030   3.272   2.573 -0.2510  0.6023  0.2519
   41MOL   C17822658   5.043   3.131   2.580  0.0627 -0.0222 -0.7470
   41MOL   C17922659   5.150   3.075   2.669 -0.3967  0.4481 -0.7660
   41MOL   O18022660   5.199   2.957   2.624  0.4693 -0.2165  0.1887
   41MOL   C18122661   5.291   2.885   2.712  0.0197 -0.2480  0.6701
   41MOL   C18222662   5.438   2.934   2.690 -0.0236 -0.6900 -0.3385
   41MOL   O18322663   5.189   3.130   2.764  0.2115 -0.1208 -0.1721
   41MOL   C18422664   4.964   3.046   2.498  0.8451 -0.0955 -0.1221
   41MOL   C18522665   4.868   3.096   2.409  0.0261 -0.1803 -0.2296
   41MOL   C18622666   4.782   3.018   2.322  0.0877  0.1352  0.2049
   41MOL   C18722667   4.695   3.078   2.233  1.0134  0.5566 -0.7021
   41MOL   H18822668   4.764   3.404   2.291  2.6223  0.5752  1.7647
   41MOL   H18922669   4.940   3.430   2.472 -0.8036  0.2303  0.1916
   41MOL   H19022670   5.096   3.337   2.628 -2.7125  2.8169  0.7268
   41MOL   H19122671   5.287   2.781   2.679  3.1282 -0.5929  1.2227
   41MOL   H19222672   5.256   2.891   2.815 -0.2585 -1.6726  0.6733
   41MOL   H19322673   5.518   2.869   2.725  0.8916  0.5330 -0.1783
   41MOL   H19422674   5.444   2.941   2.581  1.3554  0.3689 -0.1951
   41MOL   H19522675   4.969   2.938   2.504 -1.3235 -0.2278 -0.2937
   41MOL   H19622676   4.778   2.911   2.337  1.0726 -0.3839 -2.8440
   41MOL   H19722677   4.633   3.014   2.172 -0.1438  2.9200 -2.0428
   41MOL   O19822678   5.589   3.137   2.583  0.1477  0.1678  0.2090
   41MOL   C19922679   5.521   3.164   2.686 -0.5137  0.4406  0.2194
   41MOL   O20022680   5.457   3.066   2.753 -0.1771 -0.3644 -0.0803
   41MOL   C20122681   5.491   3.302   2.736  1.0631 -0.1280  0.1194
   41MOL   C20222682   5.433   3.327   2.861 -0.2017  0.1316 -0.5086
   41MOL   C20322683   5.412   3.460   2.909 -0.2313  0.7215 -0.1224
   41MOL   C20422684   5.379   3.483   3.044  0.8272  0.1195  0.5211
   41MOL   C20522685   5.330   3.611   3.083 -0.0639  0.0472  0.0110
   41MOL   C20622686   5.334   3.720   2.990  0.5330 -0.1965  0.0916
   41MOL   C20722687   5.297   3.855   3.025  0.2714  0.3523  0.7877
   41MOL   O20822688   5.260   3.866   3.149  0.2673 -0.2419 -0.4003
   41MOL   C20922689   5.220   3.995   3.194  0.2309  0.4415  0.3907
   41MOL   C21022690   5.152   3.982   3.325 -0.6841 -0.1665  0.3487
   41MOL   O21122691   5.296   3.943   2.939  0.4831  0.2093  0.0338
   41MOL   C21222692   5.385   3.703   2.856  0.0232  0.1118 -0.1879
   41MOL   C21322693   5.422   3.568   2.819 -0.1123  0.0821  0.1023
   41MOL   C21422694   5.467   3.541   2.689 -0.0250 -0.2546 -0.2535
   41MOL   C21522695   5.495   3.412   2.645  0.0774  0.0106 -0.0672
   41MOL   H21622696   5.421   3.240   2.924  1.7286  0.3982  0.2868
   41MOL   H21722697   5.380   3.403   3.117 -1.5532 -1.0453 -0.6641
   41MOL   H21822698   5.291   3.623   3.184 -0.6598  0.4271 -0.2583
   41MOL   H21922699   5.153   4.035   3.118  0.0496 -1.9971 -0.7791
   41MOL   H22022700   5.304   4.063   3.205 -0.7498  1.6778  0.4089
   41MOL   H22122701   5.077   4.061   3.329  0.0104  0.5224 -0.1922
   41MOL   H22222702   5.100   3.887   3.333 -0.8891 -0.2215 -1.4998
   41MOL   H22322703   5.386   3.772   2.773 -1.1788  0.9032  0.4517
   41MOL   H22422704   5.478   3.619   2.615  1.3041  0.8237  1.0564
   41MOL   H22522705   5.504   3.395   2.539  1.0531  1.5750 -0.2503
   41MOL   O22622706   5.174   3.855   3.574  0.7322 -0.1766 -0.1859
   41MOL   C22722707   5.259   3.937   3.534  0.1033 -0.7784  0.4533
   41MOL   O22822708   5.253   4.004   3.421  0.2015  0.2222 -0.7820
   41MOL   C22922709   5.366   3.971   3.629 -0.6181 -0.3706 -0.0762
   41MOL   C23022710   5.471   4.061   3.585 -0.3615  0.5889 -1.1400
   41MOL   C23122711   5.563   4.103   3.683  0.0177  0.7757 -0.6504
   41MOL   C23222712   5.666   4.196   3.649  0.2620  0.0257 -0.3272
   41MOL   C23322713   5.770   4.230   3.731  1.1219  0.8430 -0.2344
   41MOL   C23422714   5.769   4.167   3.861  0.4574  0.3505  0.0868
   41MOL   C23522715   5.885   4.208   3.951  0.6740 -0.0885  0.2098
   41MOL   O23622716   5.855   4.174   4.080 -0.3278  0.1772 -0.2055
   41MOL   C23722717   5.939   4.204   4.189  0.0852  0.2537  0.2018
   41MOL   C23822718   5.930   4.354   4.216 -0.8939 -0.4416  0.2437
   41MOL   O23922719   5.989   4.253   3.905  0.9815 -0.1558 -0.4609
   41MOL   C24022720   5.664   4.090   3.911 -0.2682 -0.1572  0.4068
   41MOL   C24122721   5.566   4.053   3.821  0.7139  1.3375  0.0492
   41MOL   C24222722   5.457   3.974   3.861  0.7098  0.6947 -0.1331
   41MOL   C24322723   5.360   3.940   3.767  0.0741  0.8078 -0.2356
   41MOL   H24422724   5.468   4.093   3.482  0.2401  1.0142 -1.0274
   41MOL   H24522725   5.669   4.241   3.551  0.9704  0.1738 -0.2428
   41MOL   H24622726   5.848   4.297   3.697  0.1754  1.5614 -1.0349
   41MOL   H24722727   6.035   4.154   4.174  0.0129  0.3472 -0.5779
   41MOL   H24822728   5.893   4.157   4.276  0.1567 -0.7612 -0.2965
   41MOL   H24922729   5.988   4.409   4.142 -2.2543  0.5748 -0.0777
   41MOL   H25022730   5.824   4.381   4.218 -0.7023  0.3268  0.3011
   41MOL   H25122731   5.666   4.039   4.006  1.4448 -0.7752  0.0530
   41MOL   H25222732   5.442   3.925   3.956  4.0076 -2.0203 -0.8994
   41MOL   H25322733   5.275   3.888   3.808  0.8998 -1.0927 -0.8873
   41MOL   O25422734   5.789   4.308   4.466 -0.2397 -0.8463 -0.0789
   41MOL   C25522735   5.905   4.348   4.460 -0.4737 -0.4873 -0.3285
   41MOL   O25622736   5.984   4.381   4.345 -0.3430  0.1149  0.3617
   41MOL   C25722737   5.986   4.374   4.587 -0.7721  0.0432 -0.0988
   41MOL   C25822738   5.933   4.328   4.709 -0.0741  0.4683  0.1361
   41MOL   C25922739   5.994   4.366   4.831  0.6039 -0.4039 -0.0592
   41MOL   C26022740   5.941   4.328   4.959  0.6464  0.7417  0.3382
   41MOL   C26122741   6.004   4.361   5.082  0.0856 -0.5169  0.2147
   41MOL   C26222742   6.115   4.443   5.076  0.7060  0.7527  0.3073
   41MOL   C26322743   6.181   4.465   5.205  0.8332  0.1353  0.1192
   41MOL   O26422744   6.259   4.571   5.203  0.3720  0.3946 -0.3468
   41MOL   C26522745   6.344   4.597   5.325  0.6936  0.3675 -0.0857
   41MOL   C26622746   6.270   4.651   5.443  0.3102  0.9480  1.1807
   41MOL   O26722747   6.171   4.393   5.299  0.4004  0.2624 -0.8702
   41MOL   C26822748   6.174   4.486   4.950  0.1039 -0.7728 -0.2692
   41MOL   C26922749   6.116   4.443   4.830 -0.3813 -0.1784  0.5844
   41MOL   C27022750   6.164   4.491   4.708 -0.0427  1.0632  0.1033
   41MOL   C27122751   6.103   4.452   4.587 -0.3558  0.6569  0.4391
   41MOL   H27222752   5.839   4.275   4.705 -0.5255  0.9820  2.8569
   41MOL   H27322753   5.851   4.268   4.957  2.3532 -1.8823 -1.7595
   41MOL   H27422754   5.976   4.336   5.184 -0.1913  0.1312  0.3040
   41MOL   H27522755   6.397   4.686   5.294 -1.0601  1.8173  0.9533
   41MOL   H27622756   6.410   4.518   5.360 -1.8152 -1.7498  0.0673
   41MOL   H27722757   6.179   4.709   5.427  1.3105  2.2326 -0.0492
   41MOL   H27822758   6.234   4.569   5.506  3.0088 -0.1571  1.3531
   41MOL   H27922759   6.264   4.546   4.948  0.5762 -1.4542  0.1726
   41MOL   H28022760   6.256   4.549   4.707  1.0368 -0.6160  0.2681
   41MOL   H28122761   6.154   4.475   4.495  1.5984  0.2587  1.3986
   41MOL   O28222762   6.469   4.573   5.598 -0.6130  0.1977 -0.0565
   41MOL   C28322763   6.449   4.692   5.584  0.4563 -0.0865 -0.5479
   41MOL   O28422764   6.362   4.742   5.504  0.2822 -0.0122 -0.3762
   41MOL   C28522765   6.527   4.801   5.652 -0.2632 -0.0239  0.0402
   41MOL   C28622766   6.591   4.772   5.780  0.5690  0.5989 -0.3600
   41MOL   C28722767   6.653   4.876   5.854 -0.0598 -0.5863 -0.7494
   41MOL   C28822768   6.705   4.851   5.980  0.5719  0.7489  0.5733
   41MOL   C28922769   6.767   4.959   6.051  0.3881  0.0037  0.0919
   41MOL   C29022770   6.750   5.094   6.008  0.1952 -0.0007 -0.4370
   41MOL   C29122771   6.786   5.204   6.099  0.3676 -0.5204  0.3273
   41MOL   O29222772   6.723   5.317   6.077  0.0249  0.2422 -0.1503
   41MOL   C29322773   6.745   5.429   6.162 -1.2111 -0.1431  0.0644
   41MOL   C29422774   6.701   5.400   6.303  0.3635 -0.0348 -0.0895
   41MOL   O29522775   6.875   5.193   6.187 -0.2382 -0.3980  0.5461
   41MOL   C29622776   6.683   5.116   5.889  0.0056  0.3728  0.0354
   41MOL   C29722777   6.640   5.010   5.812  0.1972  0.6306 -0.0251
   41MOL   C29822778   6.562   5.041   5.696  0.1212  0.7929  0.0215
   41MOL   C29922779   6.517   4.942   5.610 -0.4686 -0.9003  0.8151
   41MOL   H30022780   6.599   4.672   5.820 -0.1110  0.3505 -0.8281
   41MOL   H30122781   6.720   4.756   6.028 -3.1693  0.5334  1.4360
   41MOL   H30222782   6.824   4.938   6.141  0.4042 -3.4338 -0.6762
   41MOL   H30322783   6.676   5.497   6.111 -1.3413  0.2081  0.7011
   41MOL   H30422784   6.853   5.442   6.153 -1.0839 -2.4427 -2.4907
   41MOL   H30522785   6.747   5.317   6.356 -1.5541 -0.7106  0.5632
   41MOL   H30622786   6.707   5.492   6.362  0.2478  0.5419 -0.9624
   41MOL   H30722787   6.664   5.220   5.867  0.0091  0.3962  0.1414
   41MOL   H30822788   6.550   5.146   5.674  0.1677  1.0478  1.1805
   41MOL   H30922789   6.470   4.964   5.515 -1.3268  1.7755  1.8158
   41MOL   O31022790   6.546   5.353   6.517  0.0488 -0.0577 -0.0148
   41MOL   C31122791   6.491   5.345   6.406 -0.2945 -0.6476 -0.0606
   41MOL   O31222792   6.563   5.366   6.295 -0.1963 -0.3785 -0.6060
   41MOL   C31322793   6.358   5.319   6.358 -0.2780 -0.2954  0.0383
   41MOL   C31422794   6.339   5.296   6.221  0.4578  0.4699  0.3024
   41MOL   C31522795   6.222   5.242   6.169 -0.0752 -0.3459  0.3674
   41MOL   C31622796   6.223   5.204   6.034  0.2259  0.2039 -0.0421
   41MOL   C31722797   6.109   5.148   5.980  0.8024  0.2089 -0.6950
   41MOL   C31822798   5.998   5.132   6.055 -0.0425 -0.2120 -0.1181
   41MOL   C31922799   5.879   5.092   5.984 -0.6371 -0.3317 -0.3952
   41MOL   O32022800   5.770   5.165   6.015 -0.1921 -0.3700  0.3711
   41MOL   C32122801   5.678   5.191   5.918  0.1470 -0.0087 -1.1943
   41MOL   C32222802   5.702   5.334   5.881  0.7787 -0.6640  0.4214
   41MOL   O32322803   5.879   5.004   5.896  0.4440  0.1270 -0.3475
   41MOL   C32422804   5.993   5.165   6.193  0.1837 -0.4798  0.1378
   41MOL   C32522805   6.111   5.220   6.255 -0.2766  0.0826  0.0724
   41MOL   C32622806   6.131   5.246   6.396  1.0724 -0.0093  0.1421
   41MOL   C32722807   6.252   5.289   6.448 -1.0467 -0.4313 -0.0499
   41MOL   H32822808   6.414   5.310   6.145 -0.0929  0.6248 -0.2231
   41MOL   H32922809   6.309   5.210   5.970  0.1797  1.9712  0.0256
   41MOL   H33022810   6.116   5.115   5.878 -0.0699  1.5841 -1.2069
   41MOL   H33122811   5.579   5.172   5.960  0.3678  0.6363 -0.3641
   41MOL   H33222812   5.695   5.124   5.834  0.2436  0.9628 -1.9574
   41MOL   H33322813   5.617   5.371   5.824  1.4492 -0.8833 -0.7291
   41MOL   H33422814   5.711   5.394   5.972  1.4387  0.2131 -0.2141
   41MOL   H33522815   5.908   5.144   6.257 -0.8114 -0.0612 -1.0161
   41MOL   H33622816   6.055   5.225   6.470 -0.6683  2.1312 -1.0165
   41MOL   H33722817   6.264   5.310   6.553 -0.5699 -2.3308  0.2826
   41MOL   O33822818   5.769   5.263   5.622  0.1969 -0.2827  0.3659
   41MOL   C33922819   5.854   5.313   5.693 -0.5288 -0.5497 -0.2321
   41MOL   O34022820   5.826   5.365   5.816 -0.1167  0.0529 -0.4922
   41MOL   C34122821   6.000   5.327   5.656 -0.2833 -0.1042 -0.4985
   41MOL   C34222822   6.098   5.365   5.752 -0.1881 -0.6587  0.0816
   41MOL   C34322823   6.235   5.374   5.707  0.1386  0.1922 -0.8387
   41MOL   C34422824   6.338   5.415   5.795  0.3361 -0.0173  0.1049
   41MOL   C34522825   6.473   5.426   5.750  0.4017 -0.0726  0.4049
   41MOL   C34622826   6.506   5.392   5.621 -0.0752  0.0703  0.5410
   41MOL   C34722827   6.646   5.379   5.584 -0.1619 -0.7136 -0.4256
   41MOL   O34822828   6.658   5.302   5.473 -0.1375 -0.0841  0.4919
   41MOL   C34922829   6.783   5.230   5.465 -0.1725  0.1141 -0.6367
   41MOL   C35022830   6.757   5.098   5.380 -0.0804  0.0167  0.9638
   41MOL   O35122831   6.744   5.433   5.644  0.0030  0.3004  0.7742
   41MOL   C35222832   6.406   5.367   5.527 -0.2824  0.7029 -0.6092
   41MOL   C35322833   6.272   5.347   5.568  0.4159 -0.4579 -0.3825
   41MOL   C35422834   6.170   5.311   5.482  0.4625  0.1083 -0.8701
   41MOL   C35522835   6.036   5.306   5.523 -0.3275  0.2756 -0.2219
   41MOL   H35622836   6.067   5.390   5.852  2.0979 -0.8228  0.8524
   41MOL   H35722837   6.328   5.422   5.902 -1.0548 -1.9582  0.1266
   41MOL   H35822838   6.543   5.451   5.828 -0.1516 -1.6830  1.4483
   41MOL   H35922839   6.817   5.207   5.566 -0.6006  0.9536 -0.2994
   41MOL   H36022840   6.866   5.294   5.435  0.8039 -0.7933  0.0552
   41MOL   H36122841   6.834   5.031   5.419  0.8306  0.2309 -0.4307
   41MOL   H36222842   6.657   5.059   5.397 -0.1374 -0.2273  0.0865
   41MOL   H36322843   6.432   5.352   5.423  2.1559 -1.6171  0.2586
   41MOL   H36422844   6.198   5.284   5.381  0.6738 -1.0265 -0.5164
   41MOL   H36522845   5.961   5.277   5.450 -0.8682 -1.2862  0.9207
   41MOL   O36622846   6.914   4.940   5.223 -0.5804  0.4597 -0.4485
   41MOL   C36722847   6.864   5.045   5.179 -0.3782  0.8817 -0.3908
   41MOL   O36822848   6.781   5.125   5.241 -0.0124 -0.0977 -0.3947
   41MOL   C36922849   6.904   5.109   5.050 -0.2360  0.2235  0.4263
   41MOL   C37022850   7.028   5.084   4.991  0.4468 -0.8071 -0.5073
   41MOL   C37122851   7.058   5.159   4.878 -0.5026  0.1790  0.1898
   41MOL   C37222852   7.185   5.145   4.825 -0.4969  0.0927  1.0531
   41MOL   C37322853   7.219   5.209   4.703  0.0472 -0.5240  0.1206
   41MOL   C37422854   7.121   5.283   4.625  0.2331  0.1939 -0.6243
   41MOL   C37522855   7.158   5.370   4.507  0.5924  0.6498  0.3304
   41MOL   O37622856   7.278   5.382   4.483  0.6567  0.5242  0.0580
   41MOL   C37722857   7.330   5.498   4.401  0.5123  0.2684  0.0168
   41MOL   C37822858   7.468   5.452   4.354 -0.2092 -0.4708 -0.3837
   41MOL   O37922859   7.076   5.440   4.439 -0.2099  0.3213 -0.2730
   41MOL   C38022860   6.992   5.297   4.683  0.0149 -0.7946  0.1487
   41MOL   C38122861   6.968   5.235   4.805 -0.2538  0.1770  0.8327
   41MOL   C38222862   6.841   5.251   4.860  0.6457 -0.1804 -0.0032
   41MOL   C38322863   6.802   5.179   4.982  0.3252  0.2799  0.0378
   41MOL   H38422864   7.099   5.020   5.041 -0.4965  0.5013  2.6504
   41MOL   H38522865   7.260   5.090   4.879 -0.8786 -0.9326  0.5567
   41MOL   H38622866   7.322   5.208   4.672  0.3777 -0.1455  1.1797
   41MOL   H38722867   7.339   5.591   4.457  3.1231 -0.8391  1.5483
   41MOL   H38822868   7.271   5.526   4.313  0.5007 -2.4311 -0.8836
   41MOL   H38922869   7.547   5.470   4.426 -0.9732  2.5146 -0.2541
   41MOL   H39022870   7.472   5.343   4.348 -2.0964 -0.5035 -1.6403
   41MOL   H39122871   6.911   5.346   4.631 -0.6896 -3.0201 -0.8966
   41MOL   H39222872   6.758   5.294   4.805  1.8096  0.8765 -0.9694
   41MOL   H39322873   6.700   5.182   5.019  0.4614 -0.4532  0.4686
   41MOL   O39422874   7.520   5.730   4.357  0.6109 -0.2554  0.0202
   41MOL   C39522875   7.515   5.665   4.245 -0.0314  0.4388 -0.7856
   41MOL   O39622876   7.501   5.526   4.236  0.2074  0.0105 -0.4205
   41MOL   C39722877   7.531   5.729   4.111 -0.7964 -0.5750 -0.8219
   41MOL   C39822878   7.580   5.865   4.109  0.7096 -0.0892  0.1626
   41MOL   C39922879   7.592   5.925   3.985 -0.4401  0.1227  0.1236
   41MOL   C40022880   7.632   6.060   3.974 -0.3135  1.0012 -0.5623
   41MOL   C40122881   7.636   6.120   3.845 -0.3781 -0.1640 -0.0668
   41MOL   C40222882   7.604   6.058   3.723 -0.0478  0.5709  0.2728
   41MOL   C40322883   7.623   6.130   3.594 -1.1815  0.0579  0.9810
   41MOL   O40422884   7.619   6.040   3.490 -0.1902 -0.3690 -0.5172
   41MOL   C40522885   7.619   6.091   3.349 -0.9300  0.0702  0.2967
   41MOL   C40622886   7.758   6.139   3.310  0.1655  0.0967  0.4359
   41MOL   O40722887   7.649   6.249   3.587 -0.3942  0.2104 -0.8072
   41MOL   C40822888   7.570   5.923   3.740  0.4849 -0.1647 -0.0137
   41MOL   C40922889   7.556   5.860   3.866 -0.2190  0.3930  0.6468
   41MOL   C41022890   7.517   5.724   3.869  0.1885 -0.6260 -0.4110
   41MOL   C41122891   7.507   5.659   3.991 -1.2186  0.1398 -0.3039
   41MOL   H41222892   7.614   5.912   4.200  0.8260 -0.4237  0.2951
   41MOL   H41322893   7.655   6.111   4.066  1.7845 -0.3176 -0.3233
   41MOL   H41422894   7.681   6.218   3.835  0.3323 -0.8294 -4.1501
   41MOL   H41522895   7.546   6.171   3.337  0.7904  1.3572 -1.8578
   41MOL   H41622896   7.584   6.006   3.290  4.0234 -2.5854  0.9392
   41MOL   H41722897   7.788   6.219   3.378 -1.5641  0.9629  0.2060
   41MOL   H41822898   7.828   6.056   3.320  1.8639  1.5720  1.1632
   41MOL   H41922899   7.543   5.869   3.650  1.6226  1.0953 -1.1387
   41MOL   H42022900   7.503   5.671   3.776  3.5014 -1.2264 -0.6195
   41MOL   H42122901   7.477   5.556   3.999  0.4347 -0.4404 -1.3233
   41MOL   O42222902   7.755   5.978   3.087  0.1255 -0.1729  0.0793
   41MOL   C42322903   7.745   6.097   3.074 -0.0360 -0.1045  0.1508
   41MOL   O42422904   7.754   6.181   3.178  0.3781  0.7349 -0.3465
   41MOL   C42522905   7.728   6.179   2.946 -0.1510 -1.0200 -0.4794
   41MOL   C42622906   7.711   6.321   2.950  0.6018  0.2301 -0.4498
   41MOL   C42722907   7.686   6.393   2.833  0.4206  0.2399  0.1841
   41MOL   C42822908   7.659   6.533   2.831  0.7442  0.3489 -0.0169
   41MOL   C42922909   7.627   6.597   2.708  1.2681  0.6508 -0.6724
   41MOL   C43022910   7.646   6.523   2.583  0.1934  0.5279  0.6916
   41MOL   C43122911   7.624   6.592   2.455  0.1827 -1.1106  0.3108
   41MOL   O43222912   7.577   6.718   2.473  0.0702  0.0903  0.1251
   41MOL   C43322913   7.543   6.805   2.363  0.0492 -0.8105  0.1994
   41MOL   C43422914   7.385   6.806   2.349  0.1045 -0.3170  0.2982
   41MOL   O43522915   7.638   6.537   2.346 -0.0192  0.1059 -0.2276
   41MOL   C43622916   7.682   6.385   2.584  0.1544  0.5704  0.2545
   41MOL   C43722917   7.703   6.322   2.712  0.3166  0.9523 -0.0913
   41MOL   C43822918   7.736   6.183   2.713 -0.0230  0.3235  0.1987
   41MOL   C43922919   7.745   6.108   2.827  0.4332  0.5379  0.1558
   41MOL   H44022920   7.709   6.377   3.042 -1.1429 -0.2475 -0.1761
   41MOL   H44122921   7.656   6.587   2.924 -2.3835  2.2515 -1.1575
   41MOL   H44222922   7.598   6.701   2.706  1.7407  0.8237  0.7748
   41MOL   H44322923   7.587   6.771   2.269 -0.8924  0.2881 -0.6529
   41MOL   H44422924   7.569   6.909   2.382 -1.5521 -0.1407 -1.1621
   41MOL   H44522925   7.341   6.828   2.447  1.7887  2.2547  0.5189
   41MOL   H44622926   7.356   6.892   2.289 -2.3100 -0.5415  1.0957
   41MOL   H44722927   7.687   6.322   2.496 -0.5282 -1.6041  1.7359
   41MOL   H44822928   7.753   6.129   2.621 -1.7280  0.6129 -0.3023
   41MOL   H44922929   7.777   6.004   2.831  3.1034  1.3239  0.3001
   41MOL   O45022930   7.133   6.763   2.292  0.0279  0.0835  0.2715
   41MOL   C45122931   7.207   6.666   2.283  1.0828  0.1345 -0.4072
   41MOL   O45222932   7.339   6.682   2.296 -0.0800 -0.2863  0.0551
   41MOL   C45322933   7.167   6.520   2.270  0.5341  0.4504 -0.4673
   41MOL   C45422934   7.047   6.474   2.222  0.5250  0.6235  0.3437
   41MOL   C45522935   7.022   6.334   2.202 -0.0819  0.0018  0.4881
   41MOL   C45622936   6.899   6.294   2.154 -0.5975  0.4760  0.2316
   41MOL   C45722937   6.875   6.157   2.128  0.5391 -0.0223  0.1538
   41MOL   C45822938   6.974   6.060   2.160 -0.3322 -0.0320  0.4438
   41MOL   C45922939   6.948   5.908   2.139  0.4799  0.1864 -0.2889
   41MOL   O46022940   7.036   5.829   2.204  0.4694 -0.6637 -0.7558
   41MOL   C46122941   7.023   5.684   2.201  0.4254  0.1495 -0.1937
   41MOL   C46222942   6.926   5.657   2.324 -0.0314  0.0231 -0.2754
   41MOL   O46322943   6.859   5.867   2.065 -0.1690 -0.7170  0.0750
   41MOL   C46422944   7.094   6.101   2.219  0.6837  0.3051 -0.2006
   41MOL   C46522945   7.115   6.235   2.242  0.3544 -0.0833 -0.4002
   41MOL   C46622946   7.239   6.275   2.287  0.0341 -0.1367  0.2858
   41MOL   C46722947   7.259   6.417   2.303 -0.4253 -0.7566  0.1040
   41MOL   H46822948   6.973   6.538   2.177  1.8016  0.2593 -2.4157
   41MOL   H46922949   6.811   6.355   2.140 -1.3732 -0.8650 -0.8424
   41MOL   H47022950   6.783   6.123   2.084 -0.5964 -0.1275  2.5626
   41MOL   H47122951   7.124   5.644   2.211  0.4883 -0.0499 -1.5830
   41MOL   H47222952   6.973   5.641   2.114 -1.7835 -2.8351  2.4287
   41MOL   H47322953   6.938   5.557   2.365  1.7557  1.1462  2.0194
   41MOL   H47422954   6.946   5.720   2.410 -1.1461  0.8576 -0.6185
   41MOL   H47522955   7.170   6.031   2.249 -0.0134 -0.3111  0.1446
   41MOL   H47622956   7.316   6.202   2.306 -0.9218 -1.0727  0.5989
   41MOL   H47722957   7.354   6.454   2.337 -0.6030  1.8642 -2.1359
   41MOL   O47822958   6.785   5.458   2.200  0.3686 -0.0134  0.3344
   41MOL   C47922959   6.735   5.572   2.200 -0.1105  0.4386  0.0014
   41MOL   O48022960   6.794   5.676   2.266 -0.2507  0.3070  0.0389
   41MOL   C48122961   6.609   5.599   2.130 -0.5841 -0.0754 -0.2320
   41MOL   C48222962   6.555   5.731   2.134 -0.0361 -0.0589 -0.1068
   41MOL   C48322963   6.419   5.744   2.110 -0.3799  0.1349  1.0088
   41MOL   C48422964   6.358   5.870   2.122 -0.3183  0.1031  0.1170
   41MOL   C48522965   6.231   5.885   2.073  0.2590  0.6078 -0.9704
   41MOL   C48622966   6.156   5.780   2.026  0.1876  0.1692 -0.3299
   41MOL   C48722967   6.021   5.795   1.959 -1.1916  0.3889 -0.2595
   41MOL   O48822968   5.964   5.913   1.987 -0.4416  0.5067 -0.2590
   41MOL   C48922969   5.828   5.934   1.947  0.5174  0.1603  0.7464
   41MOL   C49022970   5.728   5.841   2.026 -0.1855  0.6030 -0.3799
   41MOL   O49122971   5.969   5.717   1.886 -0.3492  0.0219 -0.2696
   41MOL   C49222972   6.214   5.650   2.018 -0.7124 -0.5497 -0.6203
   41MOL   C49322973   6.348   5.632   2.058 -0.3223 -0.1102  0.5602
   41MOL   C49422974   6.408   5.509   2.038 -0.1428  0.0656 -0.2807
   41MOL   C49522975   6.544   5.496   2.071  0.2926 -0.2743  0.8287
   41MOL   H49622976   6.606   5.812   2.184 -0.2060  1.4003 -2.2356
   41MOL   H49722977   6.407   5.963   2.145 -1.6113  0.5240  1.1759
   41MOL   H49822978   6.195   5.987   2.074  0.6890  0.7584  1.0588
   41MOL   H49922979   5.820   5.922   1.839 -3.0954  0.7506  0.9147
   41MOL   H50022980   5.797   6.038   1.961 -1.3950 -0.2426 -0.3214
   41MOL   H50122981   5.780   5.746   2.040 -0.7252  0.3710  0.0620
   41MOL   H50222982   5.699   5.892   2.118  0.7078  0.0576  0.2215
   41MOL   H50322983   6.160   5.562   1.986 -1.3747 -0.4508  0.2173
   41MOL   H50422984   6.359   5.418   2.007 -0.3205 -0.6717  2.0206
   41MOL   H50522985   6.588   5.398   2.068  0.6739 -0.0546 -2.9076
   41MOL   O50622986   5.487   5.976   2.064 -0.2168 -0.4621  0.1759
   41MOL   C50722987   5.499   5.886   1.980  0.2208 -0.2114 -0.1810
   41MOL   O50822988   5.612   5.813   1.959  0.7353  0.4227 -0.2303
   41MOL   C50922989   5.384   5.835   1.899 -0.2843 -0.0885  0.4371
   41MOL   C51022990   5.395   5.714   1.828 -0.3513 -0.0713 -0.9943
   41MOL   C51122991   5.282   5.662   1.760 -0.9675 -0.2161 -0.3045
   41MOL   C51222992   5.284   5.539   1.688 -0.7018  0.2372  0.1719
   41MOL   C51322993   5.169   5.483   1.626 -0.6730 -0.4735 -0.5306
   41MOL   C51422994   5.041   5.550   1.639  0.5945 -0.4011 -0.3485
   41MOL   C51522995   4.920   5.485   1.585 -0.0605  0.4401  0.1423
   41MOL   O51622996   4.800   5.528   1.649  1.1860  1.0845 -0.0637
   41MOL   C51722997   4.679   5.492   1.584  0.2231 -0.2280  0.0150
   41MOL   C51822998   4.647   5.591   1.473 -0.3442 -0.1497 -1.2046
   41MOL   O51922999   4.918   5.405   1.493 -0.0248  0.2129 -0.1179
   41MOL   C52023000   5.042   5.669   1.715 -0.1529  0.2066 -0.4220
   41MOL   C52123001   5.156   5.726   1.766  0.0610 -0.7726  0.3222
   41MOL   C52223002   5.146   5.856   1.831 -0.2450 -0.2232  0.6878
   41MOL   C52323003   5.259   5.905   1.899  0.4754  0.1070  0.1453
   41MOL   H52423004   5.488   5.660   1.832  0.3526  0.9893 -2.4601
   41MOL   H52523005   5.370   5.475   1.676  0.9551  1.8162  3.2165
   41MOL   H52623006   5.177   5.386   1.579 -1.3871 -0.5748 -0.4582
   41MOL   H52723007   4.598   5.501   1.657  0.5928 -1.6622  0.6117
   41MOL   H52823008   4.674   5.391   1.543 -1.3388 -0.3447  0.4428
   41MOL   H52923009   4.731   5.609   1.406  1.6063  1.5446  1.5435
   41MOL   H53023010   4.561   5.564   1.412 -0.4855  0.3008 -1.2114
   41MOL   H53123011   4.950   5.720   1.736 -1.1833 -0.3500 -3.3934
   41MOL   H53223012   5.055   5.916   1.831 -1.2201 -1.6826 -0.5776
   41MOL   H53323013   5.256   5.997   1.955  0.0516  0.4080 -0.3654
   41MOL   O53423014   4.405   5.734   1.502 -0.6594 -0.4122  0.0558
   41MOL   C53523015   4.502   5.771   1.568  0.5874  0.2400  0.5398
   41MOL   O53623016   4.624   5.723   1.533  0.1824  0.5991 -0.1756
   41MOL   C53723017   4.495   5.872   1.674 -0.8073 -0.8065 -0.7124
   41MOL   C53823018   4.367   5.913   1.721 -0.3187 -0.6100 -0.1749
   41MOL   C53923019   4.356   6.001   1.833 -0.2769 -0.3290  0.2225
   41MOL   C54023020   4.231   6.034   1.888  0.0788 -0.0502  0.1573
   41MOL   C54123021   4.223   6.109   2.001 -0.0003  0.2470  0.3507
   41MOL   C54223022   4.342   6.158   2.053  0.1161  0.3607  0.0856
   41MOL   C54323023   4.318   6.224   2.180 -0.0702 -0.5783  0.3295
   41MOL   O54423024   4.422   6.217   2.257 -0.1227  0.1787 -0.6727
   41MOL   C54523025   4.414   6.213   2.401  0.2740 -0.0448  0.3765
   41MOL   C54623026   4.456   6.077   2.457  0.0810  0.0127 -0.1684
   41MOL   O54723027   4.212   6.286   2.215  0.1437 -0.0494  0.7055
   41MOL   C54823028   4.466   6.134   2.001  0.0435 -0.2581 -0.8723
   41MOL   C54923029   4.469   6.058   1.887 -0.5925  0.4914 -0.6172
   41MOL   C55023030   4.594   6.025   1.831 -0.1423 -0.2305  0.1467
   41MOL   C55123031   4.609   5.935   1.730  0.3877  0.1639 -0.1957
   41MOL   H55223032   4.284   5.859   1.678 -0.6633  1.1780 -1.8239
   41MOL   H55323033   4.137   5.996   1.852 -1.2797  1.8685  1.6064
   41MOL   H55423034   4.131   6.110   2.058  0.4241  1.4846  1.0544
   41MOL   H55523035   4.320   6.247   2.446 -1.2304 -0.7815 -2.1479
   41MOL   H55623036   4.484   6.292   2.430 -1.3168  0.8627  1.7975
   41MOL   H55723037   4.517   6.088   2.546  1.4109  2.1995 -1.3060
   41MOL   H55823038   4.497   6.017   2.376 -0.8428 -0.1634 -0.5178
   41MOL   H55923039   4.553   6.172   2.054 -0.5735 -1.1631  0.8285
   41MOL   H56023040   4.677   6.081   1.871 -0.6422  1.3150 -0.9477
   41MOL   H56123041   4.710   5.925   1.692  0.2310  0.1130 -0.5999
   41MOL   H56223042   4.366   6.025   2.491 -2.0452  1.8859 -2.7409
   42MOL     O123043   4.668   1.316   7.084  0.0473  0.4735 -0.2322
   42MOL     C223044   4.748   1.265   7.157  0.4004  0.0613  0.4474
   42MOL     O323045   4.760   1.129   7.167  0.6595 -0.4992 -0.5048
   42MOL     C423046   4.801   1.337   7.278  0.7926  0.0612 -1.1404
   42MOL     C523047   4.910   1.282   7.349  0.0398  0.4104  0.5759
   42MOL     C623048   4.965   1.356   7.454  0.6628 -0.2605 -0.1910
   42MOL     C723049   5.080   1.309   7.511 -0.1083  0.0179  0.2052
   42MOL     C823050   5.131   1.383   7.621 -0.4941 -0.1062  0.1578
   42MOL     C923051   5.072   1.499   7.665 -0.3632  0.6714 -0.3795
   42MOL    C1023052   5.133   1.577   7.786 -0.5811  0.0826  0.2415
   42MOL    O1123053   5.098   1.711   7.778 -0.6742 -0.0200 -0.1564
   42MOL    C1223054   5.124   1.813   7.880  0.4484 -0.3041 -0.2340
   42MOL    C1323055   5.057   1.763   8.011  0.3206 -0.4178  0.2223
   42MOL    O1423056   5.216   1.531   7.860 -0.4165  0.8953 -0.0964
   42MOL    C1523057   4.954   1.543   7.605  0.8481  0.2467 -0.4895
   42MOL    C1623058   4.896   1.471   7.499 -0.4728  0.5279 -0.6924
   42MOL    C1723059   4.779   1.515   7.433 -0.1238  0.8205 -0.0016
   42MOL    C1823060   4.736   1.453   7.315  0.2379  0.2815  0.8230
   42MOL    H1923061   4.966   1.196   7.317 -0.1947 -0.1441  1.6280
   42MOL    H2023062   5.137   1.223   7.482 -0.4143 -0.1508  0.0995
   42MOL    H2123063   5.223   1.349   7.668  0.4915  0.0674 -1.5988
   42MOL    H2223064   5.230   1.831   7.895  0.6355 -2.4480  1.1898
   42MOL    H2323065   5.069   1.903   7.852 -1.1806 -0.4840  2.2075
   42MOL    H2423066   5.112   1.679   8.053  0.0360 -0.5088  0.4153
   42MOL    H2523067   5.062   1.849   8.078  2.2169  0.2163 -0.6926
   42MOL    H2623068   4.914   1.637   7.641  1.7444  0.2239  0.6070
   42MOL    H2723069   4.725   1.603   7.464 -1.9584 -0.3420  0.2067
   42MOL    H2823070   4.664   1.500   7.249  1.0850 -1.3062 -1.3132
   42MOL    H2923071   4.683   1.098   7.121 -0.5306  1.5830  0.0219
   42MOL    O3023072   4.843   1.934   7.984 -0.8374 -0.6007 -0.2465
   42MOL    C3123073   4.827   1.813   7.976 -0.4271 -0.1972 -0.9993
   42MOL    O3223074   4.927   1.723   7.988  0.4025  0.1670 -0.1496
   42MOL    C3323075   4.696   1.750   7.947  0.0893 -0.3458 -0.1714
   42MOL    C3423076   4.578   1.806   7.979  0.3077 -0.4054 -0.5113
   42MOL    C3523077   4.450   1.764   7.928  0.1848 -0.0901  0.1183
   42MOL    C3623078   4.333   1.841   7.951 -0.1177 -0.1282 -0.8402
   42MOL    C3723079   4.210   1.795   7.899 -0.8830 -0.7623 -0.1942
   42MOL    C3823080   4.204   1.677   7.820  0.3534 -0.2685 -0.3128
   42MOL    C3923081   4.070   1.638   7.770  0.2754 -0.1023  0.5808
   42MOL    O4023082   4.065   1.516   7.721  0.0143 -0.0117 -0.2803
   42MOL    C4123083   3.947   1.469   7.651 -0.0552 -0.0430 -0.2322
   42MOL    C4223084   3.970   1.324   7.589  0.4272 -0.8284 -0.3686
   42MOL    O4323085   3.969   1.707   7.778  0.5270  0.5228  0.0612
   42MOL    C4423086   4.322   1.600   7.789 -0.3385 -0.4940  0.9658
   42MOL    C4523087   4.447   1.644   7.852 -0.3541 -0.3886  0.6263
   42MOL    C4623088   4.566   1.562   7.835 -0.2883 -0.3362  0.1347
   42MOL    C4723089   4.688   1.622   7.881  1.0156 -0.6119 -0.7084
   42MOL    H4823090   4.570   1.900   8.032  1.2263 -0.7503  0.2573
   42MOL    H4923091   4.341   1.931   8.009  3.3215  0.2659 -1.8442
   42MOL    H5023092   4.127   1.864   7.909 -0.0474  0.0700  1.1867
   42MOL    H5123093   3.922   1.542   7.574 -0.2202  0.0880 -0.0538
   42MOL    H5223094   3.867   1.468   7.725  0.1581 -0.5456 -0.0045
   42MOL    H5323095   4.029   1.256   7.651  0.0371 -0.0561  0.8684
   42MOL    H5423096   3.876   1.275   7.566  0.1554 -1.2284  1.5437
   42MOL    H5523097   4.315   1.515   7.723  1.5347  0.2101 -0.1655
   42MOL    H5623098   4.566   1.463   7.791  1.2743  0.1157 -0.9568
   42MOL    H5723099   4.772   1.558   7.859 -0.6466 -3.2993  0.3664
   42MOL    O5823100   4.239   1.315   7.540  1.0259 -0.0634  0.1846
   42MOL    C5923101   4.165   1.332   7.441  0.3901  0.4517 -0.3357
   42MOL    O6023102   4.030   1.329   7.463 -0.5250 -0.0453 -0.2674
   42MOL    C6123103   4.203   1.359   7.300 -0.2517 -0.2159 -0.2445
   42MOL    C6223104   4.110   1.328   7.196  0.1455 -0.0397 -0.0743
   42MOL    C6323105   4.151   1.326   7.060  0.6868 -0.4733 -0.3910
   42MOL    C6423106   4.060   1.284   6.964  0.1142  0.2318 -0.6976
   42MOL    C6523107   4.093   1.298   6.825 -0.0041  0.5493  0.4167
   42MOL    C6623108   4.216   1.357   6.788  0.2410 -0.0100 -0.1472
   42MOL    C6723109   4.250   1.378   6.640 -0.3514  0.1721 -0.0091
   42MOL    O6823110   4.381   1.402   6.618 -0.4387  0.4035  0.7973
   42MOL    C6923111   4.433   1.410   6.488  0.1168 -0.4285 -0.4010
   42MOL    C7023112   4.442   1.282   6.411 -1.0657 -0.6433 -0.2264
   42MOL    O7123113   4.159   1.380   6.558 -0.6444 -0.0507  0.0119
   42MOL    C7223114   4.310   1.384   6.891 -0.0696 -1.0434  0.2662
   42MOL    C7323115   4.275   1.371   7.029 -0.1462 -0.0480  0.1032
   42MOL    C7423116   4.370   1.404   7.131 -0.3390  0.2121  0.6264
   42MOL    C7523117   4.336   1.408   7.268 -0.0274  0.1248 -0.0666
   42MOL    H7623118   4.014   1.282   7.219  0.0611 -0.3456 -1.0221
   42MOL    H7723119   3.962   1.247   6.989 -0.5253  2.0324 -0.4511
   42MOL    H7823120   4.022   1.273   6.748  0.5603 -0.0617  0.0807
   42MOL    H7923121   4.534   1.450   6.495 -0.4168  0.7964  0.5581
   42MOL    H8023122   4.372   1.479   6.429  0.6633  1.2654  0.9685
   42MOL    H8123123   4.533   1.282   6.351 -0.8801 -0.6948  0.0533
   42MOL    H8223124   4.454   1.190   6.467 -0.0814  0.8523  2.0962
   42MOL    H8323125   4.415   1.408   6.876 -0.5382  0.5833 -0.4913
   42MOL    H8423126   4.458   1.453   7.092 -0.9713  1.4457  0.7230
   42MOL    H8523127   4.410   1.423   7.345 -1.6742 -0.6162  1.6939
   42MOL    O8623128   4.389   1.358   6.144 -0.1275  0.1221  0.0382
   42MOL    C8723129   4.313   1.290   6.203 -0.7240 -0.3377 -0.0724
   42MOL    O8823130   4.326   1.260   6.330  0.1584  0.2395 -0.6383
   42MOL    C8923131   4.182   1.249   6.155 -0.1552 -0.1447  0.4678
   42MOL    C9023132   4.118   1.321   6.055 -0.3387 -0.1568  0.2024
   42MOL    C9123133   3.996   1.273   6.000 -0.2721  0.9798  0.0571
   42MOL    C9223134   3.937   1.343   5.894 -0.7453 -0.7241 -0.0209
   42MOL    C9323135   3.813   1.300   5.842 -0.1129 -0.2545  0.4042
   42MOL    C9423136   3.752   1.180   5.895  0.6382  0.4312  1.0695
   42MOL    C9523137   3.625   1.125   5.833  0.3677  0.6960  0.0509
   42MOL    O9623138   3.623   1.148   5.699 -0.2662 -0.0809 -0.1528
   42MOL    C9723139   3.513   1.116   5.622 -0.0370  0.2525 -0.1525
   42MOL    C9823140   3.562   1.040   5.498 -0.6423 -0.3708  0.0949
   42MOL    O9923141   3.536   1.072   5.897 -0.2145  0.4145 -0.2167
   42MOL   C10023142   3.814   1.108   6.000 -0.1165  0.0436  0.3290
   42MOL   C10123143   3.930   1.161   6.056 -0.0874  0.5641  0.1764
   42MOL   C10223144   3.996   1.085   6.149  0.4777  0.1829 -1.2065
   42MOL   C10323145   4.126   1.121   6.196 -1.1474 -0.2881 -0.3905
   42MOL   H10423146   4.155   1.408   6.002  0.2349 -0.7573 -0.3962
   42MOL   H10523147   3.979   1.434   5.853 -1.7870  1.3182  3.2109
   42MOL   H10623148   3.764   1.353   5.761  1.0479 -0.5054 -0.4690
   42MOL   H10723149   3.454   1.207   5.607  1.0514  0.9900 -0.0277
   42MOL   H10823150   3.455   1.049   5.685 -0.3102 -0.2600 -0.9340
   42MOL   H10923151   3.480   1.008   5.433  0.3652 -2.4676 -0.2115
   42MOL   H11023152   3.628   1.098   5.433  0.5409 -1.2878  0.4385
   42MOL   H11123153   3.775   1.014   6.036 -0.4143 -0.7609 -2.0277
   42MOL   H11223154   3.951   0.995   6.188 -0.9114  1.0174 -0.8535
   42MOL   H11323155   4.187   1.058   6.259 -0.5741 -0.6897 -1.3358
   42MOL   O11423156   3.615   0.817   5.341  0.2474  0.0381  0.2982
   42MOL   C11523157   3.647   0.818   5.460  0.0136 -0.0037 -0.7871
   42MOL   O11623158   3.619   0.920   5.545 -0.6313  0.0550 -0.6647
   42MOL   C11723159   3.705   0.697   5.529 -0.5557 -0.0188  0.1162
   42MOL   C11823160   3.794   0.713   5.641  0.3531  0.7187 -0.1213
   42MOL   C11923161   3.850   0.596   5.700  0.3121 -0.4317 -0.0200
   42MOL   C12023162   3.928   0.608   5.818  0.0888  0.0977  0.2626
   42MOL   C12123163   3.980   0.491   5.872  0.3355 -0.4061 -0.4819
   42MOL   C12223164   3.975   0.360   5.808  0.2464 -0.2034 -0.2199
   42MOL   C12323165   4.030   0.238   5.885  0.1195 -0.1742 -0.4200
   42MOL   O12423166   4.150   0.256   5.956  0.2019  0.2238  0.2196
   42MOL   C12523167   4.211   0.141   6.022 -0.4424 -0.4794 -0.2479
   42MOL   C12623168   4.138   0.098   6.153 -0.8859 -0.1250 -0.0367
   42MOL   O12723169   3.965   0.134   5.877 -0.0942 -0.2247  0.2298
   42MOL   C12823170   3.901   0.351   5.687  0.0736  0.4711  0.2813
   42MOL   C12923171   3.840   0.467   5.640  0.7280  0.3814 -0.0273
   42MOL   C13023172   3.753   0.458   5.530  0.2302  0.2788  0.8957
   42MOL   C13123173   3.690   0.570   5.474  0.1659 -0.1413  0.7285
   42MOL   H13223174   3.814   0.810   5.685  1.3934 -0.0544  1.1223
   42MOL   H13323175   3.940   0.707   5.860  0.1639 -0.0453  0.5776
   42MOL   H13423176   4.048   0.507   5.955  2.6745  0.4209 -2.5303
   42MOL   H13523177   4.313   0.165   6.050 -1.1088  1.3886  0.6461
   42MOL   H13623178   4.209   0.058   5.952 -4.1473 -0.1585 -0.6396
   42MOL   H13723179   4.034   0.080   6.123 -0.6119 -0.4926 -0.7736
   42MOL   H13823180   4.177   0.001   6.185  0.9608 -0.5346 -3.3100
   42MOL   H13923181   3.898   0.250   5.649  0.0749  0.4340  0.3795
   42MOL   H14023182   3.730   0.357   5.497  1.8288  0.7087 -1.6934
   42MOL   H14123183   3.619   0.568   5.392  2.6683 -1.2961 -1.5010
   42MOL   O14223184   3.940   0.285   6.206  0.0208 -0.1346  0.4803
   42MOL   C14323185   4.050   0.287   6.267 -0.5101  0.4632 -0.5999
   42MOL   O14423186   4.146   0.194   6.250 -1.0642 -0.4553 -0.0611
   42MOL   C14523187   4.094   0.394   6.353  0.0249 -0.2128  0.5810
   42MOL   C14623188   4.038   0.519   6.320  0.1836  0.4089 -0.3704
   42MOL   C14723189   4.085   0.628   6.392 -0.3126  0.4461 -0.2125
   42MOL   C14823190   4.033   0.759   6.372 -0.4174 -0.4959  0.2838
   42MOL   C14923191   4.083   0.868   6.443  0.0750 -0.0068 -0.3514
   42MOL   C15023192   4.187   0.851   6.535 -0.5871 -0.4232 -0.3889
   42MOL   C15123193   4.246   0.973   6.599  0.4063 -0.0402 -0.0666
   42MOL   O15223194   4.297   0.943   6.716 -0.0929 -0.1097  0.3180
   42MOL   C15323195   4.375   1.042   6.789 -0.2965 -0.4195  0.4324
   42MOL   C15423196   4.518   1.052   6.734 -0.5653 -0.0175 -0.0926
   42MOL   O15523197   4.255   1.080   6.535  0.2119 -0.4654 -0.0883
   42MOL   C15623198   4.225   0.720   6.574 -0.3166 -0.6320 -0.5184
   42MOL   C15723199   4.176   0.608   6.500 -0.4302 -0.2071  0.5202
   42MOL   C15823200   4.218   0.482   6.536  0.3302 -0.3254  0.3004
   42MOL   C15923201   4.176   0.373   6.465  0.3514  0.4208  0.2193
   42MOL   H16023202   3.972   0.529   6.235  0.6466 -3.0575 -1.1877
   42MOL   H16123203   3.959   0.778   6.296  2.3253 -0.2641 -2.4207
   42MOL   H16223204   4.054   0.971   6.433  0.4385 -0.0566 -2.1555
   42MOL   H16323205   4.382   1.017   6.895 -0.0163  0.3465  0.6008
   42MOL   H16423206   4.329   1.140   6.781 -0.4772 -0.6177 -1.0459
   42MOL   H16523207   4.512   1.084   6.630 -1.1318 -1.6618 -0.5784
   42MOL   H16623208   4.576   1.131   6.782  0.8722 -2.3976  2.2790
   42MOL   H16723209   4.308   0.700   6.641 -0.0727 -0.3159 -0.7261
   42MOL   H16823210   4.285   0.459   6.618 -1.5221 -0.6663  1.7432
   42MOL   H16923211   4.203   0.272   6.492  0.4374 -0.0792 -1.6628
   42MOL   O17023212   4.668   0.983   6.946  0.2648 -0.0206  0.1000
   42MOL   C17123213   4.637   0.896   6.867  0.2775  0.6285  0.0364
   42MOL   O17223214   4.575   0.926   6.754 -0.8419  0.6090 -0.2802
   42MOL   C17323215   4.664   0.753   6.877 -0.0751  0.4588 -0.0413
   42MOL   C17423216   4.612   0.656   6.784  0.3358 -0.1687  0.3219
   42MOL   C17523217   4.634   0.518   6.799  0.7246  1.1619  0.1575
   42MOL   C17623218   4.569   0.429   6.713 -0.6036 -0.0305 -0.6151
   42MOL   C17723219   4.603   0.293   6.725  0.1375  0.9053 -0.6940
   42MOL   C17823220   4.676   0.236   6.829 -0.1105  0.7992 -0.5423
   42MOL   C17923221   4.691   0.084   6.849 -0.0312  0.0898  0.8379
   42MOL   O18023222   4.616   0.013   6.755 -0.1836 -0.5153  0.4497
   42MOL   C18123223   4.589   8.120   6.778  0.1417  0.5808  0.5271
   42MOL   C18223224   4.481   8.105   6.880 -0.1650 -0.0401 -0.4583
   42MOL   O18323225   4.763   0.030   6.932 -0.0096  0.2107  0.0461
   42MOL   C18423226   4.723   0.333   6.927 -0.6298 -0.0669  1.5256
   42MOL   C18523227   4.708   0.470   6.907 -0.2536 -0.4590  0.0968
   42MOL   C18623228   4.759   0.566   6.998 -0.0110  0.7003 -0.2424
   42MOL   C18723229   4.737   0.702   6.987  0.4976 -0.2481  0.1204
   42MOL   H18823230   4.548   0.693   6.705  1.3569  3.2591  1.0021
   42MOL   H18923231   4.506   0.473   6.637 -0.0504 -0.6279 -1.4264
   42MOL   H19023232   4.561   0.226   6.651 -1.1117  0.2730  0.5836
   42MOL   H19123233   4.683   8.072   6.805 -0.7151 -1.5941 -0.2587
   42MOL   H19223234   4.567   8.068   6.684  0.2430 -0.2369  0.9493
   42MOL   H19323235   4.485   8.009   6.931 -3.5372  0.9230  1.7620
   42MOL   H19423236   4.492   8.185   6.952 -2.0240  1.8807 -2.2485
   42MOL   H19523237   4.783   0.304   7.012 -0.1728 -1.2690  0.8137
   42MOL   H19623238   4.811   0.537   7.089 -0.9767 -1.9112 -0.4841
   42MOL   H19723239   4.781   0.771   7.057 -0.7090  0.6385  0.0165
   42MOL   O19823240   4.274   0.049   6.921 -0.0101 -0.2808 -0.0541
   42MOL   C19923241   4.262   8.214   6.832  0.7626 -0.5557  0.2548
   42MOL   O20023242   4.355   8.114   6.812 -0.4807 -0.5355 -0.4096
   42MOL   C20123243   4.153   8.217   6.732 -0.8174 -0.1957 -0.2423
   42MOL   C20223244   4.055   0.072   6.738  0.2340  0.9817 -0.2027
   42MOL   C20323245   3.972   0.089   6.627 -0.5795 -0.4249  0.0166
   42MOL   C20423246   3.871   0.191   6.630  0.6322  0.1270 -0.3980
   42MOL   C20523247   3.783   0.200   6.517 -0.0760  0.5681  0.1265
   42MOL   C20623248   3.787   0.103   6.416 -0.8011 -0.2186  0.1905
   42MOL   C20723249   3.702   0.102   6.297  0.1535 -0.3059 -0.3290
   42MOL   O20823250   3.595   0.185   6.310  0.8508  0.4271 -0.0537
   42MOL   C20923251   3.488   0.183   6.220 -0.3240 -0.4215 -0.5872
   42MOL   C21023252   3.394   0.062   6.250  0.1173 -0.1219  0.0463
   42MOL   O21123253   3.702   0.019   6.200 -0.7472 -0.4963  0.1683
   42MOL   C21223254   3.888   0.003   6.422  0.1097  0.8485  0.4357
   42MOL   C21323255   3.978   8.237   6.522  0.3539  0.2295  0.2217
   42MOL   C21423256   4.069   8.130   6.524  0.0819 -0.0596 -0.1755
   42MOL   C21523257   4.156   8.118   6.630 -0.6962  0.6383 -0.1991
   42MOL   H21623258   4.061   0.153   6.809  0.3204  0.0728  0.8389
   42MOL   H21723259   3.856   0.258   6.713  2.0964  1.1774 -0.9632
   42MOL   H21823260   3.705   0.273   6.534 -1.2194 -0.6937  0.4463
   42MOL   H21923261   3.532   0.172   6.121  1.1428  0.4448 -0.0529
   42MOL   H22023262   3.433   0.277   6.219 -0.6182 -0.5999 -1.5690
   42MOL   H22123263   3.462   8.231   6.278  1.9141  1.8499  1.5695
   42MOL   H22223264   3.332   0.093   6.334  0.0352  1.4324 -0.5593
   42MOL   H22323265   3.903   8.184   6.340  3.0978 -1.0619  2.4627
   42MOL   H22423266   4.066   8.066   6.437  1.3062 -0.2623 -0.0892
   42MOL   H22523267   4.235   8.045   6.631  0.2826  1.6374  3.0415
   42MOL   O22623268   3.394   8.074   6.102 -0.2907  0.1939 -0.4268
   42MOL   C22723269   3.332   8.173   6.059  0.0020 -1.0725  0.1106
   42MOL   O22823270   3.315   0.039   6.131 -0.2719  0.0379  0.3212
   42MOL   C22923271   3.263   8.177   5.927  0.0533 -0.2370  0.9157
   42MOL   C23023272   3.208   8.058   5.877  0.2168  0.0603  0.7937
   42MOL   C23123273   3.145   8.057   5.747  0.2206 -0.3674  0.2470
   42MOL   C23223274   3.101   7.939   5.683 -0.3106 -0.7081  0.2351
   42MOL   C23323275   3.052   7.944   5.550 -0.2279  0.3504  0.4967
   42MOL   C23423276   3.022   8.068   5.485  0.1000  0.1711  0.1398
   42MOL   C23523277   2.943   8.073   5.355  0.0931  0.3656 -0.0144
   42MOL   O23623278   2.915   8.198   5.317  0.1435  0.4783 -0.5396
   42MOL   C23723279   2.833   8.223   5.206  0.0623 -0.7384  0.2970
   42MOL   C23823280   2.867   0.115   5.157 -0.2534  0.1677 -0.2457
   42MOL   O23923281   2.907   7.974   5.286 -0.2813  0.4945 -0.9187
   42MOL   C24023282   3.055   8.190   5.559 -0.5461 -0.1562  0.4831
   42MOL   C24123283   3.128   8.179   5.679  0.4419  0.5328  0.1818
   42MOL   C24223284   3.169   0.052   5.733 -1.0137  0.3664 -0.8777
   42MOL   C24323285   3.240   0.050   5.855 -0.5395  0.0505 -0.6203
   42MOL   H24423286   3.216   7.966   5.933 -2.8594  0.2041  1.5644
   42MOL   H24523287   3.109   7.841   5.728 -2.2727 -1.3802 -0.8237
   42MOL   H24623288   3.035   7.850   5.501 -0.0943  0.6434 -0.1200
   42MOL   H24723289   2.730   8.210   5.240 -0.1476 -0.9812 -0.4033
   42MOL   H24823290   2.844   8.154   5.121 -0.4153  0.1970 -0.5361
   42MOL   H24923291   2.976   0.117   5.147 -0.3284  0.5403 -0.9868
   42MOL   H25023292   2.845   0.117   5.050 -2.3898  1.6742  0.2020
   42MOL   H25123293   3.049   0.035   5.507  0.5182  0.1420  0.8838
   42MOL   H25223294   3.138   0.143   5.684  0.4627 -0.2285 -2.9933
   42MOL   H25323295   3.276   0.138   5.906  1.4837 -1.1230  0.0495
   42MOL   O25423296   2.591   0.163   5.180 -0.3259 -0.0212  0.1350
   42MOL   C25523297   2.679   0.248   5.223 -0.1659 -0.8431  0.5823
   42MOL   O25623298   2.812   0.228   5.225  0.0626  0.4002  0.1189
   42MOL   C25723299   2.637   0.376   5.288  0.0683 -0.5296  0.5290
   42MOL   C25823300   2.737   0.464   5.332  0.5867 -0.0643 -0.6738
   42MOL   C25923301   2.704   0.583   5.396 -0.0974 -0.2152 -0.1862
   42MOL   C26023302   2.808   0.663   5.451 -0.2863  0.3299 -0.5961
   42MOL   C26123303   2.786   0.785   5.511  0.0048  0.2813  0.0585
   42MOL   C26223304   2.657   0.824   5.536 -0.3855  0.0785 -0.8017
   42MOL   C26323305   2.626   0.936   5.630 -0.1608 -0.1130  0.8299
   42MOL   O26423306   2.736   1.012   5.672  0.3814 -0.3086  0.3216
   42MOL   C26523307   2.720   1.119   5.765 -0.5725 -0.9444  0.0290
   42MOL   C26623308   2.643   1.239   5.708 -0.2492  0.4218 -0.3944
   42MOL   O26723309   2.509   0.952   5.665 -0.1866 -0.1076 -0.2470
   42MOL   C26823310   2.547   0.745   5.487  0.0669 -0.9105  0.1382
   42MOL   C26923311   2.572   0.619   5.421  0.5079 -0.5712  0.7874
   42MOL   C27023312   2.469   0.541   5.362 -0.2254  0.2198  0.0279
   42MOL   C27123313   2.500   0.415   5.301 -0.9881 -0.1453 -0.1627
   42MOL   H27223314   2.842   0.442   5.336  1.0069  1.9026 -0.6391
   42MOL   H27323315   2.910   0.631   5.438  0.6254  1.8278  2.4514
   42MOL   H27423316   2.871   0.835   5.555 -0.9664  1.8894  0.1413
   42MOL   H27523317   2.813   1.153   5.811 -0.6188 -1.4165  0.4797
   42MOL   H27623318   2.659   1.072   5.843  0.1836 -1.2893  0.4180
   42MOL   H27723319   2.538   1.215   5.689 -0.2006 -1.1114  1.0796
   42MOL   H27823320   2.649   1.328   5.770 -0.8095  0.9641 -1.1111
   42MOL   H27923321   2.443   0.771   5.502  0.6629  0.4821  2.1834
   42MOL   H28023322   2.369   0.569   5.394  0.6170  1.2477  1.8647
   42MOL   H28123323   2.423   0.345   5.270  0.7062 -1.5590 -1.2898
   42MOL   O28223324   2.626   1.473   5.553  0.2127  0.2331 -0.0361
   42MOL   C28323325   2.687   1.373   5.510  0.3296  0.0266 -0.3615
   42MOL   O28423326   2.704   1.252   5.580  0.5595  0.5879  0.1674
   42MOL   C28523327   2.754   1.374   5.377 -0.4586 -0.2993  0.3317
   42MOL   C28623328   2.814   1.269   5.317 -0.1213 -0.5665  0.0894
   42MOL   C28723329   2.864   1.282   5.184  0.4840  0.1023 -0.4220
   42MOL   C28823330   2.922   1.175   5.120  0.7051  0.1595 -0.2752
   42MOL   C28923331   2.947   1.183   4.984  0.2916  0.5740  0.9943
   42MOL   C29023332   2.934   1.308   4.911 -0.3707 -0.3643  0.4929
   42MOL   C29123333   2.946   1.316   4.756  0.1879 -0.5752 -0.3733
   42MOL   O29223334   3.017   1.213   4.714 -0.2850  0.1337  0.3658
   42MOL   C29323335   3.037   1.191   4.573 -0.0945 -0.1767  0.2495
   42MOL   C29423336   3.062   1.039   4.556  0.4480 -0.1825  0.5784
   42MOL   O29523337   2.910   1.406   4.682  0.2799  0.7859 -0.3355
   42MOL   C29623338   2.879   1.422   4.974  0.6838 -0.5946 -0.3593
   42MOL   C29723339   2.845   1.408   5.114  0.0623  0.4049 -0.0092
   42MOL   C29823340   2.777   1.514   5.178  0.5262  0.2220  0.0391
   42MOL   C29923341   2.736   1.497   5.311 -0.0119  0.7521  0.5467
   42MOL   H30023342   2.832   1.179   5.374  0.9148  0.6094  1.6802
   42MOL   H30123343   2.946   1.077   5.158 -2.3928 -0.2234  0.8293
   42MOL   H30223344   2.978   1.093   4.933  1.6028  1.8144 -0.4506
   42MOL   H30323345   3.135   1.232   4.548 -0.4314 -0.3888 -1.4901
   42MOL   H30423346   2.966   1.235   4.503 -0.9133 -1.0712  0.5097
   42MOL   H30523347   3.144   1.029   4.485 -1.1416  0.8670 -1.4674
   42MOL   H30623348   3.087   0.999   4.655  1.7959 -0.4679  0.1267
   42MOL   H30723349   2.860   1.514   4.921 -0.0047 -1.0570 -0.9294
   42MOL   H30823350   2.760   1.616   5.145  0.7988  0.5022  0.7443
   42MOL   H30923351   2.694   1.582   5.364 -1.3706  0.2713  0.2718
   42MOL   O31023352   2.830   0.968   4.690  0.4128 -0.5805  0.3658
   42MOL   C31123353   2.844   0.926   4.574  0.0208 -0.6108  0.3832
   42MOL   O31223354   2.951   0.959   4.495  0.0324 -0.4681 -0.0520
   42MOL   C31323355   2.757   0.823   4.513 -0.3315 -0.3480 -0.7426
   42MOL   C31423356   2.790   0.741   4.405  0.4548 -0.4214  0.5755
   42MOL   C31523357   2.702   0.639   4.372  0.1863 -0.4473 -0.1363
   42MOL   C31623358   2.740   0.553   4.272 -1.1142 -0.5360 -0.3906
   42MOL   C31723359   2.665   0.439   4.238 -0.0180 -0.4738 -0.2722
   42MOL   C31823360   2.538   0.422   4.298 -0.3792  0.2924  0.0468
   42MOL   C31923361   2.464   0.297   4.263 -0.1942  0.0399  0.3397
   42MOL   O32023362   2.547   0.201   4.212  0.2190 -0.0717 -0.6459
   42MOL   C32123363   2.489   0.075   4.196  0.5788  0.3924 -0.0427
   42MOL   C32223364   2.495   8.227   4.315 -0.1338  1.2257 -0.5730
   42MOL   O32323365   2.347   0.281   4.292  0.0785  0.8811 -0.5620
   42MOL   C32423366   2.496   0.507   4.402 -0.7040 -0.0945 -0.3218
   42MOL   C32523367   2.582   0.615   4.444  0.6907 -0.2088  0.4770
   42MOL   C32623368   2.542   0.696   4.545  0.2318  0.5831 -0.4193
   42MOL   C32723369   2.631   0.806   4.581  0.3869 -0.1995  0.3515
   42MOL   H32823370   2.886   0.754   4.357  0.2027 -1.0506 -0.1142
   42MOL   H32923371   2.835   0.562   4.220 -0.4819  0.8984  0.9753
   42MOL   H33023372   2.711   0.376   4.164  1.3988 -0.4271  0.5399
   42MOL   H33123373   2.537   0.036   4.106 -1.5154  1.3869 -1.6274
   42MOL   H33223374   2.387   0.090   4.162  0.2762 -0.2218  0.5815
   42MOL   H33323375   2.599   8.201   4.333 -0.7435 -1.0855 -0.2579
   42MOL   H33423376   2.470   0.023   4.410 -0.3969  0.2438 -0.1682
   42MOL   H33523377   2.403   0.487   4.452 -1.6981  0.4464 -1.9172
   42MOL   H33623378   2.451   0.674   4.599  0.4454 -1.9667 -1.0528
   42MOL   H33723379   2.618   0.863   4.672 -1.4925 -1.0800  0.6541
   42MOL   O33823380   2.295   8.123   4.479  0.4802 -0.1700 -0.0471
   42MOL   C33923381   2.308   8.088   4.364 -0.1195  0.0681  0.1138
   42MOL   O34023382   2.405   8.121   4.285 -0.1811 -0.3050 -1.0973
   42MOL   C34123383   2.218   7.990   4.304 -0.2551  0.1382 -0.3140
   42MOL   C34223384   2.212   7.979   4.159 -0.2460  0.8064  0.0472
   42MOL   C34323385   2.126   7.882   4.096  0.5392 -0.5867  0.5937
   42MOL   C34423386   2.126   7.855   3.958 -0.0064  0.2297 -0.7161
   42MOL   C34523387   2.036   7.760   3.904  0.2377  0.0395  0.4991
   42MOL   C34623388   1.959   7.683   3.987 -0.1447  1.0888 -0.5539
   42MOL   C34723389   1.867   7.584   3.929  0.7434 -0.3461 -0.3248
   42MOL   O34823390   1.756   7.565   4.013 -0.1855  0.0649 -0.1771
   42MOL   C34923391   1.665   7.461   3.975 -0.0971 -0.0930  0.0035
   42MOL   C35023392   1.680   7.339   4.053  0.1859  0.0024  0.4038
   42MOL   O35123393   1.884   7.533   3.815  0.0051 -0.2387 -0.3849
   42MOL   C35223394   1.958   7.701   4.125 -0.3131  0.4595 -0.7145
   42MOL   C35323395   2.039   7.803   4.179 -0.3417 -0.5109  0.5127
   42MOL   C35423396   2.038   7.828   4.316 -0.4718  0.4929 -0.1368
   42MOL   C35523397   2.125   7.919   4.383 -0.1304  0.7598  0.3401
   42MOL   H35623398   2.276   8.043   4.099  0.6471 -0.0001  0.1395
   42MOL   H35723399   2.186   7.915   3.892  0.0988  0.7684 -0.1414
   42MOL   H35823400   2.039   7.754   3.796  2.7673  0.0983  0.5331
   42MOL   H35923401   1.685   7.446   3.869  0.6811 -1.7906  0.3812
   42MOL   H36023402   1.563   7.500   3.978 -0.4778 -0.9483 -1.7021
   42MOL   H36123403   1.616   7.258   4.017  1.6397 -1.4392  1.0071
   42MOL   H36223404   1.779   7.298   4.032 -1.8358 -4.3218 -1.4303
   42MOL   H36323405   1.879   7.671   4.192  0.8564 -0.1741  0.3942
   42MOL   H36423406   1.971   7.783   4.388  0.2814 -1.8234 -0.8171
   42MOL   H36523407   2.114   7.931   4.489  0.4320  0.7185  0.4048
   42MOL   O36623408   1.878   7.416   4.221  0.3808 -0.3882  0.5833
   42MOL   C36723409   1.764   7.404   4.265  0.9506 -0.2382 -0.4235
   42MOL   O36823410   1.660   7.372   4.194  0.3708 -0.0675  0.1174
   42MOL   C36923411   1.727   7.438   4.404  0.6311  0.4148 -0.2658
   42MOL   C37023412   1.590   7.448   4.450 -0.4531 -0.5034 -0.1406
   42MOL   C37123413   1.559   7.474   4.587 -0.4393 -0.0921  0.9446
   42MOL   C37223414   1.426   7.494   4.629 -0.7748  0.8198  0.0567
   42MOL   C37323415   1.403   7.529   4.766 -0.1904 -0.0112  0.3340
   42MOL   C37423416   1.509   7.558   4.858  0.2497 -0.3153 -0.5702
   42MOL   C37523417   1.486   7.601   5.003 -0.0552 -0.0069  0.0263
   42MOL   O37623418   1.361   7.626   5.042  0.1220  0.3641  0.2044
   42MOL   C37723419   1.337   7.644   5.183  0.1989 -0.0818  0.6788
   42MOL   C37823420   1.324   7.786   5.230  0.7069  0.2523  0.1530
   42MOL   O37923421   1.581   7.617   5.079  0.4286  0.2440 -0.1641
   42MOL   C38023422   1.640   7.535   4.817  0.2708 -0.4500  0.2372
   42MOL   C38123423   1.663   7.490   4.682 -0.2184  0.0863 -0.4664
   42MOL   C38223424   1.796   7.476   4.630 -0.0625 -0.1969  0.3256
   42MOL   C38323425   1.827   7.450   4.497 -0.2321 -0.2763  0.0632
   42MOL   H38423426   1.510   7.442   4.378 -2.3397  1.7739  1.6694
   42MOL   H38523427   1.340   7.485   4.563 -0.0111  3.1480 -1.3307
   42MOL   H38623428   1.303   7.541   4.805 -0.2190  0.7776  0.0220
   42MOL   H38723429   1.411   7.596   5.249  0.1123 -0.4223  0.5290
   42MOL   H38823430   1.242   7.592   5.195 -0.0897  0.1392 -0.6762
   42MOL   H38923431   1.249   7.844   5.176  2.6813  1.6049 -1.2125
   42MOL   H39023432   1.282   7.802   5.329  1.8535 -1.4633  0.9411
   42MOL   H39123433   1.725   7.537   4.884  0.1831 -1.1804  0.3821
   42MOL   H39223434   1.879   7.491   4.697  1.8654 -0.8201 -1.8604
   42MOL   H39323435   1.932   7.436   4.474 -0.6361  0.6992 -2.5332
   42MOL   O39423436   1.513   7.824   5.443  0.4326  0.1674 -0.3521
   42MOL   C39523437   1.528   7.870   5.333 -0.4944 -0.6823  0.2798
   42MOL   O39623438   1.447   7.858   5.224 -0.5603 -0.6034 -0.3916
   42MOL   C39723439   1.649   7.955   5.306  0.3518  0.9813 -0.0966
   42MOL   C39823440   1.666   8.022   5.186  1.0629 -0.5004 -0.7203
   42MOL   C39923441   1.786   8.100   5.165  0.1335  0.5311  0.0227
   42MOL   C40023442   1.794   8.180   5.050 -0.3267 -0.2955  0.1980
   42MOL   C40123443   1.912   0.012   5.028 -0.2072  0.1307  0.2889
   42MOL   C40223444   2.014   0.020   5.131 -0.1140 -0.6472 -0.0270
   42MOL   C40323445   2.141   0.093   5.111  1.1821  0.3954 -0.4320
   42MOL   O40423446   2.174   0.109   4.975 -0.2850  0.5046 -0.1284
   42MOL   C40523447   2.304   0.150   4.941  0.0252  0.0792  0.3533
   42MOL   C40623448   2.411   0.033   4.941  0.0795 -0.2435  0.1460
   42MOL   O40723449   2.219   0.123   5.205 -0.2998  0.7792 -0.0993
   42MOL   C40823450   1.991   8.205   5.259  0.3376 -0.2842 -0.3229
   42MOL   C40923451   1.879   8.116   5.274 -0.9288 -0.3541 -0.1810
   42MOL   C41023452   1.865   8.044   5.397  0.6913 -0.6125  0.4986
   42MOL   C41123453   1.748   7.967   5.408  0.1130 -0.3840  0.1810
   42MOL   H41223454   1.593   8.017   5.107 -0.1338 -0.1083  0.3503
   42MOL   H41323455   1.717   8.176   4.973  1.5642 -0.7772 -1.7125
   42MOL   H41423456   1.926   0.067   4.936  0.0715  2.1881  1.5044
   42MOL   H41523457   2.331   0.227   5.013  2.7621 -1.1994  0.7302
   42MOL   H41623458   2.302   0.203   4.846  1.4854 -0.1951  0.1550
   42MOL   H41723459   2.433   0.018   5.047 -0.7970 -1.8209  0.1094
   42MOL   H41823460   2.377   8.193   4.888  1.2624  0.6148 -2.1139
   42MOL   H41923461   2.069   8.215   5.334 -1.2088 -2.2590  1.6014
   42MOL   H42023462   1.940   8.039   5.475 -0.8998 -3.7500  1.9148
   42MOL   H42123463   1.737   7.912   5.500  2.9284 -2.8974 -0.9328
   42MOL   O42223464   2.453   0.066   4.667  0.1027  0.0056  0.1489
   42MOL   C42323465   2.537   0.103   4.750 -0.3292 -0.7555 -0.2468
   42MOL   O42423466   2.534   0.078   4.879 -0.0483 -0.3950  0.5541
   42MOL   C42523467   2.656   0.179   4.720  0.2226  0.6827  0.6536
   42MOL   C42623468   2.733   0.237   4.823 -0.3641 -0.5751 -0.1490
   42MOL   C42723469   2.835   0.332   4.789  0.6587  0.4613 -0.7137
   42MOL   C42823470   2.902   0.400   4.893  0.6072 -0.0614 -0.2092
   42MOL   C42923471   3.000   0.494   4.847 -0.4426  0.0729  0.3111
   42MOL   C43023472   3.024   0.528   4.715 -0.0087  0.2689 -0.0704
   42MOL   C43123473   3.119   0.641   4.671  0.5596  0.2050  0.4761
   42MOL   O43223474   3.115   0.668   4.534  0.3208  0.0459  0.2517
   42MOL   C43323475   3.221   0.746   4.472  0.1995  0.1776  0.5245
   42MOL   C43423476   3.335   0.653   4.431 -0.3732 -0.0243  0.6754
   42MOL   O43523477   3.169   0.721   4.748 -0.2292 -0.7766 -0.0505
   42MOL   C43623478   2.955   0.454   4.617 -0.1007  0.1727 -0.3534
   42MOL   C43723479   2.862   0.354   4.653 -0.4600 -0.1303 -1.0129
   42MOL   C43823480   2.792   0.286   4.553  0.3754  0.7937  0.3612
   42MOL   C43923481   2.683   0.206   4.586  0.3188  1.0205 -0.6522
   42MOL   H44023482   2.712   0.221   4.927 -1.6132 -0.4165 -0.3713
   42MOL   H44123483   2.876   0.389   4.997 -1.2567  0.9596 -0.5357
   42MOL   H44223484   3.058   0.554   4.917  1.3674 -1.2826  0.0254
   42MOL   H44323485   3.247   0.832   4.532  1.7985  1.1579 -1.5298
   42MOL   H44423486   3.181   0.794   4.383  0.3994  0.2219  0.4587
   42MOL   H44523487   3.397   0.700   4.355 -2.2262  0.1476 -0.7883
   42MOL   H44623488   3.398   0.647   4.520 -1.4604 -0.5201  1.4292
   42MOL   H44723489   2.983   0.463   4.513 -2.0432 -0.5701 -0.9601
   42MOL   H44823490   2.790   0.308   4.447 -0.1900  0.1210  0.2281
   42MOL   H44923491   2.622   0.152   4.515 -0.8830 -2.7773  3.0232
   42MOL   O45023492   3.205   0.610   4.196 -0.0851  0.2822  0.4481
   42MOL   C45123493   3.221   0.514   4.274  0.6170 -0.0484  0.4459
   42MOL   O45223494   3.300   0.520   4.382  0.7557  0.2484 -0.6909
   42MOL   C45323495   3.142   0.388   4.261 -0.7937  0.2432  0.2660
   42MOL   C45423496   3.062   0.373   4.152 -0.1369  0.0831 -0.2201
   42MOL   C45523497   2.980   0.259   4.131 -0.0075  0.1448 -0.0019
   42MOL   C45623498   2.906   0.240   4.014  0.2027 -0.1906  0.0330
   42MOL   C45723499   2.837   0.120   3.987  0.0565 -0.6262 -0.0596
   42MOL   C45823500   2.830   0.022   4.087 -0.4245  0.2182  0.2093
   42MOL   C45923501   2.755   8.142   4.063  0.0260 -0.0504  0.1331
   42MOL   O46023502   2.764   8.065   4.169 -0.1386 -0.2439 -0.5475
   42MOL   C46123503   2.738   7.926   4.161  0.2050  0.0840 -0.1909
   42MOL   C46223504   2.593   7.886   4.175 -0.3648 -1.4102  1.1109
   42MOL   O46323505   2.706   8.121   3.948 -0.2313  0.2776 -0.0317
   42MOL   C46423506   2.901   0.047   4.209  0.0774  0.4651 -0.0032
   42MOL   C46523507   2.981   0.159   4.231 -0.2862  0.2240 -0.2918
   42MOL   C46623508   3.054   0.174   4.348 -0.2802  0.3226  0.2854
   42MOL   C46723509   3.130   0.292   4.360 -0.0102  0.6898  0.9162
   42MOL   H46823510   3.073   0.446   4.074  0.1662  1.1317  0.7932
   42MOL   H46923511   2.919   0.311   3.934 -0.4539  0.3572  0.4063
   42MOL   H47023512   2.785   0.108   3.894  0.0561 -0.9698 -0.0182
   42MOL   H47123513   2.768   7.871   4.250 -2.6240 -2.2707 -0.6118
   42MOL   H47223514   2.783   7.878   4.074 -1.8855 -3.3212  0.5128
   42MOL   H47323515   2.567   7.882   4.281  1.6782  0.1234  1.6962
   42MOL   H47423516   2.534   7.974   4.149  1.7968  0.5973  2.6858
   42MOL   H47523517   2.895   8.228   4.293 -1.7628 -0.0123 -0.5135
   42MOL   H47623518   3.054   0.097   4.424 -0.5059  0.5677  0.5368
   42MOL   H47723519   3.191   0.297   4.450  0.3781  1.8602  0.5973
   42MOL   O47823520   2.575   7.861   3.899  0.3436  0.7472  0.2845
   42MOL   C47923521   2.532   7.770   3.969  0.7650 -0.1020  0.6440
   42MOL   O48023522   2.552   7.768   4.103 -0.2401 -0.0372 -0.1513
   42MOL   C48123523   2.447   7.653   3.916 -0.1095  0.3260 -0.1355
   42MOL   C48223524   2.363   7.578   4.004 -0.2283 -0.0098  0.2714
   42MOL   C48323525   2.270   7.486   3.946  0.1394 -0.0588 -0.2951
   42MOL   C48423526   2.182   7.424   4.033  0.4123  0.3458  0.0796
   42MOL   C48523527   2.083   7.338   3.982 -0.0713  0.3591 -0.2780
   42MOL   C48623528   2.079   7.311   3.840 -0.0342  0.3457 -0.2651
   42MOL   C48723529   1.978   7.217   3.783  0.1688 -1.1199  0.0468
   42MOL   O48823530   2.002   7.193   3.653  0.1701  0.1611 -0.1029
   42MOL   C48923531   1.906   7.119   3.585  0.3774 -0.3742  0.2823
   42MOL   C49023532   1.768   7.188   3.568  0.3476  0.3547  0.0859
   42MOL   O49123533   1.875   7.174   3.847 -0.1576  0.0347 -0.2524
   42MOL   C49223534   2.167   7.377   3.754 -0.5431  0.5812 -0.0154
   42MOL   C49323535   2.266   7.462   3.807  0.0623  0.5941 -0.3989
   42MOL   C49423536   2.349   7.539   3.722  0.0057 -0.0169 -0.0030
   42MOL   C49523537   2.439   7.634   3.776  0.0487 -0.2127  0.5731
   42MOL   H49623538   2.360   7.612   4.107  2.4228 -0.5738  0.5550
   42MOL   H49723539   2.179   7.448   4.138 -0.2145  2.0166 -0.2963
   42MOL   H49823540   2.008   7.287   4.041  1.4108  1.0712  2.3119
   42MOL   H49923541   1.890   7.028   3.644  1.5924  0.6668  2.2483
   42MOL   H50023542   1.942   7.112   3.482 -1.1245  2.4844 -0.4845
   42MOL   H50123543   1.695   7.173   3.647  0.8788 -0.0422  0.5029
   42MOL   H50223544   1.780   7.295   3.553  1.9895  0.3255  1.0318
   42MOL   H50323545   2.176   7.360   3.648  2.1395 -0.2639  0.3173
   42MOL   H50423546   2.328   7.531   3.616 -2.1211 -1.9159  0.5300
   42MOL   H50523547   2.495   7.691   3.703  1.7400 -1.1623  1.0978
   42MOL   O50623548   1.704   6.926   3.517 -0.4534  0.1817 -0.0085
   42MOL   C50723549   1.675   7.019   3.436  0.2796  0.2079  0.4179
   42MOL   O50823550   1.692   7.146   3.459 -0.3410 -0.3118  0.3139
   42MOL   C50923551   1.595   6.993   3.318 -0.3835 -1.0169 -0.7201
   42MOL   C51023552   1.535   7.096   3.245  0.1093  0.2121  0.3159
   42MOL   C51123553   1.448   7.083   3.135 -1.0065  0.4461 -0.4955
   42MOL   C51223554   1.391   7.199   3.076 -0.1000 -0.1926  0.1196
   42MOL   C51323555   1.300   7.183   2.971  0.1624  0.6701  0.1567
   42MOL   C51423556   1.291   7.051   2.918  0.3224  0.3806 -0.0970
   42MOL   C51523557   1.190   7.032   2.802 -0.0922  0.6089  0.0701
   42MOL   O51623558   1.130   6.912   2.800  0.5108  0.4512  0.6898
   42MOL   C51723559   1.022   6.892   2.713 -0.1873 -0.1865  0.2059
   42MOL   C51823560   0.955   6.763   2.753 -0.1574 -0.4065  0.8906
   42MOL   O51923561   1.161   7.123   2.726 -0.3719  0.0133  0.4143
   42MOL   C52023562   1.352   6.937   2.973  0.8257 -0.0806  0.0411
   42MOL   C52123563   1.432   6.950   3.090  0.1393 -0.4345  0.4382
   42MOL   C52223564   1.484   6.842   3.159  0.0891  0.7495  0.4483
   42MOL   C52323565   1.563   6.866   3.273  0.1214  0.0990 -0.3367
   42MOL   H52423566   1.549   7.196   3.283  1.8263  0.0310  0.2177
   42MOL   H52523567   1.419   7.295   3.115 -0.7439 -0.4951  1.3538
   42MOL   H52623568   1.241   7.262   2.927  0.8519  0.0044 -2.0176
   42MOL   H52723569   1.054   6.895   2.610  2.2273  0.0051  0.9461
   42MOL   H52823570   0.947   6.972   2.719 -0.3790 -0.3145 -0.5238
   42MOL   H52923571   0.952   6.745   2.860  1.7876 -1.7823  0.7428
   42MOL   H53023572   0.854   6.748   2.716  0.0503 -2.6758  1.1855
   42MOL   H53123573   1.328   6.841   2.929  0.8357  0.5930 -1.4438
   42MOL   H53223574   1.464   6.740   3.131  2.0261  0.4691 -0.0357
   42MOL   H53323575   1.594   6.782   3.335 -0.8045 -0.1276 -0.1700
   42MOL   O53423576   1.175   6.623   2.845 -0.3274  0.4555  0.2700
   42MOL   C53523577   1.135   6.593   2.738 -1.5688  0.1325 -0.2607
   42MOL   O53623578   1.024   6.653   2.685 -0.2366  0.0873 -0.4404
   42MOL   C53723579   1.200   6.490   2.653  0.3543 -0.3542 -0.3824
   42MOL   C53823580   1.313   6.419   2.695  0.7841  0.4245 -0.7350
   42MOL   C53923581   1.378   6.322   2.613 -0.2500 -0.4425 -0.2084
   42MOL   C54023582   1.487   6.241   2.659  0.0303  0.3610 -0.8081
   42MOL   C54123583   1.534   6.127   2.586 -0.4525  0.1064  0.3334
   42MOL   C54223584   1.479   6.104   2.459 -0.0288  0.3714  0.4533
   42MOL   C54323585   1.514   5.988   2.377 -0.3138 -0.6395 -0.2442
   42MOL   O54423586   1.428   5.960   2.277  0.0524  0.1432  0.0137
   42MOL   C54523587   1.464   5.876   2.167  0.1375  0.0015  0.0454
   42MOL   C54623588   1.387   5.932   2.043 -0.4292 -0.0702  0.2872
   42MOL   O54723589   1.604   5.907   2.401  0.4371  0.3413 -0.0329
   42MOL   C54823590   1.382   6.191   2.411 -0.0620 -0.4324  0.0859
   42MOL   C54923591   1.327   6.293   2.487  0.4153  0.3044  0.0793
   42MOL   C55023592   1.213   6.369   2.444 -0.3185  0.1926  0.0681
   42MOL   C55123593   1.153   6.470   2.520 -0.8394  0.4130 -0.0460
   42MOL   H55223594   1.364   6.449   2.785  0.4357  2.0180 -1.0571
   42MOL   H55323595   1.529   6.254   2.758  0.2634  2.1673 -1.1231
   42MOL   H55423596   1.613   6.066   2.628 -0.7606  0.0517  0.8466
   42MOL   H55523597   1.425   5.779   2.197 -0.7095 -0.6568 -2.9806
   42MOL   H55623598   1.573   5.868   2.159  0.4417 -0.1293  3.6564
   42MOL   H55723599   1.418   6.036   2.031 -1.2319 -0.0179 -1.4069
   42MOL   H55823600   1.279   5.918   2.051 -0.5351  0.0336 -0.8677
   42MOL   H55923601   1.337   6.167   2.316  1.3470  4.0931 -1.8940
   42MOL   H56023602   1.168   6.356   2.346  0.5560  0.6653 -0.3958
   42MOL   H56123603   1.070   6.529   2.484 -0.4833  0.5841 -0.6077
   42MOL   H56223604   1.410   5.869   1.957  0.0759 -1.6832  1.5524
   43MOL     O123605   2.249   1.412   1.493  0.2509 -0.4117  0.3088
   43MOL     C223606   2.236   1.393   1.370  0.8961  0.2205 -0.2627
   43MOL     O323607   2.231   1.271   1.317  0.1887  0.4379  0.1535
   43MOL     C423608   2.218   1.509   1.274 -0.2477 -0.1891  0.4532
   43MOL     C523609   2.187   1.635   1.330  0.3976 -0.7551 -0.2783
   43MOL     C623610   2.177   1.754   1.257 -0.3123 -0.0875  0.5808
   43MOL     C723611   2.161   1.878   1.315  0.6196  0.2469 -0.5666
   43MOL     C823612   2.162   2.002   1.242 -0.5899  0.1204 -0.1938
   43MOL     C923613   2.184   1.993   1.101 -1.0047 -0.3960  0.3921
   43MOL    C1023614   2.186   2.113   1.014 -0.2696  0.7790  0.1950
   43MOL    O1123615   2.140   2.225   1.064 -0.1915  0.2616 -0.2360
   43MOL    C1223616   2.162   2.345   0.991  0.1782  0.1291  0.3814
   43MOL    C1323617   2.027   2.372   0.913 -0.3147 -0.4422 -0.1453
   43MOL    O1423618   2.239   2.109   0.902  0.3711 -0.2149 -0.1896
   43MOL    C1523619   2.196   1.863   1.041 -0.4762  0.5088  0.7936
   43MOL    C1623620   2.188   1.745   1.114 -0.0082  0.2960 -0.5825
   43MOL    C1723621   2.206   1.620   1.056 -0.5295  0.0428 -0.1900
   43MOL    C1823622   2.227   1.505   1.136 -0.2099  0.1144  1.1421
   43MOL    H1923623   2.183   1.636   1.438 -1.5484  0.8839 -0.3339
   43MOL    H2023624   2.165   1.896   1.421 -0.9768  1.2804 -0.6712
   43MOL    H2123625   2.149   2.098   1.288  1.5802  0.2426  0.2503
   43MOL    H2223626   2.192   2.421   1.063  0.8111  0.2982 -0.0539
   43MOL    H2323627   2.246   2.351   0.922 -0.3060  0.6612 -0.1651
   43MOL    H2423628   2.044   2.433   0.824  1.5595 -0.5479  0.1135
   43MOL    H2523629   1.981   2.280   0.876  0.9908 -0.5527 -1.5845
   43MOL    H2623630   2.213   1.852   0.935  0.9706  0.6505  1.0016
   43MOL    H2723631   2.220   1.608   0.950  1.1163 -0.0033  0.0137
   43MOL    H2823632   2.262   1.413   1.091 -0.2989  0.9773 -0.7318
   43MOL    H2923633   2.249   1.208   1.385 -0.8985 -1.2282 -1.0938
   43MOL    O3023634   2.051   2.627   1.015 -0.1530 -0.9985 -0.4436
   43MOL    C3123635   1.959   2.560   1.050  0.8972 -0.0151 -0.3173
   43MOL    O3223636   1.932   2.438   0.994 -0.4458 -0.3256 -0.5235
   43MOL    C3323637   1.880   2.604   1.168 -0.4177  0.3681  0.0214
   43MOL    C3423638   1.886   2.730   1.222  0.5572  0.0904  0.3914
   43MOL    C3523639   1.811   2.772   1.335  0.0538 -0.5917 -0.0238
   43MOL    C3623640   1.826   2.900   1.387  0.1715 -0.5704  0.1382
   43MOL    C3723641   1.751   2.937   1.498  0.1076  0.1609 -0.7192
   43MOL    C3823642   1.659   2.850   1.564  0.1336 -0.8237  0.6590
   43MOL    C3923643   1.584   2.893   1.688  0.7448  0.5669 -0.2364
   43MOL    O4023644   1.613   3.024   1.729  0.4243 -0.1760  0.2421
   43MOL    C4123645   1.531   3.084   1.828 -0.6663  0.0010 -0.2735
   43MOL    C4223646   1.401   3.133   1.772 -0.1419  0.4814 -0.0669
   43MOL    O4323647   1.512   2.819   1.756  0.4013 -0.0692 -0.0140
   43MOL    C4423648   1.642   2.719   1.506  0.2071 -0.4561  0.1541
   43MOL    C4523649   1.720   2.682   1.392  0.2255  0.4255  0.5455
   43MOL    C4623650   1.706   2.554   1.340 -0.5594 -0.0146 -0.5427
   43MOL    C4723651   1.781   2.522   1.225 -0.2108  0.2901 -0.0917
   43MOL    H4823652   1.943   2.804   1.168 -2.3979  1.0371 -1.5484
   43MOL    H4923653   1.882   2.968   1.325 -0.1749 -1.0284 -0.6956
   43MOL    H5023654   1.760   3.042   1.522  0.8760 -0.4811  2.0300
   43MOL    H5123655   1.577   3.159   1.893  2.3143  1.1000 -3.5389
   43MOL    H5223656   1.511   3.015   1.911 -3.7172  0.4538 -0.5670
   43MOL    H5323657   1.373   3.214   1.840  0.9527 -0.2799  1.3384
   43MOL    H5423658   1.430   3.189   1.684 -2.7045 -0.0306 -1.2962
   43MOL    H5523659   1.571   2.649   1.548  0.1446  0.1920  1.1515
   43MOL    H5623660   1.634   2.490   1.388 -0.4683  0.1457 -0.1888
   43MOL    H5723661   1.764   2.420   1.193  1.5725  0.3370 -1.2329
   43MOL    O5823662   1.132   3.162   1.667  0.1325 -0.6751 -0.1171
   43MOL    C5923663   1.167   3.059   1.724 -0.0763 -1.1185  0.0770
   43MOL    O6023664   1.296   3.031   1.771  0.7599 -0.8430  1.1054
   43MOL    C6123665   1.076   2.947   1.753  0.0250 -0.2675  0.2097
   43MOL    C6223666   0.938   2.972   1.734  0.4438  0.6302 -0.2830
   43MOL    C6323667   0.846   2.880   1.783 -0.1095  0.1587 -1.1013
   43MOL    C6423668   0.707   2.907   1.783  0.5443 -0.1550 -0.3884
   43MOL    C6523669   0.615   2.819   1.841 -0.2498 -0.4199  0.6783
   43MOL    C6623670   0.652   2.700   1.901 -0.0063 -0.0746  0.1009
   43MOL    C6723671   0.555   2.609   1.961 -0.4681  0.1491 -0.4497
   43MOL    O6823672   0.597   2.489   1.988  0.4643 -0.6465  0.0551
   43MOL    C6923673   0.510   2.398   2.047  0.1645 -0.3116 -0.2576
   43MOL    C7023674   0.523   2.418   2.199 -0.0436  0.0396 -0.5055
   43MOL    O7123675   0.443   2.654   1.982 -0.0241 -0.4424 -0.6209
   43MOL    C7223676   0.796   2.667   1.907  0.3388 -0.5323  0.2970
   43MOL    C7323677   0.885   2.765   1.857 -0.2456 -1.3200  0.2701
   43MOL    C7423678   1.024   2.737   1.866  0.1616 -0.6360  0.3044
   43MOL    C7523679   1.121   2.829   1.823  0.9498 -0.2890 -0.3671
   43MOL    H7623680   0.902   3.061   1.686  0.0381  0.3042 -0.5862
   43MOL    H7723681   0.665   3.000   1.748  0.6428 -0.4991 -1.4432
   43MOL    H7823682   0.515   2.859   1.850  0.1662  0.7800  0.1313
   43MOL    H7923683   0.549   2.300   2.017 -1.5836 -1.4487  1.0998
   43MOL    H8023684   0.409   2.410   2.008 -0.2180  1.5795  1.2940
   43MOL    H8123685   0.626   2.417   2.232 -0.0724 -1.3457 -0.4419
   43MOL    H8223686   0.477   2.514   2.225 -0.4030 -0.4418  0.7022
   43MOL    H8323687   0.824   2.579   1.963 -0.9697  0.3873  2.4706
   43MOL    H8423688   1.055   2.645   1.913  2.2795  0.3483  0.8640
   43MOL    H8523689   1.225   2.801   1.831  0.5202 -2.2103 -1.2420
   43MOL    O8623690   0.241   2.416   2.247 -0.4460  0.0224  0.1475
   43MOL    C8723691   0.314   2.321   2.273 -0.4696 -0.6297 -0.1350
   43MOL    O8823692   0.452   2.315   2.259  0.1221  0.5424 -0.7776
   43MOL    C8923693   0.268   2.192   2.318 -0.2388 -0.1069 -0.4010
   43MOL    C9023694   0.133   2.184   2.348 -0.5576  0.0104  0.0494
   43MOL    C9123695   0.079   2.061   2.395  0.8171 -0.2503 -0.5565
   43MOL    C9223696   8.186   2.053   2.422 -0.7924  0.3742 -1.2161
   43MOL    C9323697   8.138   1.927   2.477  0.3056  0.0858 -0.1331
   43MOL    C9423698   8.223   1.821   2.502 -0.1510 -0.1853  0.3793
   43MOL    C9523699   8.172   1.697   2.565 -0.2651  0.4325 -0.7088
   43MOL    O9623700   0.016   1.626   2.632 -0.2632 -0.0688 -0.1364
   43MOL    C9723701   8.235   1.490   2.678 -0.0700 -0.8238  0.0143
   43MOL    C9823702   8.132   1.493   2.797  0.3673  0.6682  0.1493
   43MOL    O9923703   8.064   1.643   2.539 -0.4713 -0.2550 -0.7519
   43MOL   C10023704   0.113   1.827   2.466  0.0710  0.1145  0.3119
   43MOL   C10123705   0.167   1.949   2.417  0.0882  0.2048 -0.2698
   43MOL   C10223706   0.301   1.956   2.382 -0.3813  0.3176 -0.1549
   43MOL   C10323707   0.349   2.078   2.338 -0.1545  0.3331  0.3731
   43MOL   H10423708   0.058   2.259   2.327  1.5354  2.8201  2.3204
   43MOL   H10523709   8.113   2.130   2.406 -2.6475 -0.7915  1.2506
   43MOL   H10623710   8.032   1.915   2.495  0.4979 -2.0315 -0.3162
   43MOL   H10723711   0.069   1.428   2.712 -0.7508 -1.8338 -0.1600
   43MOL   H10823712   8.187   1.440   2.594  0.3961 -0.1957 -0.6324
   43MOL   H10923713   8.052   1.565   2.780 -1.2099 -1.5990 -2.5513
   43MOL   H11023714   8.073   1.402   2.809  1.9583 -0.4560 -0.4963
   43MOL   H11123715   0.188   1.753   2.487 -0.8228 -0.6125  1.0169
   43MOL   H11223716   0.366   1.870   2.388  2.0579  1.9399 -2.0583
   43MOL   H11323717   0.452   2.080   2.307 -0.2751 -0.2761 -0.0741
   43MOL   O11423718   8.149   1.733   2.903 -0.2630 -0.3491 -0.3496
   43MOL   C11523719   8.206   1.641   2.961 -0.6616  0.9872 -0.1670
   43MOL   O11623720   8.204   1.517   2.914 -0.1528 -0.0211 -0.1560
   43MOL   C11723721   0.017   1.646   3.094  0.4505  0.3113  0.4791
   43MOL   C11823722   0.020   1.775   3.159 -0.1490  0.0257  0.1881
   43MOL   C11923723   0.085   1.790   3.284 -0.1376 -0.5593  0.8605
   43MOL   C12023724   0.083   1.914   3.353  0.3310  0.1924 -0.5874
   43MOL   C12123725   0.131   1.918   3.484 -0.5590 -0.3190  0.6904
   43MOL   C12223726   0.189   1.806   3.548  0.2797 -0.2581  0.3401
   43MOL   C12323727   0.229   1.808   3.698  0.4352 -0.5541  0.7020
   43MOL   O12423728   0.185   1.918   3.761 -0.1331 -0.0920 -0.1145
   43MOL   C12523729   0.177   1.925   3.896 -0.0154 -0.2279  0.4027
   43MOL   C12623730   0.271   2.033   3.946  1.0037 -0.1075 -0.3016
   43MOL   O12723731   0.282   1.712   3.746 -0.5672 -0.2454 -0.4889
   43MOL   C12823732   0.190   1.682   3.478  0.1407  0.0241 -0.0070
   43MOL   C12923733   0.143   1.675   3.345  0.0136  0.2671 -0.3197
   43MOL   C13023734   0.157   1.555   3.275  0.5763  0.2453 -0.2411
   43MOL   C13123735   0.079   1.539   3.157  0.1049 -0.0371 -0.1536
   43MOL   H13223736   8.222   1.859   3.110 -2.5814 -1.1791  0.4146
   43MOL   H13323737   0.034   2.000   3.309 -0.4873 -0.0127 -0.0824
   43MOL   H13423738   0.133   2.015   3.533  1.1324  1.4315 -2.7354
   43MOL   H13523739   0.202   1.828   3.939  0.9780 -0.7927 -1.4164
   43MOL   H13623740   0.073   1.948   3.918 -0.1664 -0.6160  0.1108
   43MOL   H13723741   0.235   2.124   3.899  1.5604  0.2418 -0.0679
   43MOL   H13823742   0.254   2.040   4.054  0.3125 -0.1115 -0.4065
   43MOL   H13923743   0.245   1.599   3.522 -0.8883 -1.8223 -2.0790
   43MOL   H14023744   0.210   1.469   3.314 -1.9396 -1.1599  0.1755
   43MOL   H14123745   0.078   1.436   3.124 -1.2471 -1.0114  2.7815
   43MOL   O14223746   0.457   2.195   3.853 -0.0279 -0.0376  0.1515
   43MOL   C14323747   0.494   2.086   3.893 -0.1480  0.2671  0.1537
   43MOL   O14423748   0.406   1.996   3.930  0.3169 -0.7360  0.1105
   43MOL   C14523749   0.629   2.033   3.887  0.3490 -0.0503  0.6124
   43MOL   C14623750   0.740   2.122   3.872  0.3021 -0.3280 -0.0255
   43MOL   C14723751   0.872   2.070   3.866  0.0875  0.0809 -0.4359
   43MOL   C14823752   0.988   2.150   3.854  0.2325  0.2441  0.3722
   43MOL   C14923753   1.113   2.087   3.851 -0.2568 -0.0749  0.1967
   43MOL   C15023754   1.128   1.948   3.857 -0.5348 -0.5053 -0.5883
   43MOL   C15123755   1.264   1.889   3.832 -0.2856 -0.6589 -0.2103
   43MOL   O15223756   1.258   1.756   3.819  0.9117  0.2069 -0.0964
   43MOL   C15323757   1.379   1.684   3.793 -0.5007  0.2463 -0.3349
   43MOL   C15423758   1.381   1.678   3.638 -0.7090  0.0932  1.2660
   43MOL   O15523759   1.372   1.943   3.840 -0.2330  0.3756  0.1708
   43MOL   C15623760   1.014   1.865   3.870  0.8324  0.0570 -0.2228
   43MOL   C15723761   0.890   1.924   3.888  0.3757 -0.3561 -0.3413
   43MOL   C15823762   0.780   1.840   3.904  0.8256 -0.4850  0.3539
   43MOL   C15923763   0.647   1.892   3.903  0.2696 -0.4919  0.2274
   43MOL   H16023764   0.721   2.228   3.868 -0.2442 -0.3492  1.7644
   43MOL   H16123765   0.990   2.257   3.846  0.2472  0.2310  0.1817
   43MOL   H16223766   1.205   2.143   3.840  0.1398 -0.5878  0.8774
   43MOL   H16323767   1.361   1.582   3.828  1.3271  0.1396  0.3715
   43MOL   H16423768   1.470   1.716   3.844 -0.2902 -3.1342  1.5817
   43MOL   H16523769   1.284   1.706   3.598  0.1958 -0.4833 -1.3961
   43MOL   H16623770   1.453   1.744   3.592  0.4827 -2.2425 -0.3210
   43MOL   H16723771   1.018   1.760   3.842 -0.0618  0.1774 -0.8422
   43MOL   H16823772   0.791   1.732   3.904  1.0550 -0.4593  0.9098
   43MOL   H16923773   0.567   1.820   3.915  0.5313 -0.5720  1.5069
   43MOL   O17023774   1.626   1.578   3.668  0.2251 -0.1485  0.0643
   43MOL   C17123775   1.536   1.511   3.612  0.3443  0.0524 -0.2808
   43MOL   O17223776   1.412   1.556   3.593 -0.0195 -0.0148  0.4571
   43MOL   C17323777   1.565   1.384   3.551  0.2880  0.2698 -0.7428
   43MOL   C17423778   1.697   1.331   3.531  0.0863 -0.8109  0.4372
   43MOL   C17523779   1.720   1.201   3.494 -0.3966  0.4566 -0.4584
   43MOL   C17623780   1.849   1.152   3.502  0.7496 -0.6828 -0.4580
   43MOL   C17723781   1.874   1.020   3.482  0.0393  0.1452 -0.7744
   43MOL   C17823782   1.770   0.934   3.434 -0.1257 -0.3177  0.2443
   43MOL   C17923783   1.803   0.797   3.397  0.2732 -0.2227 -0.4335
   43MOL   O18023784   1.931   0.776   3.362  0.2442 -0.3719 -0.9460
   43MOL   C18123785   1.978   0.641   3.329 -0.2976  0.0383  0.0119
   43MOL   C18223786   1.998   0.636   3.177 -0.0276  0.4668 -0.3997
   43MOL   O18323787   1.723   0.703   3.407 -0.6288  0.0987 -0.0489
   43MOL   C18423788   1.635   0.983   3.434 -0.0528 -0.2705  1.0263
   43MOL   C18523789   1.611   1.120   3.468  0.8563 -1.2969  0.4585
   43MOL   C18623790   1.477   1.169   3.472  0.3889  0.1111 -0.3144
   43MOL   C18723791   1.454   1.302   3.514 -0.1288  0.5771 -1.0537
   43MOL   H18823792   1.782   1.391   3.560 -1.4034  2.3421 -1.4221
   43MOL   H18923793   1.933   1.218   3.516 -0.1087  1.0807 -3.2844
   43MOL   H19023794   1.974   0.986   3.504 -0.2480  1.1684  2.3338
   43MOL   H19123795   1.912   0.566   3.373 -0.5021  0.0267 -0.3149
   43MOL   H19223796   2.076   0.621   3.373 -0.0698 -1.0038 -0.9487
   43MOL   H19323797   1.899   0.659   3.137 -0.4313  1.4263  1.0844
   43MOL   H19423798   2.052   0.722   3.137  1.4113 -0.2081  0.0654
   43MOL   H19523799   1.549   0.918   3.424 -0.4391  0.4897 -0.8581
   43MOL   H19623800   1.399   1.096   3.458 -0.3726  1.1873 -1.7556
   43MOL   H19723801   1.351   1.330   3.529 -0.3146 -1.3290  1.5396
   43MOL   O19823802   2.271   0.584   3.152  0.5212 -0.3109 -0.2740
   43MOL   C19923803   2.188   0.496   3.122  0.0132  0.4743  0.3723
   43MOL   O20023804   2.055   0.513   3.130  0.5493 -0.1776  0.0385
   43MOL   C20123805   2.221   0.362   3.086  0.1286  0.2789 -0.0863
   43MOL   C20223806   2.130   0.257   3.106 -0.6352  0.6342 -0.1064
   43MOL   C20323807   2.158   0.128   3.070 -0.4721  0.5718  0.4336
   43MOL   C20423808   2.061   0.027   3.076 -0.2455 -0.5059  0.0768
   43MOL   C20523809   2.082   8.148   3.033  0.2486  0.1874 -0.5097
   43MOL   C20623810   2.213   8.114   2.995  0.1089  0.3295 -0.1262
   43MOL   C20723811   2.244   7.971   2.982  0.4934  0.0402  0.1496
   43MOL   O20823812   2.365   7.943   2.922  0.4731  0.0359  0.2094
   43MOL   C20923813   2.417   7.811   2.911 -0.0448 -0.6382 -0.1146
   43MOL   C21023814   2.566   7.804   2.879 -0.4449  0.0327  0.0869
   43MOL   O21123815   2.166   7.879   3.014  0.1416  0.7841 -0.4168
   43MOL   C21223816   2.313   8.214   2.981  0.1445  0.7156  0.0190
   43MOL   C21323817   2.283   0.097   3.019 -0.6035 -0.8646  0.4074
   43MOL   C21423818   2.380   0.200   3.002  0.0818 -0.1664 -0.1823
   43MOL   C21523819   2.353   0.332   3.043  0.5400 -0.2023 -0.8085
   43MOL   H21623820   2.033   0.270   3.152 -0.8264  0.1558 -0.3628
   43MOL   H21723821   1.959   0.051   3.105 -0.5423 -3.2902  1.4442
   43MOL   H21823822   2.009   8.068   3.027 -0.6195  1.0274 -1.3874
   43MOL   H21923823   2.358   7.743   2.850 -1.4323 -0.0874  0.5758
   43MOL   H22023824   2.405   7.771   3.012  0.3887 -0.7525 -0.1076
   43MOL   H22123825   2.624   7.850   2.959 -2.4895  1.7143  0.6522
   43MOL   H22223826   2.606   7.703   2.882 -0.4240  0.0395  0.0284
   43MOL   H22323827   2.411   8.193   2.941 -0.6166 -0.6715 -1.1445
   43MOL   H22423828   2.480   0.180   2.966 -0.5307  0.3246 -2.2274
   43MOL   H22523829   2.422   0.415   3.041 -1.9916  1.9557 -1.1557
   43MOL   O22623830   2.644   8.067   2.880 -0.0113  0.3223  0.3156
   43MOL   C22723831   2.607   8.013   2.773  0.2592  0.5023  0.3145
   43MOL   O22823832   2.588   7.879   2.757  0.0947 -0.2405 -0.0989
   43MOL   C22923833   2.595   8.086   2.642  0.4796  0.6465 -0.0640
   43MOL   C23023834   2.568   8.227   2.644 -1.4072 -1.0014 -0.8632
   43MOL   C23123835   2.533   0.045   2.526  0.0663  0.1507  0.0388
   43MOL   C23223836   2.492   0.181   2.530 -0.0730  0.4485  0.0139
   43MOL   C23323837   2.449   0.244   2.413 -1.0327  0.3440 -0.1366
   43MOL   C23423838   2.445   0.175   2.291  0.0171  0.4522  0.8876
   43MOL   C23523839   2.398   0.239   2.161 -0.1192  0.0209 -0.0384
   43MOL   O23623840   2.356   0.363   2.177  0.2985 -0.2393  0.1779
   43MOL   C23723841   2.281   0.434   2.076 -0.5964  0.0183 -0.3142
   43MOL   C23823842   2.196   0.548   2.135 -1.0920 -0.1620  0.4812
   43MOL   O23923843   2.388   0.180   2.054  0.5063 -0.5501 -0.1897
   43MOL   C24023844   2.489   0.038   2.289 -0.1757 -0.9849 -0.0515
   43MOL   C24123845   2.529   8.224   2.407 -1.0053  0.1273  0.1115
   43MOL   C24223846   2.563   8.085   2.408 -0.2592 -0.0042  0.0245
   43MOL   C24323847   2.595   8.011   2.522 -0.3741  0.2568  0.2660
   43MOL   H24423848   2.571   0.034   2.736  0.3748  0.2197 -1.6534
   43MOL   H24523849   2.488   0.242   2.619  0.3408 -0.5029  0.6793
   43MOL   H24623850   2.427   0.350   2.412  0.0527  0.5706 -0.5147
   43MOL   H24723851   2.204   0.361   2.052  1.1688 -2.1054  0.3514
   43MOL   H24823852   2.355   0.455   1.999  0.6893 -0.2166  0.8273
   43MOL   H24923853   2.255   0.587   2.218  0.3145 -1.3554  0.0556
   43MOL   H25023854   2.167   0.633   2.073 -1.5066  0.3723  1.3931
   43MOL   H25123855   2.476   8.234   2.196  1.0058 -2.4857  0.6280
   43MOL   H25223856   2.577   8.028   2.318  1.6288  1.3399 -0.5790
   43MOL   H25323857   2.604   7.903   2.516 -2.4836  0.0335  0.4956
   43MOL   O25423858   2.015   0.663   2.315 -0.3766  0.8003  0.1363
   43MOL   C25523859   2.003   0.546   2.276  0.1534  0.6162 -0.7511
   43MOL   O25623860   2.075   0.488   2.179 -0.5986  0.5619 -0.7052
   43MOL   C25723861   1.900   0.455   2.336 -0.2315 -0.4775 -0.0723
   43MOL   C25823862   1.770   0.503   2.360 -0.0273  0.2810 -0.2233
   43MOL   C25923863   1.675   0.425   2.431 -0.0080  0.4756  0.6329
   43MOL   C26023864   1.548   0.478   2.454  0.1730  0.1640  0.3789
   43MOL   C26123865   1.456   0.384   2.508  0.2879 -0.7294 -0.7381
   43MOL   C26223866   1.482   0.252   2.539 -0.1571 -0.0259  0.1171
   43MOL   C26323867   1.391   0.164   2.615  0.4226 -0.2394 -0.3912
   43MOL   O26423868   1.275   0.221   2.649 -0.5319 -0.5540 -0.3109
   43MOL   C26523869   1.184   0.161   2.737  0.3494  0.2015 -0.1014
   43MOL   C26623870   1.217   0.172   2.886  0.0420 -0.5745  0.2488
   43MOL   O26723871   1.410   0.048   2.644  0.9386  0.3066 -0.2740
   43MOL   C26823872   1.613   0.199   2.510  0.1719 -0.2453 -0.0799
   43MOL   C26923873   1.704   0.292   2.456 -0.2649 -0.0433  0.0979
   43MOL   C27023874   1.829   0.240   2.427 -0.6489 -0.6732 -0.2780
   43MOL   C27123875   1.931   0.321   2.365 -0.9058  0.2624 -0.3861
   43MOL   H27223876   1.739   0.604   2.341 -0.8373 -0.1201 -1.0898
   43MOL   H27323877   1.523   0.577   2.420 -0.7403 -0.3590 -0.4863
   43MOL   H27423878   1.360   0.427   2.533  0.1689 -2.1341  1.2882
   43MOL   H27523879   1.190   0.053   2.725  0.0566  0.3449 -1.6010
   43MOL   H27623880   1.078   0.174   2.715  0.4674  0.4327 -0.5432
   43MOL   H27723881   1.129   0.133   2.938 -0.9706  1.8371  0.4063
   43MOL   H27823882   1.303   0.109   2.910 -0.0270 -1.8705 -2.7905
   43MOL   H27923883   1.634   0.097   2.538  1.8897  0.2233  0.4618
   43MOL   H28023884   1.854   0.140   2.461 -1.9382 -0.7737  0.4288
   43MOL   H28123885   2.032   0.289   2.343  0.1312  1.6633  2.0662
   43MOL   O28223886   1.267   0.267   3.133 -0.3345  0.2071 -0.4109
   43MOL   C28323887   1.282   0.339   3.039  0.9004 -0.5918  0.7190
   43MOL   O28423888   1.246   0.305   2.912  0.2693  0.3283  0.2629
   43MOL   C28523889   1.333   0.485   3.045 -0.0033 -0.3745 -0.1907
   43MOL   C28623890   1.322   0.574   2.942  0.4221 -0.0733  0.2082
   43MOL   C28723891   1.353   0.707   2.960  0.5946 -0.6380 -0.9400
   43MOL   C28823892   1.349   0.794   2.852  0.2017 -0.6135  0.2188
   43MOL   C28923893   1.362   0.930   2.880  0.4536 -0.0138 -0.0823
   43MOL   C29023894   1.393   0.980   3.011  0.5463  0.4237  1.0768
   43MOL   C29123895   1.430   1.122   3.033 -0.4269  0.8334  0.1219
   43MOL   O29223896   1.510   1.150   3.142  0.2515 -0.4213 -0.1076
   43MOL   C29323897   1.575   1.271   3.152  0.0072 -0.1247 -0.0188
   43MOL   C29423898   1.695   1.296   3.056  0.2119  0.1574 -0.0187
   43MOL   O29523899   1.405   1.206   2.947  0.4556  0.3500  0.3428
   43MOL   C29623900   1.405   0.885   3.115  0.0876  0.0411  0.2374
   43MOL   C29723901   1.388   0.750   3.096  0.3992 -0.0826  0.1165
   43MOL   C29823902   1.400   0.662   3.205 -0.2837  0.7050 -0.5879
   43MOL   C29923903   1.377   0.528   3.172 -0.1251  0.1481 -0.0155
   43MOL   H30023904   1.287   0.534   2.848  0.1366 -2.5277  1.3317
   43MOL   H30123905   1.316   0.756   2.757 -0.8613 -1.2070  0.8095
   43MOL   H30223906   1.368   0.998   2.797 -0.3621 -0.8718 -0.8608
   43MOL   H30323907   1.621   1.291   3.249  0.3266  2.2350 -0.6237
   43MOL   H30423908   1.498   1.348   3.146  0.1596  0.0670  0.4486
   43MOL   H30523909   1.702   1.225   2.974 -1.7577  0.3416 -0.3817
   43MOL   H30623910   1.701   1.400   3.025  0.7557  0.1986  0.2209
   43MOL   H30723911   1.439   0.926   3.209  0.4442 -0.7307  0.4449
   43MOL   H30823912   1.426   0.694   3.305  1.1850  1.4890 -1.2039
   43MOL   H30923913   1.379   0.454   3.251  0.0697  0.6130  0.4238
   43MOL   O31023914   1.813   1.062   3.123 -0.1422  0.0659  0.5447
   43MOL   C31123915   1.871   1.164   3.148 -0.1303 -0.6539  0.7499
   43MOL   O31223916   1.807   1.294   3.135  0.2086  0.4136  0.0255
   43MOL   C31323917   2.010   1.172   3.204  1.4163  0.3919  0.4202
   43MOL   C31423918   2.087   1.054   3.202  0.1728 -0.2830 -0.0263
   43MOL   C31523919   2.223   1.053   3.246  0.6272 -0.1397  0.5428
   43MOL   C31623920   2.311   0.941   3.223 -0.2368  0.4758  0.2793
   43MOL   C31723921   2.444   0.953   3.263  0.3686  0.4546 -0.4397
   43MOL   C31823922   2.492   1.073   3.318  0.3302 -0.0820 -0.2596
   43MOL   C31923923   2.630   1.080   3.369 -0.4187  0.1462 -0.0446
   43MOL   O32023924   2.679   1.209   3.352  0.2004  0.2653  0.4762
   43MOL   C32123925   2.812   1.234   3.386 -0.7106  0.1782 -0.6666
   43MOL   C32223926   2.899   1.219   3.263 -0.3635  0.4059 -0.0051
   43MOL   O32323927   2.694   0.979   3.400  0.3827 -0.1484 -0.0686
   43MOL   C32423928   2.404   1.182   3.344  0.1541  0.0291  0.1803
   43MOL   C32523929   2.269   1.176   3.305 -0.0390 -0.4619  0.3881
   43MOL   C32623930   2.190   1.289   3.323  0.1562  0.8709 -0.6025
   43MOL   C32723931   2.058   1.290   3.260 -0.8563  0.3390  0.1766
   43MOL   H32823932   2.059   0.969   3.141  0.5327 -0.6711  0.3391
   43MOL   H32923933   2.268   0.845   3.198  3.4913 -0.7256 -1.9024
   43MOL   H33023934   2.502   0.863   3.258  0.0452  0.0540  2.3424
   43MOL   H33123935   2.843   1.182   3.477  2.3773  1.6242 -0.8111
   43MOL   H33223936   2.814   1.336   3.424  0.3443 -0.6900  1.7376
   43MOL   H33323937   2.849   1.263   3.176  1.8681  0.4157 -1.3249
   43MOL   H33423938   2.994   1.272   3.272  0.3695 -0.4692 -2.1548
   43MOL   H33523939   2.444   1.265   3.400  2.3403 -0.6457 -0.3118
   43MOL   H33623940   2.228   1.383   3.360  0.3032  0.1090  1.2125
   43MOL   H33723941   1.998   1.375   3.286 -0.9586  0.5500 -0.7467
   43MOL   O33823942   3.132   1.082   3.319  0.5095 -0.7389  1.0837
   43MOL   C33923943   3.030   1.020   3.285 -0.2902  0.1922 -0.3535
   43MOL   O34023944   2.921   1.089   3.238 -0.4375 -0.6174 -0.1260
   43MOL   C34123945   3.022   0.873   3.265  0.4413 -0.6035 -0.5546
   43MOL   C34223946   2.905   0.805   3.214  1.5486  0.3245 -0.1673
   43MOL   C34323947   2.898   0.666   3.203 -0.0249 -1.0925  0.0144
   43MOL   C34423948   2.781   0.598   3.157 -0.2766  0.4869  0.4951
   43MOL   C34523949   2.768   0.459   3.145 -0.1005  0.6244 -0.2440
   43MOL   C34623950   2.884   0.382   3.167 -0.7088  0.6451  0.2090
   43MOL   C34723951   2.889   0.237   3.128 -0.2365  0.2107  0.3092
   43MOL   O34823952   2.769   0.184   3.101  0.6411  0.0074  0.0269
   43MOL   C34923953   2.728   0.047   3.105  0.2917 -0.2806  0.1037
   43MOL   C35023954   2.698   0.008   3.254  0.4051 -0.0852  0.2654
   43MOL   O35123955   2.993   0.176   3.139  0.5633  0.5057 -0.7710
   43MOL   C35223956   3.007   0.443   3.218 -0.2950  0.3551  0.1947
   43MOL   C35323957   3.012   0.583   3.234  0.1173 -0.0965 -0.2821
   43MOL   C35423958   3.124   0.647   3.291  0.1896 -0.6032 -0.2327
   43MOL   C35523959   3.130   0.791   3.302  0.2013  0.4360  0.0030
   43MOL   H35623960   2.815   0.863   3.203  0.3060 -1.1474  1.9131
   43MOL   H35723961   2.689   0.650   3.134 -1.8679 -2.3088  0.2984
   43MOL   H35823962   2.674   0.411   3.123 -1.7743  3.1736  1.2054
   43MOL   H35923963   2.813   8.239   3.066  1.6636  2.0495 -0.4019
   43MOL   H36023964   2.640   0.039   3.041  1.1430  0.2963 -1.1649
   43MOL   H36123965   2.639   8.166   3.242  0.0480 -0.2848  3.2207
   43MOL   H36223966   2.782   8.234   3.321 -1.5432  2.3727  3.6972
   43MOL   H36323967   3.098   0.387   3.233 -0.4238  0.3354  0.9171
   43MOL   H36423968   3.215   0.591   3.312  0.1640 -1.2921 -1.8703
   43MOL   H36523969   3.219   0.834   3.344  0.8142  0.1050 -0.9489
   43MOL   O36623970   2.799   0.194   3.435 -0.2328 -0.1483  0.2115
   43MOL   C36723971   2.684   0.201   3.394  0.2067 -0.6075 -0.5555
   43MOL   O36823972   2.621   0.107   3.311  0.6949  0.2253  0.5215
   43MOL   C36923973   2.596   0.312   3.425 -0.2127 -0.1575  0.4258
   43MOL   C37023974   2.647   0.436   3.475 -0.0762 -0.8021  0.2387
   43MOL   C37123975   2.562   0.542   3.513  0.1327 -0.1815 -0.0127
   43MOL   C37223976   2.623   0.658   3.566  0.4723 -0.4048  0.2973
   43MOL   C37323977   2.539   0.762   3.608  0.5662  0.8468  0.1344
   43MOL   C37423978   2.398   0.757   3.597 -0.4813  0.2214 -0.1947
   43MOL   C37523979   2.313   0.877   3.643 -0.1366 -0.1180  0.7207
   43MOL   O37623980   2.377   0.957   3.729 -0.1895  0.0184  0.0879
   43MOL   C37723981   2.315   1.068   3.786 -0.3336  0.2148  0.9168
   43MOL   C37823982   2.376   1.191   3.717 -1.0084 -1.0341  0.5323
   43MOL   O37923983   2.196   0.907   3.608 -0.2019  0.6802  0.4703
   43MOL   C38023984   2.341   0.640   3.539 -0.5087  0.4461  0.0198
   43MOL   C38123985   2.422   0.533   3.492 -0.2013 -0.0938 -0.4628
   43MOL   C38223986   2.364   0.416   3.440  0.2053  0.1856  0.3888
   43MOL   C38323987   2.451   0.308   3.402  0.2509  0.5994 -0.6600
   43MOL   H38423988   2.754   0.443   3.487 -0.1574 -2.8741  2.3566
   43MOL   H38523989   2.727   0.661   3.595  0.0144  1.4548  1.8126
   43MOL   H38623990   2.595   0.843   3.654  2.9233 -1.4827  1.4680
   43MOL   H38723991   2.328   1.076   3.894 -0.7787 -0.5330  1.0288
   43MOL   H38823992   2.207   1.063   3.770  0.0315 -1.4071 -1.1676
   43MOL   H38923993   2.359   1.179   3.610 -0.4320  2.0062  0.0445
   43MOL   H39023994   2.320   1.282   3.741  1.0120  0.2554  0.5111
   43MOL   H39123995   2.233   0.639   3.533 -0.6285  0.4870  2.0868
   43MOL   H39223996   2.258   0.410   3.421  0.2845  0.7939 -0.2911
   43MOL   H39323997   2.412   0.214   3.369  1.2560  0.1930 -0.7114
   43MOL   O39423998   2.523   1.242   3.952 -0.2531 -0.3943 -0.5564
   43MOL   C39523999   2.579   1.204   3.846 -0.3350 -0.4067 -0.5390
   43MOL   O39624000   2.520   1.189   3.732  0.3923  0.3132  0.6728
   43MOL   C39724001   2.721   1.187   3.831 -0.4769 -0.7703 -0.2797
   43MOL   C39824002   2.770   1.083   3.748  0.3470 -0.4412 -0.2587
   43MOL   C39924003   2.908   1.082   3.728  0.4645  0.2627  0.6272
   43MOL   C40024004   2.955   0.990   3.629  0.2287  0.2590 -0.3045
   43MOL   C40124005   3.094   0.983   3.615 -0.2319  0.2121  0.7926
   43MOL   C40224006   3.183   1.064   3.690 -0.5503 -0.7676 -0.7592
   43MOL   C40324007   3.333   1.050   3.685  0.3587 -0.0999 -0.2102
   43MOL   O40424008   3.378   0.968   3.575 -0.2789  0.2653  0.7717
   43MOL   C40524009   3.517   0.957   3.543 -0.2288 -0.8860  0.2364
   43MOL   C40624010   3.560   0.810   3.570 -0.0667 -0.3862 -0.2110
   43MOL   O40724011   3.414   1.114   3.759 -0.2691 -0.4438  0.3947
   43MOL   C40824012   3.134   1.169   3.774 -0.8582  0.0865 -0.3288
   43MOL   C40924013   3.000   1.173   3.790  0.1795  0.3235 -0.8456
   43MOL   C41024014   2.947   1.263   3.881 -0.4957  0.3772 -0.7722
   43MOL   C41124015   2.812   1.268   3.905  0.2651  0.2051 -0.3493
   43MOL   H41224016   2.694   1.033   3.690 -1.8383  2.3846  0.0314
   43MOL   H41324017   2.885   0.925   3.579 -1.3442 -0.3826  2.6119
   43MOL   H41424018   3.126   0.901   3.552 -1.0431  0.4020  0.1335
   43MOL   H41524019   3.578   1.016   3.611 -2.1876  1.4311  0.0627
   43MOL   H41624020   3.558   0.985   3.446 -1.5904  1.6617  0.3654
   43MOL   H41724021   3.667   0.806   3.592 -0.1280  0.3705  0.2527
   43MOL   H41824022   3.499   0.783   3.656 -0.0994 -0.8194 -0.3700
   43MOL   H41924023   3.195   1.243   3.822 -0.7368  0.7535 -1.5041
   43MOL   H42024024   3.013   1.331   3.932  0.3421  0.3362 -1.7870
   43MOL   H42124025   2.777   1.341   3.978 -0.9357  0.7973 -1.4928
   43MOL   O42224026   3.717   0.616   3.474  0.9603 -0.4755  0.5435
   43MOL   C42324027   3.619   0.652   3.405 -0.3590  0.8013 -0.0992
   43MOL   O42424028   3.528   0.733   3.457 -0.6119  0.0087  0.0955
   43MOL   C42524029   3.581   0.596   3.270  0.0042  0.3279 -0.0480
   43MOL   C42624030   3.642   0.478   3.213 -0.4178 -0.3392  0.6377
   43MOL   C42724031   3.611   0.435   3.075  0.4250 -0.5177 -0.0834
   43MOL   C42824032   3.678   0.323   3.018  0.0390  0.0779  0.2589
   43MOL   C42924033   3.654   0.293   2.885 -0.4975 -0.2351  1.0246
   43MOL   C43024034   3.554   0.366   2.813  0.1667 -0.0529 -0.4949
   43MOL   C43124035   3.531   0.328   2.669  0.5947 -0.6269 -0.0820
   43MOL   O43224036   3.560   0.204   2.642 -0.3907  0.3486 -0.7035
   43MOL   C43324037   3.522   0.140   2.519 -0.5003 -0.0176  0.2246
   43MOL   C43424038   3.459   0.003   2.560  0.5009 -0.0854  0.4586
   43MOL   O43524039   3.482   0.407   2.586  0.1042 -0.2179 -0.1320
   43MOL   C43624040   3.481   0.473   2.873  1.1383 -0.1645 -0.0843
   43MOL   C43724041   3.511   0.506   3.007 -0.1803  0.4141 -0.5405
   43MOL   C43824042   3.436   0.611   3.070  0.8527  0.0257  0.5930
   43MOL   C43924043   3.469   0.651   3.197 -0.0812  0.1589 -0.0946
   43MOL   H44024044   3.723   0.432   3.268  0.7898  0.9219 -0.0556
   43MOL   H44124045   3.758   0.270   3.069  0.2844  0.5212  0.3407
   43MOL   H44224046   3.704   0.217   2.826 -0.3038  0.4214  0.3413
   43MOL   H44324047   3.612   0.124   2.460 -0.0148  0.0654  0.9300
   43MOL   H44424048   3.450   0.198   2.462  0.0208 -0.1915 -0.6145
   43MOL   H44524049   3.530   8.198   2.622  0.4975 -1.1277 -0.4172
   43MOL   H44624050   3.369   0.009   2.620  1.0929 -0.4556  1.3928
   43MOL   H44724051   3.407   0.525   2.814  0.4950  0.0461  0.8975
   43MOL   H44824052   3.365   0.676   3.020 -1.1727 -2.3597  0.3022
   43MOL   H44924053   3.422   0.739   3.238  1.2388  0.5446  0.5887
   43MOL   O45024054   3.628   8.099   2.414 -0.6993 -0.2915 -0.3743
   43MOL   C45124055   3.512   8.093   2.387  0.6698 -0.6719  0.0255
   43MOL   O45224056   3.424   8.165   2.449  0.3166 -0.0706 -0.4061
   43MOL   C45324057   3.447   7.997   2.293  0.3775  0.2305  0.7100
   43MOL   C45424058   3.508   7.871   2.252  0.4385  0.4352 -0.2224
   43MOL   C45524059   3.431   7.789   2.162  0.5944  0.1190 -0.6664
   43MOL   C45624060   3.476   7.658   2.129 -0.6828  0.5067 -0.1504
   43MOL   C45724061   3.400   7.581   2.035 -0.1050  0.5313 -0.2707
   43MOL   C45824062   3.273   7.624   1.988 -0.4938 -0.3486  0.1668
   43MOL   C45924063   3.197   7.531   1.907  0.2642 -0.8206  0.2408
   43MOL   O46024064   3.070   7.581   1.900 -0.4931  0.2360  0.5964
   43MOL   C46124065   2.958   7.513   1.846  0.1639  0.1798  0.3187
   43MOL   C46224066   2.849   7.522   1.961 -0.6448  0.3982 -0.4098
   43MOL   O46324067   3.241   7.424   1.871  0.0873 -0.2567 -0.2575
   43MOL   C46424068   3.235   7.753   2.031 -0.1543 -0.0100 -0.0645
   43MOL   C46524069   3.309   7.834   2.111 -0.2512 -0.1552  0.6295
   43MOL   C46624070   3.256   7.964   2.135  0.4412  0.2578  0.2758
   43MOL   C46724071   3.328   8.043   2.225 -0.0324 -0.4379 -0.8330
   43MOL   H46824072   3.590   7.837   2.314 -0.0677  1.2239  0.8797
   43MOL   H46924073   3.567   7.615   2.167  2.1007  3.0180 -3.5913
   43MOL   H47024074   3.429   7.480   2.009 -1.5510  0.7384 -2.7567
   43MOL   H47124075   2.992   7.415   1.815  2.0285  0.8095  0.3007
   43MOL   H47224076   2.917   7.571   1.763 -2.4453 -1.5192  0.3760
   43MOL   H47324077   2.754   7.475   1.936 -0.5854 -1.1795  2.1309
   43MOL   H47424078   2.879   7.468   2.051 -1.6244 -2.1064 -1.5475
   43MOL   H47524079   3.148   7.799   1.985  0.8438  1.2460 -0.7387
   43MOL   H47624080   3.164   7.999   2.091  0.1755 -0.9182 -0.1195
   43MOL   H47724081   3.282   8.133   2.264  1.3808 -0.1645  0.2195
   43MOL   O47824082   2.894   7.642   2.195  0.1427  0.1179 -0.4691
   43MOL   C47924083   2.851   7.712   2.099  0.3322 -1.0004 -0.6767
   43MOL   O48024084   2.817   7.659   1.979  0.3266 -0.3207  0.2151
   43MOL   C48124085   2.836   7.861   2.116  0.0166  0.7262  0.0804
   43MOL   C48224086   2.902   7.920   2.228 -0.3658  0.5145  0.5491
   43MOL   C48324087   2.895   8.060   2.244  0.0658  0.4357 -0.0041
   43MOL   C48424088   2.963   8.122   2.352  0.4285 -1.1338 -0.6836
   43MOL   C48524089   2.957   0.011   2.374  0.6346 -0.4820  0.1126
   43MOL   C48624090   2.867   0.089   2.291 -0.3524  0.4567 -0.1294
   43MOL   C48724091   2.852   0.233   2.331 -0.1570  0.2996 -0.0846
   43MOL   O48824092   2.842   0.237   2.464 -0.1504 -0.5336 -0.1047
   43MOL   C48924093   2.797   0.356   2.517  0.3576 -0.0390  0.3192
   43MOL   C49024094   2.801   0.334   2.671 -0.0463 -0.6151  0.2088
   43MOL   O49124095   2.840   0.328   2.252 -0.3486  0.1405 -0.0677
   43MOL   C49224096   2.805   0.028   2.180 -0.3868  0.0266  0.1024
   43MOL   C49324097   2.818   8.137   2.156 -0.4074 -0.2650 -0.0811
   43MOL   C49424098   2.751   8.079   2.047  0.0571 -0.2295 -0.9870
   43MOL   C49524099   2.756   7.943   2.034 -0.5643 -0.0817 -0.1791
   43MOL   H49624100   2.949   7.853   2.297  0.0323 -1.8476 -1.9025
   43MOL   H49724101   3.019   8.064   2.424 -0.8072 -2.7991 -1.0343
   43MOL   H49824102   2.999   0.059   2.461 -0.2582  0.4719  0.0280
   43MOL   H49924103   2.696   0.373   2.480  0.5828 -1.4183 -0.9460
   43MOL   H50024104   2.863   0.436   2.482 -0.7410  0.3200 -0.9578
   43MOL   H50124105   2.734   0.251   2.692 -0.5301 -0.1200  0.6166
   43MOL   H50224106   2.903   0.304   2.695 -0.3540 -0.6086  1.5422
   43MOL   H50324107   2.748   0.086   2.109 -0.1436  0.3541  0.1732
   43MOL   H50424108   2.698   8.143   1.978 -1.4355 -0.2189  0.1476
   43MOL   H50524109   2.703   7.889   1.958 -0.8668  0.1251 -0.1163
   43MOL   O50624110   2.563   0.389   2.795  0.0105  0.1664  1.0653
   43MOL   C50724111   2.660   0.467   2.807  0.7035 -0.5179  0.4731
   43MOL   O50824112   2.776   0.451   2.738 -0.6306  0.1137  0.1060
   43MOL   C50924113   2.635   0.608   2.854  1.3632 -0.2194 -0.6252
   43MOL   C51024114   2.734   0.705   2.834 -0.4545 -0.0414 -0.3531
   43MOL   C51124115   2.716   0.836   2.873  0.1448  0.0747 -0.0753
   43MOL   C51224116   2.815   0.926   2.844  0.8603  0.4981  0.3206
   43MOL   C51324117   2.800   1.060   2.875 -0.3908 -0.0458  0.1853
   43MOL   C51424118   2.673   1.104   2.927  0.4905 -0.3842 -1.1405
   43MOL   C51524119   2.647   1.253   2.966 -0.2405  0.2938  0.3933
   43MOL   O51624120   2.745   1.339   2.939  0.4892 -0.0101  1.0619
   43MOL   C51724121   2.746   1.472   2.986 -0.1137 -0.2177 -0.0432
   43MOL   C51824122   2.640   1.555   2.914 -0.1133  0.9711 -0.1871
   43MOL   O51924123   2.548   1.285   3.021  0.6301 -0.0145 -0.4240
   43MOL   C52024124   2.572   1.010   2.951  0.0459 -0.1707 -0.2891
   43MOL   C52124125   2.595   0.876   2.932  0.2575  0.0443  0.9716
   43MOL   C52224126   2.496   0.777   2.953 -0.5295 -0.6604  0.1101
   43MOL   C52324127   2.511   0.648   2.907 -0.9081 -0.1964 -0.0130
   43MOL   H52424128   2.831   0.678   2.795 -0.8130 -1.3396 -0.3850
   43MOL   H52524129   2.903   0.904   2.785  1.2315  1.6218  0.4250
   43MOL   H52624130   2.882   1.129   2.862  0.4466 -1.3981 -1.9647
   43MOL   H52724131   2.842   1.521   2.996  0.0949 -0.8429  1.1579
   43MOL   H52824132   2.717   1.478   3.091  1.9830  1.8584  0.4530
   43MOL   H52924133   2.638   1.518   2.811 -1.8270  0.2322  0.0974
   43MOL   H53024134   2.544   1.530   2.959  0.9502  0.3181  1.8101
   43MOL   H53124135   2.478   1.045   2.991  0.9353 -1.9419  3.5712
   43MOL   H53224136   2.400   0.809   2.991 -2.0968 -2.0772 -2.4894
   43MOL   H53324137   2.423   0.588   2.921 -1.0448  0.2376  1.0126
   43MOL   O53424138   2.753   1.681   2.686  0.3853 -0.8444 -0.0023
   43MOL   C53524139   2.749   1.739   2.798  0.3582 -0.9477  0.1157
   43MOL   O53624140   2.673   1.689   2.905 -0.1662 -0.2098 -0.6696
   43MOL   C53724141   2.805   1.875   2.830  0.4391 -0.3831 -0.5031
   43MOL   C53824142   2.795   1.935   2.953  0.1097  0.2327 -0.0430
   43MOL   C53924143   2.856   2.062   2.973  0.1600  0.2569 -0.0685
   43MOL   C54024144   2.845   2.130   3.100  0.8925 -0.0215  0.0159
   43MOL   C54124145   2.902   2.257   3.119  0.3655 -0.6632 -0.5059
   43MOL   C54224146   2.987   2.316   3.025 -0.5013 -0.6123 -0.3783
   43MOL   C54324147   3.052   2.452   3.043 -0.2901 -0.0609 -0.1057
   43MOL   O54424148   3.029   2.513   3.164 -0.2143 -0.1372 -0.6213
   43MOL   C54524149   3.085   2.636   3.182 -0.6276  0.0296 -0.3612
   43MOL   C54624150   3.166   2.652   3.312  0.4626 -0.1506  0.3744
   43MOL   O54724151   3.132   2.491   2.963 -0.0309 -0.4842 -0.7577
   43MOL   C54824152   2.992   2.250   2.899  0.1383 -0.4509  0.0480
   43MOL   C54924153   2.926   2.130   2.871 -0.1165 -0.3511 -0.4121
   43MOL   C55024154   2.935   2.068   2.745  0.5565  0.2673  0.5415
   43MOL   C55124155   2.886   1.938   2.727  0.2888  0.3126  0.3585
   43MOL   H55224156   2.727   1.890   3.024 -0.4280  1.4345  0.2243
   43MOL   H55324157   2.792   2.082   3.181 -1.0931  0.1983 -1.1089
   43MOL   H55424158   2.892   2.307   3.215  0.7309 -1.3772 -0.0930
   43MOL   H55524159   3.004   2.708   3.195 -1.1860 -1.0551  2.8479
   43MOL   H55624160   3.144   2.677   3.100  0.9266 -1.8061 -0.1974
   43MOL   H55724161   3.106   2.663   3.402 -0.3623  3.6000 -0.5365
   43MOL   H55824162   3.206   2.753   3.311  0.7247 -0.2546  0.2621
   43MOL   H55924163   3.045   2.295   2.816  1.4401 -1.6680  0.2042
   43MOL   H56024164   2.990   2.118   2.667 -0.2996 -0.6617 -0.6603
   43MOL   H56124165   2.908   1.889   2.633 -0.9421  0.5884 -0.0724
   43MOL   H56224166   3.240   2.571   3.314  0.8707  0.1501 -1.4748
   44MOL     O124167   1.183   3.855   3.376 -0.6481  0.5993  1.0271
   44MOL     C224168   1.166   3.931   3.470 -1.5519 -0.1711 -0.2934
   44MOL     O324169   1.255   4.022   3.489  0.1444 -0.4459  0.5582
   44MOL     C424170   1.050   3.920   3.572 -1.4081  0.3989 -0.6706
   44MOL     C524171   1.056   4.008   3.685  0.4781  0.0108  1.0866
   44MOL     C624172   0.948   4.015   3.776 -0.3689  1.0458  0.8963
   44MOL     C724173   0.951   4.105   3.881 -0.5851 -0.3502  0.4886
   44MOL     C824174   0.847   4.095   3.980  0.2061  0.6506 -0.0220
   44MOL     C924175   0.742   4.000   3.969 -0.1762 -0.2453  0.3049
   44MOL    C1024176   0.650   3.995   4.081  0.3361 -0.6137 -0.3062
   44MOL    O1124177   0.551   3.902   4.067  0.5626  0.1525 -0.0884
   44MOL    C1224178   0.443   3.903   4.165 -0.4722  0.0575 -0.1669
   44MOL    C1324179   0.372   3.770   4.167 -0.1672 -0.4814  0.0101
   44MOL    O1424180   0.652   4.073   4.176 -0.5386  0.0822  0.2400
   44MOL    C1524181   0.732   3.919   3.852  0.7529  0.1727  0.0887
   44MOL    C1624182   0.840   3.922   3.761 -0.0396 -0.1550 -0.0677
   44MOL    C1724183   0.839   3.831   3.656  0.2115  0.3448 -0.1664
   44MOL    C1824184   0.949   3.823   3.566 -0.4221 -0.0524 -0.1402
   44MOL    H1924185   1.146   4.067   3.698  0.8610 -0.4444  0.5343
   44MOL    H2024186   1.035   4.172   3.893 -1.4668  1.6207 -3.5833
   44MOL    H2124187   0.849   4.149   4.074 -2.1092 -1.7832  1.4999
   44MOL    H2224188   0.476   3.934   4.264 -2.2558 -1.0316  0.8178
   44MOL    H2324189   0.373   3.984   4.144 -1.9414 -1.3527 -0.8200
   44MOL    H2424190   0.441   3.692   4.199 -0.5233 -0.4154  0.9311
   44MOL    H2524191   0.293   3.764   4.241 -1.2918  1.3583 -0.9818
   44MOL    H2624192   0.643   3.860   3.835  1.7451 -1.1257 -0.5926
   44MOL    H2724193   0.754   3.766   3.639 -0.9671  1.6490  0.7144
   44MOL    H2824194   0.950   3.748   3.488 -0.1774 -0.8945  0.6609
   44MOL    H2924195   1.333   4.025   3.435 -1.5890 -0.2246 -1.9760
   44MOL    O3024196   0.478   3.676   3.930  0.4587  0.2237 -0.0511
   44MOL    C3124197   0.355   3.688   3.940  0.3518  0.1993  0.2431
   44MOL    O3224198   0.297   3.737   4.049 -1.0120  0.7081  0.0171
   44MOL    C3324199   0.257   3.650   3.834  0.4664  0.1934  0.5451
   44MOL    C3424200   0.117   3.674   3.845 -0.7331  0.0115 -0.1812
   44MOL    C3524201   0.036   3.636   3.733  0.3163 -0.1778  0.2928
   44MOL    C3624202   8.152   3.674   3.738  0.8056 -0.5178 -0.2535
   44MOL    C3724203   8.070   3.660   3.627 -0.3278  0.2698 -0.4374
   44MOL    C3824204   8.122   3.595   3.506 -0.0827 -0.2610  0.3585
   44MOL    C3924205   8.037   3.580   3.381 -0.2316  0.5407  0.4938
   44MOL    O4024206   7.913   3.608   3.405 -0.0287 -0.5822 -0.2268
   44MOL    C4124207   7.819   3.580   3.303 -0.3598 -0.1672 -0.1406
   44MOL    C4224208   7.788   3.688   3.197  0.0353  0.1124 -0.4696
   44MOL    O4324209   8.087   3.549   3.271  0.2557 -1.1530 -0.4793
   44MOL    C4424210   0.013   3.566   3.502  0.6271  0.1995  0.3388
   44MOL    C4524211   0.093   3.596   3.610 -0.7933 -0.0188  0.2864
   44MOL    C4624212   0.233   3.576   3.598  0.6161 -0.4252 -0.0517
   44MOL    C4724213   0.313   3.606   3.711  0.9820 -0.1217 -0.1307
   44MOL    H4824214   0.074   3.715   3.936 -0.7638 -0.1939 -0.1015
   44MOL    H4924215   8.116   3.722   3.828 -1.4128 -1.0572 -0.8251
   44MOL    H5024216   7.969   3.696   3.636 -0.6411 -0.8817  0.9352
   44MOL    H5124217   7.716   3.572   3.338  0.2022 -0.1495  1.5509
   44MOL    H5224218   7.846   3.483   3.264 -2.3491 -0.9202  0.2742
   44MOL    H5324219   7.697   3.666   3.142 -1.4791  2.4766  1.0470
   44MOL    H5424220   7.764   3.781   3.247 -0.9026 -0.7255  0.6475
   44MOL    H5524221   0.057   3.536   3.409 -2.1685  0.2563 -1.0595
   44MOL    H5624222   0.284   3.550   3.507  0.0238 -2.1752  0.0868
   44MOL    H5724223   0.419   3.600   3.690  0.8447 -1.3223 -0.5432
   44MOL    O5824224   7.840   3.515   2.984  0.1266 -0.2608  0.8683
   44MOL    C5924225   7.915   3.617   3.001  0.7053 -0.4098  0.0815
   44MOL    O6024226   7.906   3.698   3.102 -0.0794  0.6749 -0.2081
   44MOL    C6124227   8.025   3.657   2.909 -0.0768  0.0644  0.4954
   44MOL    C6224228   8.062   3.563   2.809  0.3217  0.0635  0.0964
   44MOL    C6324229   8.160   3.604   2.716 -0.4324  0.3176  0.5373
   44MOL    C6424230   8.213   3.510   2.625 -0.1250 -0.5371  0.4207
   44MOL    C6524231   0.077   3.538   2.547  0.4030  0.7287 -0.4568
   44MOL    C6624232   0.127   3.672   2.551  0.7828 -0.2833  0.2018
   44MOL    C6724233   0.234   3.709   2.462 -0.5616  0.4070 -0.0573
   44MOL    O6824234   0.343   3.617   2.465 -0.0179 -0.0007  0.3860
   44MOL    C6924235   0.454   3.639   2.375  0.0089 -0.5272  0.3574
   44MOL    C7024236   0.486   3.518   2.278 -0.8975 -0.1584 -0.0973
   44MOL    O7124237   0.247   3.817   2.411 -0.2433 -0.5306  0.6334
   44MOL    C7224238   0.072   3.771   2.631 -0.4641 -0.4126  0.9955
   44MOL    C7324239   8.218   3.732   2.719  0.5118 -0.3376  0.7464
   44MOL    C7424240   8.175   3.825   2.821 -0.2409 -0.0574  0.0397
   44MOL    C7524241   8.084   3.787   2.918  0.3186  0.5659  0.8338
   44MOL    H7624242   8.022   3.464   2.793 -0.7096  0.6149 -0.7741
   44MOL    H7724243   8.191   3.405   2.620 -0.8039 -0.3629 -0.4702
   44MOL    H7824244   0.120   3.464   2.481  2.2414  2.9139 -1.7698
   44MOL    H7924245   0.540   3.657   2.440 -0.3568 -0.2722  0.7663
   44MOL    H8024246   0.444   3.736   2.327  1.1661 -1.5420 -2.0363
   44MOL    H8124247   0.558   3.554   2.205  0.7664 -2.7974  0.1833
   44MOL    H8224248   0.533   3.431   2.324  1.7281  0.4975 -1.4405
   44MOL    H8324249   0.119   3.867   2.641  1.0123 -1.1418  1.1804
   44MOL    H8424250   8.228   3.919   2.830  1.3953 -1.0315  1.0593
   44MOL    H8524251   8.061   3.850   3.003  0.2202 -0.2855  1.4399
   44MOL    O8624252   0.314   3.646   2.103  0.5453 -0.6769 -0.0615
   44MOL    C8724253   0.296   3.531   2.136  0.2932  0.1015  0.3815
   44MOL    O8824254   0.376   3.461   2.215  0.4129  0.3632  0.2537
   44MOL    C8924255   0.177   3.452   2.093  0.4213  0.4008  0.0964
   44MOL    C9024256   0.110   3.491   1.977  0.3819 -0.0373  0.1267
   44MOL    C9124257   8.246   3.416   1.939  0.3769  0.3241  0.0226
   44MOL    C9224258   8.186   3.452   1.823  0.3286  0.3462 -0.1318
   44MOL    C9324259   8.088   3.356   1.775  0.3298  0.4205  0.6017
   44MOL    C9424260   8.040   3.244   1.846 -0.1774  0.2528  0.2988
   44MOL    C9524261   7.943   3.149   1.791 -0.9066 -1.1411 -0.6133
   44MOL    O9624262   7.901   3.192   1.666  0.3051  0.0897  0.5452
   44MOL    C9724263   7.783   3.136   1.618  0.1911  0.2760 -0.2829
   44MOL    C9824264   7.713   3.249   1.541  0.1317 -0.1070  0.1242
   44MOL    O9924265   7.897   3.052   1.853 -0.0592 -0.2060 -0.5988
   44MOL   C10024266   8.098   3.221   1.975  0.5020  0.1909 -0.1102
   44MOL   C10124267   8.198   3.306   2.017  0.6660 -0.3843  0.3998
   44MOL   C10224268   0.009   3.278   2.138  0.3988 -0.5491  0.1695
   44MOL   C10324269   0.130   3.349   2.175  0.9163  0.1160  0.5471
   44MOL   H10424270   0.157   3.569   1.918 -0.0380 -0.8939 -1.3672
   44MOL   H10524271   8.213   3.543   1.771  0.3037  1.2757  1.4614
   44MOL   H10624272   8.045   3.391   1.682  0.9673  2.6203  1.0991
   44MOL   H10724273   7.714   3.111   1.699 -0.9662  2.3321 -0.6071
   44MOL   H10824274   7.812   3.050   1.559  1.5404  0.0587  0.6577
   44MOL   H10924275   7.750   3.267   1.440 -1.3356  0.0304 -0.4002
   44MOL   H11024276   7.617   3.199   1.529 -0.3515  1.2103 -1.7611
   44MOL   H11124277   8.074   3.134   2.035  2.2692 -1.0387 -1.1594
   44MOL   H11224278   8.225   3.192   2.193 -0.2027 -0.8478 -0.6462
   44MOL   H11324279   0.181   3.327   2.267 -0.9916 -2.1150  1.1475
   44MOL   O11424280   7.863   3.465   1.489 -0.6012 -0.6511 -0.2845
   44MOL   C11524281   7.790   3.466   1.590 -0.2520 -0.2819  0.1392
   44MOL   O11624282   7.706   3.364   1.620 -0.1366  0.0128 -0.0389
   44MOL   C11724283   7.796   3.570   1.700  0.4166  0.2036 -0.3133
   44MOL   C11824284   7.916   3.650   1.715 -0.4517 -0.1081  0.5488
   44MOL   C11924285   7.916   3.756   1.815 -0.4260  0.3701  0.4075
   44MOL   C12024286   8.021   3.847   1.833 -0.8483  0.1588  0.2751
   44MOL   C12124287   8.012   3.941   1.936 -0.3117  0.5384 -0.5021
   44MOL   C12224288   7.898   3.956   2.018 -0.2259  0.6408 -0.0385
   44MOL   C12324289   7.884   4.052   2.131  0.3708 -0.3839 -0.0935
   44MOL   O12424290   7.779   4.025   2.204  0.7238 -0.3877  0.3807
   44MOL   C12524291   7.754   4.103   2.316  0.5843 -0.0632  0.3400
   44MOL   C12624292   7.624   4.169   2.287  0.0866 -0.2058 -0.4062
   44MOL   O12724293   7.944   4.160   2.142  0.1692 -0.4357 -0.4038
   44MOL   C12824294   7.792   3.875   1.986 -0.2820  0.3695 -0.8197
   44MOL   C12924295   7.795   3.773   1.890  0.6817  0.4144  0.8901
   44MOL   C13024296   7.680   3.698   1.877  0.0754 -0.4349 -0.0858
   44MOL   C13124297   7.687   3.578   1.795  0.4774 -0.0515  0.0135
   44MOL   H13224298   8.008   3.626   1.664 -0.1819  0.1465  0.9155
   44MOL   H13324299   8.106   3.835   1.768  0.1123 -1.5226  1.7978
   44MOL   H13424300   8.099   4.002   1.955 -0.7101  0.6145  1.1862
   44MOL   H13524301   7.822   4.187   2.318 -0.0746  0.4506  1.5214
   44MOL   H13624302   7.743   4.042   2.406 -1.5092 -1.0252 -0.5401
   44MOL   H13724303   7.614   4.212   2.188 -2.6663  3.5962  1.3812
   44MOL   H13824304   7.537   4.106   2.303  0.1224 -0.6290 -1.8209
   44MOL   H13924305   7.697   3.885   2.036 -1.2940 -0.0354 -2.6163
   44MOL   H14024306   7.592   3.725   1.933  0.4467  0.5911  0.0143
   44MOL   H14124307   7.606   3.507   1.796  0.8394 -0.4646 -0.0267
   44MOL   O14224308   7.452   4.393   2.271 -0.3467 -0.2444 -0.0278
   44MOL   C14324309   7.536   4.380   2.361 -0.1467  0.7688  0.1695
   44MOL   O14424310   7.623   4.280   2.377  0.1531  0.1466 -0.0567
   44MOL   C14524311   7.562   4.487   2.456  0.0412  0.0981  0.0648
   44MOL   C14624312   7.539   4.618   2.405  0.8133  0.0103 -0.1742
   44MOL   C14724313   7.575   4.728   2.478  0.2324 -0.3990 -0.0441
   44MOL   C14824314   7.570   4.859   2.420  0.8119  0.0580  0.7092
   44MOL   C14924315   7.582   4.969   2.498 -0.1112 -0.5792  0.1398
   44MOL   C15024316   7.605   4.964   2.633  0.3985  0.3735 -0.2894
   44MOL   C15124317   7.605   5.092   2.715 -1.0197  0.7875 -0.0382
   44MOL   O15224318   7.624   5.067   2.831 -0.4100  0.5440  0.1228
   44MOL   C15324319   7.624   5.169   2.929  0.6303 -0.2997  0.0942
   44MOL   C15424320   7.711   5.127   3.052  0.0178 -0.4532 -0.5680
   44MOL   O15524321   7.591   5.201   2.668 -0.7513 -0.0464 -0.4734
   44MOL   C15624322   7.631   4.833   2.685 -0.0014 -0.1605  0.4218
   44MOL   C15724323   7.614   4.716   2.611 -0.6749  0.5468 -0.4863
   44MOL   C15824324   7.625   4.581   2.669 -0.6387 -0.5672  0.0082
   44MOL   C15924325   7.608   4.471   2.587  0.6592  0.0046  0.6908
   44MOL   H16024326   7.500   4.629   2.304 -1.4566 -0.7375  0.5860
   44MOL   H16124327   7.543   4.874   2.317  3.5744 -2.0324 -0.3743
   44MOL   H16224328   7.583   5.066   2.450 -4.6855 -0.3724  0.1777
   44MOL   H16324329   7.527   5.168   2.979  0.1439  1.2501 -0.8068
   44MOL   H16424330   7.646   5.267   2.888  0.7456 -0.6634 -0.7275
   44MOL   H16524331   7.809   5.108   3.008  0.8937  0.1453  1.1165
   44MOL   H16624332   7.722   5.205   3.127 -2.9581  0.4407 -1.0011
   44MOL   H16724333   7.670   4.820   2.785 -0.6446  1.0289  0.8432
   44MOL   H16824334   7.647   4.557   2.772  2.7850 -0.9414 -0.7464
   44MOL   H16924335   7.628   4.374   2.630 -0.8878 -0.8680 -0.5245
   44MOL   O17024336   7.828   4.869   3.045  0.1541 -0.3461  0.1205
   44MOL   C17124337   7.719   4.890   3.096  0.3904  0.0383 -0.3218
   44MOL   O17224338   7.653   5.006   3.104  0.3447 -0.1112  0.0751
   44MOL   C17324339   7.648   4.781   3.175 -0.0137  0.8917  0.1496
   44MOL   C17424340   7.726   4.681   3.236  0.1414  0.1262 -0.0598
   44MOL   C17524341   7.662   4.584   3.315  0.2230  0.0835  0.5148
   44MOL   C17624342   7.735   4.485   3.375  0.1160 -0.1427  0.3761
   44MOL   C17724343   7.686   4.380   3.454  0.4447  0.1163 -0.1479
   44MOL   C17824344   7.544   4.369   3.462 -0.0033 -0.6888  1.5106
   44MOL   C17924345   7.475   4.258   3.528  0.1429  0.0874 -0.7852
   44MOL   O18024346   7.351   4.224   3.472  0.4223  0.3421  0.1471
   44MOL   C18124347   7.274   4.114   3.524  0.4514 -0.6424 -0.6151
   44MOL   C18224348   7.201   4.038   3.411  0.2122  0.0486  0.6968
   44MOL   O18324349   7.519   4.204   3.625  0.2744  0.4258 -0.5324
   44MOL   C18424350   7.471   4.468   3.396 -0.0263  0.5735  0.2421
   44MOL   C18524351   7.525   4.578   3.324 -0.3079  0.3628 -0.1529
   44MOL   C18624352   7.450   4.672   3.259  0.3439 -0.0027  0.5904
   44MOL   C18724353   7.505   4.777   3.182 -0.5203  0.6432 -0.2171
   44MOL   H18824354   7.832   4.678   3.216 -0.2082 -2.5723 -1.7720
   44MOL   H18924355   7.841   4.504   3.368  0.2047  0.5843  2.9405
   44MOL   H19024356   7.757   4.311   3.495  0.5733 -0.1231 -0.7683
   44MOL   H19124357   7.205   4.152   3.600 -0.0509 -0.6767 -1.0483
   44MOL   H19224358   7.342   4.044   3.573  3.2378  0.9815 -2.0278
   44MOL   H19324359   7.275   4.010   3.335 -1.1824 -2.3085  0.1620
   44MOL   H19424360   7.170   3.939   3.444 -1.3062  0.8713  1.7376
   44MOL   H19524361   7.363   4.466   3.400 -0.0174 -0.1199  0.0863
   44MOL   H19624362   7.342   4.668   3.271  0.0943  0.6408 -1.1363
   44MOL   H19724363   7.443   4.854   3.138  2.3529  2.0521 -2.0258
   44MOL   O19824364   7.204   4.226   3.200 -0.3729  0.2026 -0.2491
   44MOL   C19924365   7.096   4.190   3.254  0.4980 -0.0310  0.6332
   44MOL   O20024366   7.085   4.112   3.364 -0.1915 -0.1209 -0.4964
   44MOL   C20124367   6.957   4.213   3.191 -0.0670  0.2685  0.1202
   44MOL   C20224368   6.953   4.306   3.085  0.6824  0.5078  0.1212
   44MOL   C20324369   6.831   4.342   3.029 -0.1234 -0.3189 -0.2334
   44MOL   C20424370   6.833   4.445   2.928  0.1624  0.1146  0.1731
   44MOL   C20524371   6.710   4.477   2.863 -0.1734  0.2410 -0.1734
   44MOL   C20624372   6.588   4.417   2.904  0.1356 -0.4947  0.0350
   44MOL   C20724373   6.464   4.457   2.833 -0.3297  0.3254  0.3823
   44MOL   O20824374   6.356   4.397   2.875 -0.5459  0.4746  0.1484
   44MOL   C20924375   6.239   4.402   2.800  0.0675 -0.0191 -0.3466
   44MOL   C21024376   6.172   4.538   2.817  0.6100 -0.1277 -0.1082
   44MOL   O21124377   6.460   4.534   2.735 -0.7806  0.2438 -0.2750
   44MOL   C21224378   6.591   4.325   3.008  0.2273 -0.1037 -0.0052
   44MOL   C21324379   6.712   4.289   3.072  0.1420  0.0183 -0.5569
   44MOL   C21424380   6.714   4.186   3.171 -0.1131 -0.4175  0.3392
   44MOL   C21524381   6.835   4.151   3.237 -0.5609 -0.3176  0.4921
   44MOL   H21624382   7.039   4.354   3.041 -1.3444  0.9640 -3.5793
   44MOL   H21724383   6.918   4.503   2.895  0.0027 -0.0696 -0.5879
   44MOL   H21824384   6.718   4.545   2.780 -1.1411  1.0898  0.4131
   44MOL   H21924385   6.179   4.327   2.851 -0.9107  1.6148  0.9514
   44MOL   H22024386   6.244   4.370   2.695 -1.8707 -0.1826 -0.4056
   44MOL   H22124387   6.068   4.513   2.797  1.2831 -1.6270 -1.9453
   44MOL   H22224388   6.186   4.560   2.923 -0.9631 -2.0900  0.5313
   44MOL   H22324389   6.498   4.278   3.038 -1.1476  1.6151 -1.4297
   44MOL   H22424390   6.624   4.133   3.200 -0.5730 -0.0715 -0.4590
   44MOL   H22524391   6.838   4.083   3.321  0.7448 -0.0764  0.6474
   44MOL   O22624392   6.152   4.591   2.532 -0.4344 -0.3386  0.3743
   44MOL   C22724393   6.197   4.674   2.610  0.2755  0.4192 -0.1666
   44MOL   O22824394   6.222   4.652   2.739  0.1805 -0.2042 -0.3635
   44MOL   C22924395   6.244   4.810   2.566  0.0979 -0.4822  0.0337
   44MOL   C23024396   6.295   4.909   2.654  0.1090 -0.2989  0.4024
   44MOL   C23124397   6.327   5.035   2.613 -0.4163 -0.2781 -0.2605
   44MOL   C23224398   6.366   5.130   2.708 -0.6565  0.5198 -0.3828
   44MOL   C23324399   6.395   5.260   2.668 -0.2281  0.3172  0.7542
   44MOL   C23424400   6.401   5.292   2.528  0.1888  0.4377  0.4698
   44MOL   C23524401   6.449   5.427   2.479 -0.1268  0.6068 -0.2645
   44MOL   O23624402   6.423   5.526   2.563 -0.3485 -0.4349 -0.1395
   44MOL   C23724403   6.407   5.661   2.519 -0.0798 -0.0485  0.0740
   44MOL   C23824404   6.536   5.744   2.505  0.8572  0.1281  0.3783
   44MOL   O23924405   6.478   5.443   2.364  0.1380  0.5648  0.0581
   44MOL   C24024406   6.359   5.197   2.437 -0.8206 -0.2679  0.1330
   44MOL   C24124407   6.320   5.068   2.476  0.1538  0.0798  0.4877
   44MOL   C24224408   6.275   4.973   2.385  0.1737 -0.5560  0.1972
   44MOL   C24324409   6.227   4.847   2.432 -0.4430  0.2828  1.2282
   44MOL   H24424410   6.296   4.897   2.761  1.1875  0.8665  0.5418
   44MOL   H24524411   6.377   5.097   2.810  0.6853 -2.1840 -1.3374
   44MOL   H24624412   6.421   5.333   2.743 -1.4743 -0.4176  1.9430
   44MOL   H24724413   6.319   5.709   2.562  0.7670  1.0849  0.5594
   44MOL   H24824414   6.379   5.659   2.414 -1.0760 -0.6897  0.3551
   44MOL   H24924415   6.622   5.683   2.475  0.6123  0.8498 -1.8689
   44MOL   H25024416   6.522   5.820   2.428  0.3064 -0.6075 -0.2597
   44MOL   H25124417   6.358   5.229   2.334  1.4946 -0.2117  0.1098
   44MOL   H25224418   6.263   4.996   2.281 -0.9164  1.8715  0.8335
   44MOL   H25324419   6.178   4.783   2.361 -0.7786  0.1508  1.5787
   44MOL   O25424420   6.655   5.624   2.712  0.0633 -0.1291 -0.0182
   44MOL   C25524421   6.604   5.739   2.725  0.7407  0.1099 -0.2138
   44MOL   O25624422   6.551   5.807   2.618  0.1597  0.6157  0.4536
   44MOL   C25724423   6.603   5.816   2.856 -0.0585 -0.6015 -0.8119
   44MOL   C25824424   6.685   5.773   2.960 -0.5816  0.0093  0.0474
   44MOL   C25924425   6.712   5.854   3.070  0.2010  0.4532  0.1810
   44MOL   C26024426   6.818   5.821   3.155  0.4166 -0.0284 -0.5887
   44MOL   C26124427   6.834   5.900   3.271  0.1338 -0.0427 -0.7170
   44MOL   C26224428   6.751   6.010   3.305 -0.4678  0.5373 -1.1335
   44MOL   C26324429   6.755   6.095   3.429 -0.7058 -0.3878 -0.1389
   44MOL   O26424430   6.873   6.081   3.500 -0.2662 -0.5597  0.3636
   44MOL   C26524431   6.891   6.135   3.631  0.4348  0.0506  0.2144
   44MOL   C26624432   6.843   6.038   3.743 -0.0952 -0.1904  0.0645
   44MOL   O26724433   6.661   6.164   3.465 -0.2635 -0.2126  0.3901
   44MOL   C26824434   6.662   6.049   3.206  0.1933 -0.3347  0.0280
   44MOL   C26924435   6.641   5.978   3.086  0.5015 -0.0604  0.5504
   44MOL   C27024436   6.539   6.007   2.995 -0.1358  0.3101  0.4354
   44MOL   C27124437   6.527   5.932   2.874 -0.4327  0.3894  0.5543
   44MOL   H27224438   6.744   5.683   2.949  2.6871  2.1082 -0.4588
   44MOL   H27324439   6.873   5.735   3.118  0.7200  0.6760 -1.7832
   44MOL   H27424440   6.914   5.873   3.339 -0.7470  0.7269  0.6461
   44MOL   H27524441   6.848   6.233   3.651  2.7769  1.0432  0.5366
   44MOL   H27624442   6.998   6.149   3.645  0.0876  1.4185  1.5797
   44MOL   H27724443   6.802   6.093   3.828  2.0807  1.1364  0.3114
   44MOL   H27824444   6.755   5.982   3.713 -0.4179 -0.9345  2.3625
   44MOL   H27924445   6.595   6.132   3.223  0.7997 -0.0223  0.9056
   44MOL   H28024446   6.474   6.092   3.007  1.3990  1.2507  2.5711
   44MOL   H28124447   6.461   5.974   2.799  0.4256  0.4654 -0.1670
   44MOL   O28224448   6.961   5.828   3.607 -0.3673 -0.0582  0.0617
   44MOL   C28324449   6.991   5.847   3.728 -0.4717 -0.2837  0.1939
   44MOL   O28424450   6.947   5.952   3.800  0.3575 -0.2703 -0.1582
   44MOL   C28524451   7.056   5.752   3.811 -0.1621  0.5380 -0.7535
   44MOL   C28624452   7.147   5.659   3.758  0.4742 -0.4808 -0.1007
   44MOL   C28724453   7.186   5.547   3.833 -0.1238 -0.2163  0.7253
   44MOL   C28824454   7.272   5.450   3.772  0.2452 -0.3469 -0.0977
   44MOL   C28924455   7.306   5.329   3.837  0.4086  0.3038  0.2965
   44MOL   C29024456   7.269   5.306   3.967 -0.2510  0.2432  0.1792
   44MOL   C29124457   7.304   5.168   4.018 -0.3701  0.1734  0.3333
   44MOL   O29224458   7.324   5.167   4.147  0.0603  0.7188 -0.7011
   44MOL   C29324459   7.365   5.045   4.215 -0.4523  0.0841 -0.1671
   44MOL   C29424460   7.515   5.046   4.256  0.2668  0.1861  0.0933
   44MOL   O29524461   7.308   5.071   3.941 -0.3153 -0.2929 -0.3097
   44MOL   C29624462   7.176   5.400   4.034 -0.1591  0.2587 -0.1406
   44MOL   C29724463   7.147   5.520   3.967 -0.0346  0.3855 -0.8872
   44MOL   C29824464   7.070   5.620   4.026  0.1541  0.5704  0.0054
   44MOL   C29924465   7.022   5.729   3.945 -0.2163 -0.1794 -0.6491
   44MOL   H30024466   7.173   5.669   3.653  3.4774  0.7655  0.7237
   44MOL   H30124467   7.298   5.472   3.670  1.9157  2.2280  0.8314
   44MOL   H30224468   7.362   5.251   3.787  0.1944  0.8792 -0.8667
   44MOL   H30324469   7.334   4.953   4.165 -1.1136  0.1941  0.0394
   44MOL   H30424470   7.316   5.042   4.312  0.9438  0.9152  0.5733
   44MOL   H30524471   7.551   5.147   4.274 -0.2559  0.3582  0.1747
   44MOL   H30624472   7.511   5.007   4.358  1.8645 -0.5789 -0.1228
   44MOL   H30724473   7.136   5.384   4.133  2.2554  1.1774  1.0090
   44MOL   H30824474   7.040   5.610   4.129  0.4438  1.0459  0.1385
   44MOL   H30924475   6.962   5.800   3.999  0.3581  0.3462 -0.6948
   44MOL   O31024476   7.635   5.131   4.025 -0.0799  0.5408  0.1467
   44MOL   C31124477   7.651   5.020   4.068 -0.8490  0.1596  0.2808
   44MOL   O31224478   7.602   4.968   4.178  0.2858 -0.3065 -0.0049
   44MOL   C31324479   7.735   4.927   3.995  0.2108  0.6607 -0.3373
   44MOL   C31424480   7.717   4.788   4.004  0.7008  0.0095 -0.1510
   44MOL   C31524481   7.787   4.699   3.921 -0.3540  0.1975  0.7354
   44MOL   C31624482   7.767   4.559   3.923 -0.0553  0.2172 -0.5364
   44MOL   C31724483   7.857   4.476   3.852  0.3033 -0.0671 -0.1915
   44MOL   C31824484   7.955   4.526   3.767 -0.0484 -0.4356  0.6345
   44MOL   C31924485   8.050   4.437   3.697 -0.7242  0.6546  0.4917
   44MOL   O32024486   8.001   4.307   3.690  0.0024 -0.5823  0.0233
   44MOL   C32124487   8.091   4.222   3.627 -0.0792 -0.0104 -0.2202
   44MOL   C32224488   8.033   4.076   3.661  0.1898  1.3756  0.6441
   44MOL   O32324489   8.164   4.471   3.654  0.5476 -0.0406  0.1410
   44MOL   C32424490   7.971   4.665   3.759  0.5321  0.2170  0.0552
   44MOL   C32524491   7.887   4.751   3.834 -0.0991  0.3894  0.0236
   44MOL   C32624492   7.911   4.885   3.829  0.0103  1.1555 -0.3295
   44MOL   C32724493   7.839   4.974   3.914  0.1310 -0.2770  0.4062
   44MOL   H32824494   7.638   4.746   4.064 -0.2875  0.8587 -0.8293
   44MOL   H32924495   7.697   4.512   3.992 -0.7116  0.7265 -0.8450
   44MOL   H33024496   7.849   4.370   3.873 -0.5113  0.2518  1.1768
   44MOL   H33124497   8.187   4.233   3.677 -0.3489 -0.0186  0.3016
   44MOL   H33224498   8.121   4.248   3.526  2.2735  0.5387  0.5890
   44MOL   H33324499   8.103   4.003   3.620 -3.5505 -0.4800 -2.8461
   44MOL   H33424500   8.038   4.057   3.768  3.2701  0.2132  0.3479
   44MOL   H33524501   8.046   4.708   3.695  0.9503 -1.5014 -0.6442
   44MOL   H33624502   7.998   4.914   3.772 -0.5939 -0.4515 -2.1377
   44MOL   H33724503   7.861   5.080   3.910 -0.0843 -0.2602 -0.4071
   44MOL   O33824504   7.792   3.974   3.755 -0.0812  0.5715  0.2779
   44MOL   C33924505   7.805   4.002   3.634  0.5297  0.3819  0.0395
   44MOL   O34024506   7.913   4.060   3.584 -0.1504  0.0506  0.4655
   44MOL   C34124507   7.714   3.959   3.525 -0.0519  0.2975  0.0057
   44MOL   C34224508   7.613   3.867   3.565  0.3637 -0.3335 -0.4416
   44MOL   C34324509   7.517   3.822   3.467  0.1419  0.2209 -0.4412
   44MOL   C34424510   7.422   3.722   3.499  0.1989 -0.1590  0.0650
   44MOL   C34524511   7.331   3.680   3.405  0.7604 -0.1149  0.1039
   44MOL   C34624512   7.331   3.732   3.274  0.4669 -0.1504  0.1388
   44MOL   C34724513   7.220   3.696   3.184  0.0949 -0.3449 -0.2269
   44MOL   O34824514   7.249   3.742   3.063  0.6173  0.5009  0.8004
   44MOL   C34924515   7.158   3.776   2.962  0.6017 -0.4389  0.2841
   44MOL   C35024516   7.245   3.794   2.841  0.1760 -0.8265  0.2938
   44MOL   O35124517   7.116   3.641   3.215  0.3815 -0.1559  0.0976
   44MOL   C35224518   7.428   3.830   3.243  0.5472  0.5537 -0.0992
   44MOL   C35324519   7.522   3.879   3.336 -0.0987  0.3940 -0.2427
   44MOL   C35424520   7.617   3.971   3.306 -0.6731 -0.7301 -0.1616
   44MOL   C35524521   7.724   4.006   3.394  0.0972 -0.3530  0.1202
   44MOL   H35624522   7.594   3.837   3.667 -2.8062 -0.0574 -0.8789
   44MOL   H35724523   7.415   3.681   3.598 -1.1455  0.4403  0.2253
   44MOL   H35824524   7.253   3.612   3.436 -0.6898  0.9609 -1.0477
   44MOL   H35924525   7.107   3.864   3.001 -0.5322 -0.6561 -0.6730
   44MOL   H36024526   7.091   3.691   2.949  1.9795 -1.2727 -1.5331
   44MOL   H36124527   7.277   3.696   2.806  0.4639 -1.2851  1.8078
   44MOL   H36224528   7.180   3.831   2.762 -1.2882 -4.1495 -0.1294
   44MOL   H36324529   7.443   3.872   3.144  0.6849  0.9177  0.0759
   44MOL   H36424530   7.615   4.009   3.205  5.0376  0.1970 -0.1305
   44MOL   H36524531   7.794   4.081   3.361  0.4662 -1.9176 -2.8229
   44MOL   O36624532   7.204   4.057   2.892 -0.2242  0.3309  0.1342
   44MOL   C36724533   7.321   4.015   2.900  0.9036  0.5310 -0.6158
   44MOL   O36824534   7.350   3.892   2.871 -0.0964  0.5318  0.6696
   44MOL   C36924535   7.441   4.087   2.948  0.1114 -0.1287  0.2823
   44MOL   C37024536   7.572   4.031   2.951  0.7250  0.3311  0.0956
   44MOL   C37124537   7.685   4.118   2.987 -0.6075  0.8596  0.0084
   44MOL   C37224538   7.817   4.071   2.980 -0.1788 -0.1212 -0.5001
   44MOL   C37324539   7.921   4.166   3.001 -0.3814  0.2301 -0.3206
   44MOL   C37424540   7.898   4.296   3.040  0.0935  0.3379 -0.1022
   44MOL   C37524541   8.010   4.394   3.044  0.0480  1.0197 -0.0762
   44MOL   O37624542   8.125   4.354   2.981  0.3279 -0.1631  0.2142
   44MOL   C37724543   8.234   4.444   2.960 -0.4932  0.4144  0.0951
   44MOL   C37824544   0.110   4.350   2.972  0.4210 -0.5037  0.6533
   44MOL   O37924545   8.002   4.503   3.098 -0.3572 -0.5446  0.0154
   44MOL   C38024546   7.768   4.340   3.052  0.6243 -0.2134 -0.2153
   44MOL   C38124547   7.663   4.253   3.017  0.4205  0.4883  0.2313
   44MOL   C38224548   7.530   4.303   3.016 -0.2104  0.2274  0.1447
   44MOL   C38324549   7.423   4.222   2.980 -0.2663  0.1849  0.7577
   44MOL   H38424550   7.587   3.925   2.938 -0.3634  0.0952  0.6877
   44MOL   H38524551   7.851   3.972   2.954 -1.2606 -0.7068  0.2913
   44MOL   H38624552   8.020   4.127   2.987 -0.2444  0.4655 -0.0199
   44MOL   H38724553   8.244   4.530   3.027 -1.7303  0.6976 -0.0785
   44MOL   H38824554   8.238   4.477   2.857  0.6212 -1.1637 -0.3847
   44MOL   H38924555   0.117   4.262   2.908  0.3655  1.3066 -1.9278
   44MOL   H39024556   0.198   4.413   2.959 -1.6279  2.6820  1.5372
   44MOL   H39124557   7.742   4.443   3.070 -0.5450 -0.9343  2.5018
   44MOL   H39224558   7.506   4.404   3.045 -0.4621  0.4438 -0.7930
   44MOL   H39324559   7.320   4.255   2.973  0.1699  1.2622 -0.7698
   44MOL   O39424560   0.031   4.104   3.061 -0.0412 -0.0208 -0.1337
   44MOL   C39524561   0.092   4.180   3.140 -0.5867  0.3144  0.1997
   44MOL   O39624562   0.136   4.306   3.108  0.2683 -0.2451 -0.7548
   44MOL   C39724563   0.111   4.139   3.284 -0.5139 -0.1040  0.3043
   44MOL   C39824564   0.143   4.242   3.376  0.0637  0.2606 -0.5951
   44MOL   C39924565   0.162   4.214   3.517 -0.3524  0.9895 -0.5883
   44MOL   C40024566   0.191   4.313   3.610  0.3286  0.0941  0.9000
   44MOL   C40124567   0.196   4.279   3.746  0.3428 -0.2898  0.6188
   44MOL   C40224568   0.171   4.145   3.788 -0.0286 -0.2754  0.5186
   44MOL   C40324569   0.154   4.110   3.933 -0.0145 -0.1560  0.5009
   44MOL   O40424570   0.145   4.227   3.999  0.1435  0.2978 -0.5399
   44MOL   C40524571   0.115   4.256   4.134  0.5085  0.8799  0.5705
   44MOL   C40624572   8.221   4.323   4.144 -0.0548 -0.4196 -0.6394
   44MOL   O40724573   0.137   3.991   3.976 -0.1354 -0.5931 -0.6305
   44MOL   C40824574   0.155   4.047   3.686  0.1621  0.1549 -0.1333
   44MOL   C40924575   0.150   4.075   3.552 -0.1677  0.4546  0.0003
   44MOL   C41024576   0.118   3.970   3.461  0.0053  0.0398  0.7532
   44MOL   C41124577   0.100   4.004   3.326 -0.1994 -0.5298 -0.5955
   44MOL   H41224578   0.155   4.345   3.344  1.7094 -0.4189 -2.2964
   44MOL   H41324579   0.219   4.406   3.562  1.4740 -1.3983 -1.4553
   44MOL   H41424580   0.213   4.357   3.819 -1.8937  0.7650  0.0650
   44MOL   H41524581   0.198   4.320   4.163  1.7321  0.0428 -0.9948
   44MOL   H41624582   0.110   4.166   4.196  1.3452  0.3773 -0.0799
   44MOL   H41724583   8.215   4.394   4.225  2.7892 -0.4969 -0.2859
   44MOL   H41824584   8.193   4.383   4.057 -0.2713  0.3350 -0.0438
   44MOL   H41924585   0.143   3.943   3.715 -1.0270  0.7595  1.6620
   44MOL   H42024586   0.102   3.869   3.496  0.0844 -0.0928  0.4103
   44MOL   H42124587   0.071   3.929   3.254  0.0795 -0.7885 -0.4388
   44MOL   O42224588   8.082   4.160   3.969 -0.1704  0.4228 -0.3076
   44MOL   C42324589   8.084   4.134   4.094 -0.6247  0.0971 -0.2102
   44MOL   O42424590   8.122   4.225   4.179  0.1547 -0.5467  0.5528
   44MOL   C42524591   8.052   4.001   4.150 -0.6005  0.3094  0.8722
   44MOL   C42624592   8.003   3.989   4.282 -0.3229  0.0392  0.3958
   44MOL   C42724593   7.961   3.862   4.328 -0.8572 -0.2092  0.5345
   44MOL   C42824594   7.902   3.856   4.451  0.0953 -0.7556  0.5627
   44MOL   C42924595   7.854   3.733   4.497  0.4210 -0.4774  0.0017
   44MOL   C43024596   7.877   3.611   4.425 -0.3266  1.0718  0.3142
   44MOL   C43124597   7.837   3.478   4.490  0.6858 -0.1546  0.2561
   44MOL   O43224598   7.865   3.368   4.413 -0.1061 -0.4762 -0.0938
   44MOL   C43324599   7.826   3.235   4.450  0.8811 -0.1909  0.4107
   44MOL   C43424600   7.895   3.162   4.564 -0.0379 -0.4314 -0.2425
   44MOL   O43524601   7.775   3.469   4.598 -0.1153  0.2504 -0.3871
   44MOL   C43624602   7.939   3.622   4.297 -0.1886  0.5891 -0.1212
   44MOL   C43724603   7.975   3.749   4.250 -0.1971 -0.0751 -0.0215
   44MOL   C43824604   8.037   3.760   4.123  0.1205  0.4203  0.2918
   44MOL   C43924605   8.083   3.887   4.082 -0.0136 -0.2124  0.3434
   44MOL   H44024606   8.001   4.085   4.332  1.0051  1.1694 -1.6035
   44MOL   H44124607   7.889   3.950   4.504 -1.0456  1.0961 -2.8401
   44MOL   H44224608   7.797   3.734   4.589  0.5664  1.0023  0.0866
   44MOL   H44324609   7.826   3.171   4.362 -1.9933  0.8877 -0.4213
   44MOL   H44424610   7.721   3.251   4.476  0.1834 -0.3140 -2.1664
   44MOL   H44524611   7.893   3.230   4.649  0.3730  0.9529 -1.3246
   44MOL   H44624612   7.840   3.071   4.587 -0.5705 -0.0524 -0.0075
   44MOL   H44724613   7.963   3.543   4.229  0.2457 -0.3079  1.0555
   44MOL   H44824614   8.067   3.676   4.062  0.4007  1.2990 -0.7978
   44MOL   H44924615   8.140   3.892   3.991 -0.3757 -3.2323 -0.1286
   44MOL   O45024616   8.124   3.166   4.722 -0.2226 -0.0855  0.2754
   44MOL   C45124617   8.131   3.131   4.609 -0.9187 -0.3188 -0.1893
   44MOL   O45224618   8.030   3.127   4.525 -0.0419  0.0579 -0.4194
   44MOL   C45324619   0.011   3.084   4.541  0.2335  0.0349 -0.5496
   44MOL   C45424620   0.023   3.056   4.400  0.2123 -0.8761  0.2437
   44MOL   C45524621   0.146   3.006   4.350 -0.2156 -0.0773 -0.0801
   44MOL   C45624622   0.163   2.994   4.212  0.2048 -0.8394  0.6540
   44MOL   C45724623   0.280   2.941   4.151 -0.8370  0.4261  0.3809
   44MOL   C45824624   0.396   2.917   4.230  0.0261 -0.2055  0.3010
   44MOL   C45924625   0.518   2.871   4.170 -0.4849  0.8035  0.4451
   44MOL   O46024626   0.521   2.887   4.040 -0.2962  0.6470 -0.4885
   44MOL   C46124627   0.641   2.843   3.979 -0.4632  0.4773 -0.2630
   44MOL   C46224628   0.595   2.736   3.882  0.0146  0.6596  0.3319
   44MOL   O46324629   0.609   2.831   4.242  0.7431 -0.3482 -0.1114
   44MOL   C46424630   0.385   2.948   4.367 -0.1641  0.2607 -0.6587
   44MOL   C46524631   0.262   2.983   4.431  0.2462 -0.3590  0.1630
   44MOL   C46624632   0.250   3.004   4.568 -0.3693  0.7108  0.2823
   44MOL   C46724633   0.126   3.058   4.622  0.4909 -0.4483 -0.5330
   44MOL   H46824634   8.190   3.086   4.337 -0.2348 -2.5417  0.0128
   44MOL   H46924635   0.081   3.009   4.144  0.9450  0.5191  0.0379
   44MOL   H47024636   0.272   2.931   4.044 -1.8558  0.9277  0.3968
   44MOL   H47124637   0.723   2.804   4.038 -1.3810 -0.0138  0.7020
   44MOL   H47224638   0.682   2.924   3.918  2.3480  0.3596  1.4032
   44MOL   H47324639   0.530   2.788   3.811 -1.3016  1.4794  2.0876
   44MOL   H47424640   0.673   2.699   3.816 -0.9531 -0.2449 -0.3189
   44MOL   H47524641   0.474   2.937   4.427 -2.2383 -1.3659  2.2541
   44MOL   H47624642   0.329   2.982   4.638  0.2296  0.4246 -0.4811
   44MOL   H47724643   0.110   3.072   4.728 -0.8534  2.0512 -1.0459
   44MOL   O47824644   0.326   2.674   3.864 -0.5080 -0.3754  0.4551
   44MOL   C47924645   0.401   2.605   3.939  0.2430 -0.3842  0.2706
   44MOL   O48024646   0.533   2.618   3.943 -0.0460 -0.3421 -0.5142
   44MOL   C48124647   0.346   2.503   4.038 -0.9183  0.0781  0.6939
   44MOL   C48224648   0.204   2.504   4.058 -0.6213 -0.0653  0.5136
   44MOL   C48324649   0.139   2.420   4.149 -0.2589  0.5278 -0.4961
   44MOL   C48424650   8.247   2.411   4.164 -0.3502 -0.1018 -0.3446
   44MOL   C48524651   8.196   2.333   4.272  0.0255  0.0851  0.5718
   44MOL   C48624652   0.032   2.263   4.358 -0.0032  0.1493 -0.4515
   44MOL   C48724653   8.226   2.195   4.478 -0.5254 -1.0970 -0.9676
   44MOL   O48824654   8.100   2.245   4.511  0.0045  0.1800  0.7073
   44MOL   C48924655   8.045   2.215   4.641  0.7548 -0.1302 -0.6578
   44MOL   C49024656   7.972   2.342   4.686 -0.2639  0.4036 -0.1267
   44MOL   O49124657   0.039   2.116   4.547 -0.1579  0.1349 -0.1866
   44MOL   C49224658   0.168   2.260   4.329  0.3509  0.2762  0.5477
   44MOL   C49324659   0.221   2.327   4.221  0.0881 -0.2811 -0.0773
   44MOL   C49424660   0.359   2.325   4.201  0.0437 -0.5241  0.4687
   44MOL   C49524661   0.425   2.419   4.116  0.2941 -0.0590  0.2049
   44MOL   H49624662   0.139   2.572   4.005  0.3494  0.5669  0.1069
   44MOL   H49724663   8.174   2.471   4.113  1.1109  1.3480 -0.7415
   44MOL   H49824664   8.091   2.342   4.295 -0.1859  0.8173 -0.6180
   44MOL   H49924665   8.106   2.167   4.718  0.9224  0.4207 -0.4438
   44MOL   H50024666   7.959   2.149   4.625  0.0078  1.0173 -1.4415
   44MOL   H50124667   8.006   2.427   4.628 -0.2137 -1.0607 -2.3105
   44MOL   H50224668   7.865   2.331   4.670  0.2755 -2.2099 -2.5566
   44MOL   H50324669   0.231   2.193   4.386  1.5375  0.8040 -0.1158
   44MOL   H50424670   0.423   2.260   4.259  0.9271 -0.8662 -0.8498
   44MOL   H50524671   0.533   2.417   4.118  0.2960 -0.0991  0.0749
   44MOL   O50624672   7.841   2.226   4.895 -0.3349  0.1558 -0.8150
   44MOL   C50724673   7.915   2.324   4.914  0.5842  0.5249  0.3490
   44MOL   O50824674   7.984   2.379   4.816 -0.0171  0.3830 -0.0856
   44MOL   C50924675   7.953   2.367   5.052 -1.0537 -0.2643 -0.3019
   44MOL   C51024676   8.062   2.448   5.075 -0.4660  0.1500 -0.0682
   44MOL   C51124677   8.092   2.505   5.203 -0.4397 -0.3929 -0.4129
   44MOL   C51224678   8.212   2.580   5.230 -0.3007  0.1413  0.7295
   44MOL   C51324679   8.234   2.643   5.355  0.4729 -0.4155  0.0290
   44MOL   C51424680   8.147   2.627   5.465  0.2562  0.8418  0.4717
   44MOL   C51524681   8.163   2.691   5.597 -0.1112 -0.1224 -0.1568
   44MOL   O51624682   0.029   2.772   5.597  0.3215 -0.0207 -0.6529
   44MOL   C51724683   0.064   2.858   5.705  0.0181 -0.1562 -0.3133
   44MOL   C51824684   0.168   2.791   5.793 -0.0103 -0.1832  0.5365
   44MOL   O51924685   8.080   2.687   5.689  0.2750 -0.2269 -0.4646
   44MOL   C52024686   8.035   2.547   5.431 -0.2304  0.0587  0.0915
   44MOL   C52124687   8.006   2.478   5.308  0.5318 -0.2616  0.6401
   44MOL   C52224688   7.895   2.392   5.290  0.1534 -0.5558 -0.9304
   44MOL   C52324689   7.868   2.340   5.164 -0.0033  0.5656 -1.4037
   44MOL   H52424690   8.128   2.471   4.993 -0.0496 -1.2422 -0.1467
   44MOL   H52524691   0.033   2.612   5.156 -0.8121  0.4412  0.3735
   44MOL   H52624692   0.075   2.703   5.358 -0.8176  1.5280  0.5717
   44MOL   H52724693   8.221   2.886   5.757  0.5395  1.3612 -0.1870
   44MOL   H52824694   0.093   2.958   5.674  0.4105  0.4693  2.0200
   44MOL   H52924695   0.196   2.860   5.872  0.0676 -0.4676  0.7563
   44MOL   H53024696   0.127   2.699   5.834 -0.6167  0.0604  0.4747
   44MOL   H53124697   7.962   2.529   5.509  0.7695  1.0894  1.2864
   44MOL   H53224698   7.839   2.357   5.376  1.6965 -2.4382 -0.6566
   44MOL   H53324699   7.786   2.272   5.144  1.0187 -0.2680 -2.8702
   44MOL   O53424700   0.410   2.760   5.909  0.4489  0.1129 -0.3443
   44MOL   C53524701   0.399   2.748   5.788  0.7818 -0.0877  0.1905
   44MOL   O53624702   0.286   2.760   5.724  0.1579  0.3521  0.2869
   44MOL   C53724703   0.517   2.706   5.704 -0.0666 -0.3973 -0.4382
   44MOL   C53824704   0.627   2.631   5.753  0.5280  0.0726 -0.2083
   44MOL   C53924705   0.733   2.602   5.669 -0.2916 -0.3365  0.2797
   44MOL   C54024706   0.847   2.531   5.714 -0.2059 -0.4730  0.1826
   44MOL   C54124707   0.957   2.498   5.627 -0.3068 -0.5050 -0.4503
   44MOL   C54224708   0.950   2.544   5.495  0.2396 -0.1664  0.5188
   44MOL   C54324709   1.056   2.497   5.400 -0.0793 -0.0134  1.1080
   44MOL   O54424710   1.062   2.571   5.288  0.2915  0.0435  0.4340
   44MOL   C54524711   1.139   2.524   5.169  0.3511  0.1476 -0.1231
   44MOL   C54624712   1.055   2.573   5.051  0.3963 -0.1349  0.5368
   44MOL   O54724713   1.132   2.404   5.432  0.3307 -0.1964 -0.3749
   44MOL   C54824714   0.839   2.610   5.442 -0.3105 -0.0933  0.3823
   44MOL   C54924715   0.732   2.647   5.530  0.2506  0.8084  0.3101
   44MOL   C55024716   0.623   2.720   5.485  0.0715  0.3018 -0.4958
   44MOL   C55124717   0.514   2.753   5.570  0.2804  0.7969 -0.3976
   44MOL   H55224718   0.622   2.590   5.853 -1.1757  1.2185  0.1812
   44MOL   H55324719   0.852   2.503   5.818 -2.4085 -0.8046  0.2082
   44MOL   H55424720   1.048   2.462   5.672  0.5814  0.3230 -1.5609
   44MOL   H55524721   1.138   2.415   5.167 -1.9892  0.1692 -2.3421
   44MOL   H55624722   1.236   2.573   5.172  0.1002  0.5669  2.0455
   44MOL   H55724723   1.023   2.677   5.057 -1.6773 -0.8018  1.3124
   44MOL   H55824724   0.957   2.526   5.043 -0.1177  1.1877 -1.0072
   44MOL   H55924725   0.841   2.632   5.336 -0.1386  0.4972  0.5029
   44MOL   H56024726   0.612   2.756   5.384  0.4735  0.5225 -0.4613
   44MOL   H56124727   0.427   2.801   5.530 -0.7599 -1.2403 -0.6624
   44MOL   H56224728   1.099   2.555   4.953 -2.9748 -0.7642 -0.9052
   45MOL     O124729   3.186   2.009   7.508 -0.0304 -0.6802 -0.0631
   45MOL     C224730   3.197   1.921   7.423 -0.1580  0.7013 -0.4260
   45MOL     O324731   3.257   1.939   7.307  0.3056 -0.1962  0.1900
   45MOL     C424732   3.184   1.778   7.459  0.3569 -0.3761 -0.0256
   45MOL     C524733   3.209   1.738   7.592  0.2048 -0.0120 -0.1465
   45MOL     C624734   3.200   1.603   7.632  0.0871 -0.2794 -0.3578
   45MOL     C724735   3.229   1.562   7.765  0.7030 -0.4128  0.2195
   45MOL     C824736   3.206   1.429   7.798 -0.7684 -0.1855 -0.0508
   45MOL     C924737   3.169   1.333   7.701  0.4623 -0.0589  0.0618
   45MOL    C1024738   3.160   1.187   7.720 -0.0610 -0.3062 -0.9135
   45MOL    O1124739   3.177   1.150   7.843  0.3334 -0.1063  0.0885
   45MOL    C1224740   3.182   1.013   7.883  0.5903 -0.4324 -0.4955
   45MOL    C1324741   3.325   0.957   7.875  0.2415  0.4411  0.4247
   45MOL    O1424742   3.138   1.104   7.631  0.1258  0.3216  0.4080
   45MOL    C1524743   3.144   1.376   7.573  1.0552 -0.4484  0.1940
   45MOL    C1624744   3.164   1.513   7.533  0.2238  0.7906 -0.2521
   45MOL    C1724745   3.154   1.544   7.397 -0.3473  0.2717  0.3140
   45MOL    C1824746   3.157   1.679   7.364  0.1903  0.1325 -0.9047
   45MOL    H1924747   3.228   1.811   7.670  0.5061  0.5443 -0.7414
   45MOL    H2024748   3.277   1.636   7.827  1.1413  0.9910 -1.7561
   45MOL    H2124749   3.217   1.394   7.900 -1.0014 -0.9470 -0.2773
   45MOL    H2224750   3.158   1.024   7.989 -1.0286  1.3001 -1.0145
   45MOL    H2324751   3.111   0.947   7.834  0.2675  0.1248 -0.7873
   45MOL    H2424752   3.352   0.925   7.774 -0.1102  0.0998  0.4324
   45MOL    H2524753   3.390   1.039   7.905 -2.0506  2.4756 -0.0092
   45MOL    H2624754   3.098   1.312   7.499  0.6104  0.1131 -0.0217
   45MOL    H2724755   3.134   1.467   7.323 -1.5305 -1.5963  2.5225
   45MOL    H2824756   3.128   1.713   7.266 -0.8778 -0.3142 -0.7410
   45MOL    H2924757   3.306   2.020   7.305  0.2736 -0.2023 -1.3060
   45MOL    O3024758   3.249   0.697   7.808  0.1769  0.2206 -0.0365
   45MOL    C3124759   3.320   0.720   7.910 -0.2829  0.7040 -0.7078
   45MOL    O3224760   3.349   0.846   7.957  0.0893 -0.4639  0.1244
   45MOL    C3324761   3.379   0.608   7.985  0.0584  0.4802 -0.0424
   45MOL    C3424762   3.436   0.635   8.110 -0.4624 -0.1586  0.6500
   45MOL    C3524763   3.488   0.527   8.187  0.0849 -0.0765 -0.7006
   45MOL    C3624764   3.542   0.551   0.064  0.3161  0.2875  0.6885
   45MOL    C3724765   3.590   0.446   0.143  0.1196  0.1080 -0.2102
   45MOL    C3824766   3.602   0.317   0.087 -0.4192  0.5506 -0.3401
   45MOL    C3924767   3.655   0.207   0.168  0.7956 -0.8048 -0.1891
   45MOL    O4024768   3.651   0.234   0.298  0.0627  0.8485 -0.3398
   45MOL    C4124769   3.622   0.126   0.387  0.1950 -0.8707  0.1422
   45MOL    C4224770   3.481   0.154   0.447  0.1172 -0.1367  0.3021
   45MOL    O4324771   3.678   0.095   0.124 -0.3782 -0.1311  0.1266
   45MOL    C4424772   3.551   0.299   8.202 -0.4588 -0.0287  0.5691
   45MOL    C4524773   3.497   0.403   8.128  0.1879  0.0049 -0.5743
   45MOL    C4624774   3.443   0.380   8.004  0.6897  0.1553 -0.0736
   45MOL    C4724775   3.380   0.481   7.932  0.4232  0.0902  0.3593
   45MOL    H4824776   3.432   0.731   8.161  1.7577  0.5683 -0.4881
   45MOL    H4924777   3.535   0.651   0.103 -1.1530  0.2136  0.6202
   45MOL    H5024778   3.630   0.469   0.241 -0.0040  0.0005 -0.1363
   45MOL    H5124779   3.701   0.130   0.461  1.0066  0.9275 -0.7870
   45MOL    H5224780   3.617   0.034   0.329  0.2452  0.3330 -1.8375
   45MOL    H5324781   3.458   0.077   0.520  3.2720  0.8289  2.4300
   45MOL    H5424782   3.475   0.249   0.499  1.2542  0.1148 -0.0104
   45MOL    H5524783   3.559   0.199   8.162 -1.3081 -0.2106  0.8557
   45MOL    H5624784   3.439   0.285   7.953 -2.0770  0.5144 -0.6059
   45MOL    H5724785   3.330   0.445   7.843  0.9710  0.7719 -0.2261
   45MOL    O5824786   3.353   8.175   0.311 -0.6005 -0.2453 -0.4514
   45MOL    C5924787   3.334   0.046   0.281 -0.3460  0.4842  0.4579
   45MOL    O6024788   3.379   0.155   0.347 -0.1136 -0.3229  0.0124
   45MOL    C6124789   3.255   0.073   0.156  0.3450 -0.3101  0.0581
   45MOL    C6224790   3.224   0.206   0.114  0.2828 -0.2518 -0.2663
   45MOL    C6324791   3.158   0.230   8.239 -0.2116  0.0690  0.7781
   45MOL    C6424792   3.149   0.365   8.199 -0.1214  0.2838 -0.3341
   45MOL    C6524793   3.079   0.381   8.077  0.4519  0.8932  0.6485
   45MOL    C6624794   3.017   0.278   8.003 -0.0814 -0.4481 -1.2253
   45MOL    C6724795   2.943   0.314   7.881  0.4283 -0.1026 -0.5429
   45MOL    O6824796   2.899   0.438   7.867  0.3085 -0.6103  0.5301
   45MOL    C6924797   2.829   0.476   7.754  0.0252 -0.7313 -0.3794
   45MOL    C7024798   2.937   0.532   7.658 -0.2437  0.7190 -0.4796
   45MOL    O7124799   2.931   0.227   7.794 -0.3700 -0.2749  0.3868
   45MOL    C7224800   3.040   0.146   8.047 -0.1644  0.8886  0.2446
   45MOL    C7324801   3.109   0.124   8.166  0.9669  0.2024 -0.5489
   45MOL    C7424802   3.130   8.241   8.210  0.1314  0.2684 -0.3624
   45MOL    C7524803   3.209   8.217   0.075 -0.4842  0.4592  0.6234
   45MOL    H7624804   3.259   0.290   0.172  0.7481 -1.1517  0.7581
   45MOL    H7724805   3.197   0.443   0.007 -2.6289  1.1227  0.7447
   45MOL    H7824806   3.083   0.483   8.042 -0.0018  0.0207 -2.0603
   45MOL    H7924807   2.752   0.549   7.778 -0.6158 -1.0317 -1.4478
   45MOL    H8024808   2.777   0.396   7.701 -0.2405 -0.6281 -0.2723
   45MOL    H8124809   3.036   0.529   7.703 -0.8138  0.9527  0.8108
   45MOL    H8224810   2.933   0.485   7.560 -0.5208 -0.6218  0.1528
   45MOL    H8324811   3.005   0.060   7.993  0.9702 -0.6376  1.8893
   45MOL    H8424812   3.093   8.160   8.149  1.2066 -1.3674  1.0778
   45MOL    H8524813   3.240   8.116   0.098 -0.0777  0.8679  1.9627
   45MOL    O8624814   2.774   0.638   7.466  0.3741  0.3285 -0.1504
   45MOL    C8724815   2.828   0.713   7.548  0.0475 -0.3759 -0.4291
   45MOL    O8824816   2.910   0.671   7.643  0.3367  0.2151 -0.6701
   45MOL    C8924817   2.804   0.860   7.547 -0.4081 -0.1912  0.5561
   45MOL    C9024818   2.827   0.928   7.667  0.0121  0.5532  0.2654
   45MOL    C9124819   2.808   1.070   7.678 -0.1114 -0.2218 -0.0492
   45MOL    C9224820   2.832   1.133   7.804  0.0341 -0.0726  0.3320
   45MOL    C9324821   2.836   1.270   7.824 -0.0036  0.3218  0.3507
   45MOL    C9424822   2.804   1.349   7.711  0.1843 -0.6583  0.0265
   45MOL    C9524823   2.803   1.496   7.725 -0.1888 -0.5037  0.0746
   45MOL    O9624824   2.855   1.541   7.835 -0.6247 -0.0942  0.1036
   45MOL    C9724825   2.838   1.672   7.887  0.3790 -0.1047  0.1271
   45MOL    C9824826   2.712   1.681   7.974  0.0190  0.4276  0.7353
   45MOL    O9924827   2.746   1.565   7.639  0.1145 -0.4915  0.4352
   45MOL   C10024828   2.778   1.287   7.586  0.1679 -0.1218  0.6030
   45MOL   C10124829   2.782   1.149   7.570 -0.5671 -0.3059  0.1518
   45MOL   C10224830   2.756   1.084   7.448  0.4761  0.9730 -0.0438
   45MOL   C10324831   2.756   0.939   7.437 -0.1389 -0.4030  0.0337
   45MOL   H10424832   2.862   0.874   7.755  2.4798 -0.2406 -1.1350
   45MOL   H10524833   2.844   1.080   7.897 -0.1972 -2.1191 -0.7746
   45MOL   H10624834   2.862   1.307   7.922  0.2303  0.6543  0.1626
   45MOL   H10724835   2.848   1.743   7.805 -1.3754 -1.0844 -0.9705
   45MOL   H10824836   2.926   1.685   7.950 -2.1730  1.7763  3.4922
   45MOL   H10924837   2.614   1.665   7.930  0.1477 -0.3472  0.7142
   45MOL   H11024838   2.704   1.593   8.039  1.4408 -0.2638 -0.0062
   45MOL   H11124839   2.772   1.338   7.491 -0.2959 -0.5817  0.3804
   45MOL   H11224840   2.730   1.134   7.356  0.0293 -0.2995 -0.6151
   45MOL   H11324841   2.737   0.885   7.346  0.7765  1.2337 -1.1605
   45MOL   O11424842   2.888   1.721   8.193  0.0043  0.0488 -0.4950
   45MOL   C11524843   2.795   1.800   8.170  0.0584  0.7736  0.2734
   45MOL   O11624844   2.707   1.792   8.068 -0.3210 -0.1549 -0.1188
   45MOL   C11724845   2.758   1.916   0.005 -0.1999 -0.6031 -0.2307
   45MOL   C11824846   2.864   1.989   0.064 -0.1902  0.0950  0.2030
   45MOL   C11924847   2.830   2.111   0.133  0.0920 -0.3913  0.6365
   45MOL   C12024848   2.932   2.193   0.185  0.2897 -0.5638  0.2072
   45MOL   C12124849   2.900   2.326   0.222  0.0915  0.2235  0.4478
   45MOL   C12224850   2.765   2.368   0.238  0.5464 -0.4258  0.0674
   45MOL   C12324851   2.742   2.513   0.291 -0.1072 -0.6083  0.1959
   45MOL   O12424852   2.614   2.548   0.293 -0.2121 -0.4903 -0.1103
   45MOL   C12524853   2.569   2.681   0.337  0.1171  0.8772  0.0131
   45MOL   C12624854   2.601   2.774   0.214  0.2671  0.0430 -0.5143
   45MOL   O12724855   2.836   2.589   0.321 -0.1887 -0.0175 -0.8406
   45MOL   C12824856   2.664   2.281   0.195 -0.0307  0.3295  0.7833
   45MOL   C12924857   2.697   2.152   0.143  0.0258  0.4233  0.0078
   45MOL   C13024858   2.595   2.078   0.089  0.1613  0.7389  0.1304
   45MOL   C13124859   2.626   1.961   0.012 -0.3621 -0.2669 -0.1163
   45MOL   H13224860   2.966   1.955   0.055 -0.9578 -1.5841 -3.0040
   45MOL   H13324861   3.037   2.169   0.180  0.5783  0.4766  1.0378
   45MOL   H13424862   2.978   2.396   0.248 -0.4990  0.4813  1.5625
   45MOL   H13524863   2.634   2.704   0.421  1.4139  0.2057 -0.7851
   45MOL   H13624864   2.468   2.694   0.376 -0.4485 -0.0139 -1.1242
   45MOL   H13724865   2.618   2.717   0.122  0.7710  0.7226 -0.8478
   45MOL   H13824866   2.520   2.841   0.184 -0.6441 -1.0290 -0.5125
   45MOL   H13924867   2.562   2.310   0.213 -0.5920 -1.6883  0.9554
   45MOL   H14024868   2.491   2.106   0.097  0.1132  0.2770  1.2332
   45MOL   H14124869   2.544   1.899   8.229  0.5445 -1.1463 -0.7732
   45MOL   O14224870   2.608   3.026   0.305 -0.0045 -0.3367  0.3842
   45MOL   C14324871   2.721   2.966   0.290 -0.9306 -0.8637  0.3245
   45MOL   O14424872   2.724   2.838   0.249  0.0553 -0.2503  0.4370
   45MOL   C14524873   2.855   3.019   0.325  0.1489 -0.2258 -0.6009
   45MOL   C14624874   2.881   3.155   0.307 -0.3760  0.1363  0.2679
   45MOL   C14724875   3.004   3.219   0.348 -0.0176  0.4309  0.2349
   45MOL   C14824876   3.026   3.354   0.317  0.6225  0.1023  0.9907
   45MOL   C14924877   3.155   3.404   0.340 -0.0837  0.4488  0.7247
   45MOL   C15024878   3.262   3.326   0.389 -0.2838  0.2722  0.3545
   45MOL   C15124879   3.400   3.370   0.396  0.3150 -0.9646 -0.1315
   45MOL   O15224880   3.492   3.279   0.436  0.0721  0.1714  0.1788
   45MOL   C15324881   3.626   3.320   0.467  0.1581 -0.2036 -0.4962
   45MOL   C15424882   3.631   3.402   0.592  1.2158 -0.8537  0.3314
   45MOL   O15524883   3.430   3.488   0.376 -0.0886  0.0905 -0.3892
   45MOL   C15624884   3.233   3.185   0.409 -0.8408 -0.1020 -0.4349
   45MOL   C15724885   3.105   3.137   0.394 -0.6874  0.7230 -0.6406
   45MOL   C15824886   3.082   2.995   0.410  0.1131  0.3524  0.5737
   45MOL   C15924887   2.960   2.928   0.367  0.3711 -0.1129 -0.5431
   45MOL   H16024888   2.803   3.213   0.259  1.4459  0.3652 -2.4960
   45MOL   H16124889   2.950   3.418   0.275  0.3649 -0.9688 -0.2066
   45MOL   H16224890   3.169   3.503   0.300 -2.1676  0.7392  0.6359
   45MOL   H16324891   3.675   3.376   0.388  1.8186 -1.3410 -0.2977
   45MOL   H16424892   3.674   3.223   0.472  0.5866 -0.0803 -2.1979
   45MOL   H16524893   3.730   3.416   0.636  1.0615  0.4730  0.2593
   45MOL   H16624894   3.594   3.500   0.563 -1.0703 -2.2726 -1.7037
   45MOL   H16724895   3.315   3.116   0.424 -0.4269  0.5941  0.5732
   45MOL   H16824896   3.158   2.928   0.448  2.2260  0.8906 -2.5228
   45MOL   H16924897   2.946   2.821   0.366 -2.7729  0.2389  0.5197
   45MOL   O17024898   3.681   3.196   0.765 -0.2390 -0.1223  0.1998
   45MOL   C17124899   3.575   3.250   0.776  0.3557 -0.5638  0.0041
   45MOL   O17224900   3.540   3.355   0.691 -0.3390 -0.0022 -0.2177
   45MOL   C17324901   3.480   3.222   0.885 -0.7362  0.6409  0.0879
   45MOL   C17424902   3.509   3.136   0.998 -0.5043 -0.3725  0.3181
   45MOL   C17524903   3.412   3.107   1.092  0.4015 -0.2490  0.4810
   45MOL   C17624904   3.435   3.034   1.204 -0.5580  0.4628 -0.0884
   45MOL   C17724905   3.336   2.998   1.298 -0.4534  0.1790  0.3120
   45MOL   C17824906   3.204   3.043   1.278 -0.0332  0.3956  0.0837
   45MOL   C17924907   3.085   3.003   1.366 -0.4125  0.5674  0.0075
   45MOL   O18024908   3.119   2.917   1.461 -0.2024 -0.0855 -0.2290
   45MOL   C18124909   3.023   2.873   1.556 -0.2209  0.1658  0.4988
   45MOL   C18224910   3.030   2.933   1.703 -0.4310 -0.0461 -0.4988
   45MOL   O18324911   2.968   3.052   1.357 -0.1591 -0.0378 -0.6326
   45MOL   C18424912   3.183   3.129   1.166 -0.2140 -0.1530  0.4672
   45MOL   C18524913   3.281   3.161   1.076 -0.3691 -0.4282  0.7001
   45MOL   C18624914   3.256   3.248   0.971 -0.6328  0.8010  0.1390
   45MOL   C18724915   3.348   3.277   0.876 -0.5479  0.1182 -0.4934
   45MOL   H18824916   3.610   3.099   1.002 -0.4239 -0.5124 -2.1625
   45MOL   H18924917   3.532   2.990   1.222 -1.1771 -0.3100  1.4542
   45MOL   H19024918   3.362   2.940   1.386  1.4664  1.4096  0.5929
   45MOL   H19124919   3.044   2.766   1.569  0.5727  0.5879  2.8728
   45MOL   H19224920   2.927   2.881   1.505  0.4218  0.6297 -0.6426
   45MOL   H19324921   2.992   2.869   1.783  1.7171  0.7489  1.2240
   45MOL   H19424922   3.132   2.961   1.730 -0.5400  1.1908 -1.3283
   45MOL   H19524923   3.083   3.170   1.157 -0.2751  0.2962  2.6824
   45MOL   H19624924   3.157   3.289   0.959 -1.5107 -1.1843  0.3808
   45MOL   H19724925   3.318   3.344   0.796 -0.9803 -1.2577 -1.5073
   45MOL   O19824926   3.116   3.187   1.639 -0.3260  0.2965 -0.6168
   45MOL   C19924927   2.996   3.164   1.670  0.2303  0.7683  0.0708
   45MOL   O20024928   2.951   3.047   1.710  0.2491  0.6103  0.7087
   45MOL   C20124929   2.888   3.274   1.677 -0.1073  0.1518 -0.1685
   45MOL   C20224930   2.927   3.408   1.657 -0.1767 -1.3379  0.7759
   45MOL   C20324931   2.826   3.510   1.645  0.4791 -0.0085  0.0518
   45MOL   C20424932   2.856   3.644   1.622 -0.1974 -0.0238  0.1274
   45MOL   C20524933   2.759   3.744   1.625 -0.1931 -0.7459  1.1120
   45MOL   C20624934   2.626   3.720   1.665 -0.7301 -0.8830  0.7950
   45MOL   C20724935   2.528   3.828   1.672  0.6724 -0.2001 -0.2292
   45MOL   O20824936   2.415   3.794   1.738 -0.0510 -0.2108 -0.2454
   45MOL   C20924937   2.307   3.869   1.753  0.0902  0.0529  0.6981
   45MOL   C21024938   2.218   3.789   1.854  0.4522 -0.0626  0.0517
   45MOL   O21124939   2.543   3.931   1.615  0.1569 -0.1286 -0.2342
   45MOL   C21224940   2.593   3.584   1.690 -0.8908  0.5486  0.1776
   45MOL   C21324941   2.690   3.479   1.678  0.7673  0.3144 -0.5216
   45MOL   C21424942   2.650   3.344   1.696  0.3561 -0.5618  0.0969
   45MOL   C21524943   2.751   3.242   1.704 -0.0931  0.2786 -0.0346
   45MOL   H21624944   3.032   3.429   1.645  0.7906 -4.7781  2.5046
   45MOL   H21724945   2.957   3.673   1.593 -0.2951 -0.7194 -0.9511
   45MOL   H21824946   2.792   3.842   1.594  2.1686 -1.9869 -0.4312
   45MOL   H21924947   2.263   3.875   1.654 -0.0264  1.3279  0.8114
   45MOL   H22024948   2.332   3.968   1.792 -0.0984 -0.3234  1.8001
   45MOL   H22124949   2.280   3.778   1.943 -1.1365  0.3441  1.2499
   45MOL   H22224950   2.130   3.844   1.888 -0.9793 -0.0406 -3.5332
   45MOL   H22324951   2.493   3.554   1.716 -0.1387 -0.3780  2.1227
   45MOL   H22424952   2.550   3.312   1.718  0.7765 -2.9418 -1.2951
   45MOL   H22524953   2.722   3.142   1.734  0.9161  0.7567  2.6457
   45MOL   O22624954   2.338   3.551   1.926 -0.4029 -0.2405  0.5343
   45MOL   C22724955   2.248   3.560   1.840 -0.5803  0.3999  0.7762
   45MOL   O22824956   2.180   3.662   1.802  0.0419  0.6073  0.1091
   45MOL   C22924957   2.227   3.442   1.753  0.4501  0.2005  0.5587
   45MOL   C23024958   2.299   3.326   1.786 -0.3038  0.7018 -0.5429
   45MOL   C23124959   2.282   3.209   1.709  0.0038 -0.2390  0.1919
   45MOL   C23224960   2.361   3.094   1.722  0.1902 -1.2664 -0.3663
   45MOL   C23324961   2.345   2.983   1.638  0.7346  0.0230  0.2149
   45MOL   C23424962   2.240   2.976   1.547 -0.7787  0.2734 -0.5845
   45MOL   C23524963   2.209   2.861   1.460 -0.3224  0.4685  0.3098
   45MOL   O23624964   2.256   2.748   1.512  0.0490  0.4243  0.1391
   45MOL   C23724965   2.229   2.629   1.441  0.6075 -0.0786  0.0636
   45MOL   C23824966   2.108   2.549   1.496 -0.8523 -0.2475  0.1421
   45MOL   O23924967   2.155   2.869   1.349  0.0475  0.3857 -0.0734
   45MOL   C24024968   2.167   3.097   1.527 -0.1882  0.7798 -0.2422
   45MOL   C24124969   2.191   3.213   1.600  0.6179 -0.2032  0.5584
   45MOL   C24224970   2.112   3.325   1.573  0.3672  0.2977 -0.2774
   45MOL   C24324971   2.131   3.442   1.649  0.0306 -0.2053 -0.7162
   45MOL   H24424972   2.371   3.326   1.866 -0.8515 -2.0424  0.0130
   45MOL   H24524973   2.428   3.089   1.807  0.0988 -2.3241 -0.3413
   45MOL   H24624974   2.398   2.890   1.653 -0.3551 -0.7091 -0.3681
   45MOL   H24724975   2.314   2.564   1.463 -1.4084 -2.5356  0.9442
   45MOL   H24824976   2.231   2.644   1.334 -0.7389 -2.5585 -0.3439
   45MOL   H24924977   2.040   2.606   1.559  0.7381  0.9470  0.8317
   45MOL   H25024978   2.035   2.503   1.429 -0.1751  0.3991 -1.0548
   45MOL   H25124979   2.100   3.104   1.443  1.0028 -0.5375 -1.3174
   45MOL   H25224980   2.046   3.324   1.487 -1.4173 -1.3850  1.0786
   45MOL   H25324981   2.073   3.531   1.630 -0.3809 -0.5843 -1.2591
   45MOL   O25424982   2.249   2.347   1.371 -0.5301  0.3892  0.3272
   45MOL   C25524983   2.233   2.340   1.496  0.3964 -0.8069  0.0286
   45MOL   O25624984   2.170   2.436   1.566  0.0307  0.6256  0.4701
   45MOL   C25724985   2.265   2.225   1.580 -0.0979 -0.3916  0.4023
   45MOL   C25824986   2.326   2.111   1.519 -0.1801  0.1380 -0.0980
   45MOL   C25924987   2.365   1.998   1.587 -0.2332 -0.1561  0.0630
   45MOL   C26024988   2.433   1.894   1.524 -0.6972 -0.6082 -0.7873
   45MOL   C26124989   2.471   1.781   1.597 -0.0999  0.1356 -0.3288
   45MOL   C26224990   2.434   1.772   1.733  0.7947  0.5794 -0.3930
   45MOL   C26324991   2.451   1.652   1.809  0.1525 -0.1249 -0.5147
   45MOL   O26424992   2.549   1.575   1.753 -0.2188  0.1626  0.0052
   45MOL   C26524993   2.577   1.441   1.798  1.5771  1.3410  0.4492
   45MOL   C26624994   2.457   1.339   1.789 -0.3526 -0.0038 -0.5973
   45MOL   O26724995   2.405   1.629   1.924  0.2827  0.0170  0.2987
   45MOL   C26824996   2.363   1.883   1.797  0.3435  0.6196 -0.5129
   45MOL   C26924997   2.331   1.997   1.719 -0.1197  0.0019 -0.3055
   45MOL   C27024998   2.267   2.104   1.788  0.1950 -0.6787  0.1366
   45MOL   C27124999   2.236   2.221   1.718  0.4334 -0.8207  0.6749
   45MOL   H27225000   2.348   2.121   1.413 -0.0126 -1.5176 -0.2350
   45MOL   H27325001   2.475   1.913   1.426  1.3202 -0.5762  0.0487
   45MOL   H27425002   2.537   1.707   1.555  0.1650  0.2649 -0.1443
   45MOL   H27525003   2.616   1.446   1.900  0.4631 -1.7055  1.0855
   45MOL   H27625004   2.659   1.408   1.734  0.9708  2.3621 -0.8826
   45MOL   H27725005   2.452   1.262   1.866 -0.0643  1.5080  0.9599
   45MOL   H27825006   2.362   1.392   1.794 -1.3570 -1.5609 -2.4039
   45MOL   H27925007   2.325   1.877   1.898 -1.0373  0.4438 -1.0345
   45MOL   H28025008   2.243   2.091   1.893 -0.1277 -1.2579 -0.0107
   45MOL   H28125009   2.184   2.306   1.760  1.2351 -1.0951  2.2622
   45MOL   O28225010   2.385   1.072   1.733 -0.1188 -0.0689  0.3463
   45MOL   C28325011   2.429   1.145   1.647  0.4737 -0.2370 -0.0812
   45MOL   O28425012   2.458   1.275   1.661 -0.1702 -1.0276 -0.5218
   45MOL   C28525013   2.466   1.097   1.510  0.4148 -0.4808 -1.0850
   45MOL   C28625014   2.448   0.962   1.481  0.3810 -0.0276  0.1690
   45MOL   C28725015   2.460   0.913   1.351  0.0351  0.4915  0.0232
   45MOL   C28825016   2.450   0.778   1.321 -0.1961  0.9161  0.2345
   45MOL   C28925017   2.467   0.721   1.198 -0.2257  0.3143 -0.3023
   45MOL   C29025018   2.508   0.806   1.093  0.2759 -0.1734  0.4251
   45MOL   C29125019   2.536   0.735   0.962 -0.1881 -0.1911  0.3955
   45MOL   O29225020   2.590   0.609   0.972 -0.0192 -0.3113  0.0139
   45MOL   C29325021   2.630   0.534   0.858 -0.1186  0.3712  0.5440
   45MOL   C29425022   2.543   0.403   0.836  1.1241  0.0218 -0.4949
   45MOL   O29525023   2.526   0.798   0.857  0.3675 -0.7812  0.0660
   45MOL   C29625024   2.518   0.946   1.110  0.3425 -0.7197  0.1678
   45MOL   C29725025   2.499   0.998   1.242  0.7085  0.8503  0.5202
   45MOL   C29825026   2.528   1.132   1.275 -0.5420 -0.3182  0.5113
   45MOL   C29925027   2.516   1.182   1.406  0.0728 -0.7100  0.1676
   45MOL   H30025028   2.406   0.898   1.557  1.8474 -0.7224  0.4148
   45MOL   H30125029   2.413   0.718   1.403 -0.2967 -1.5055 -1.5047
   45MOL   H30225030   2.449   0.616   1.182 -0.4183  0.1702  0.8437
   45MOL   H30325031   2.732   0.500   0.875  0.3089  1.0866 -0.4835
   45MOL   H30425032   2.616   0.594   0.767 -0.6698 -0.7870 -0.1469
   45MOL   H30525033   2.439   0.431   0.845  0.4437 -2.1085 -1.3168
   45MOL   H30625034   2.547   0.362   0.735 -1.2860  1.0339 -1.0198
   45MOL   H30725035   2.555   1.009   1.030  1.0671 -0.5142  0.6614
   45MOL   H30825036   2.570   1.196   1.199 -1.2024 -0.9293 -0.3781
   45MOL   H30925037   2.544   1.285   1.423  0.6469 -1.1995  2.3398
   45MOL   O31025038   2.543   0.384   1.119  0.1551  0.4801 -1.0997
   45MOL   C31125039   2.570   0.287   1.048 -0.8856  0.6986  0.0000
   45MOL   O31225040   2.586   0.294   0.921  0.1972 -0.3246 -0.1331
   45MOL   C31325041   2.602   0.152   1.101 -0.4453 -1.1497 -0.3917
   45MOL   C31425042   2.626   0.043   1.019 -0.2311 -0.0159 -0.2091
   45MOL   C31525043   2.633   8.165   1.083  0.0209 -1.3347 -0.0116
   45MOL   C31625044   2.637   8.051   1.002  0.2558  0.4201  0.8451
   45MOL   C31725045   2.637   7.925   1.059 -0.3656 -0.5701  0.1612
   45MOL   C31825046   2.650   7.916   1.198 -0.0570  0.1739  0.3172
   45MOL   C31925047   2.678   7.777   1.244 -0.4951 -0.6207 -0.2236
   45MOL   O32025048   2.743   7.773   1.365  0.5458  0.1016  0.4498
   45MOL   C32125049   2.743   7.654   1.431 -0.0529 -0.2180  0.1992
   45MOL   C32225050   2.601   7.619   1.466  0.3410 -0.1350 -0.0448
   45MOL   O32325051   2.653   7.672   1.182  0.1363  0.6189  0.4530
   45MOL   C32425052   2.642   8.026   1.282  0.7825 -0.5201  0.2879
   45MOL   C32525053   2.630   8.152   1.222 -0.4228  0.6190  0.6002
   45MOL   C32625054   2.609   0.016   1.294 -0.0563 -0.1965 -0.3168
   45MOL   C32725055   2.596   0.143   1.239  0.5229 -0.3521  0.2889
   45MOL   H32825056   2.645   0.051   0.913 -2.4454 -1.4349 -0.7438
   45MOL   H32925057   2.635   8.054   0.894  0.6696 -2.6304  0.7198
   45MOL   H33025058   2.642   7.838   0.996 -0.3937  1.0037 -2.0626
   45MOL   H33125059   2.797   7.649   1.525  0.3876  0.8064  0.0035
   45MOL   H33225060   2.768   7.564   1.375 -0.5063 -1.4570  1.9469
   45MOL   H33325061   2.531   7.615   1.382  0.9734 -2.6393 -0.4774
   45MOL   H33425062   2.601   7.515   1.498  0.6884 -0.1640 -0.1334
   45MOL   H33525063   2.644   8.026   1.390 -1.0877  3.7858  0.4507
   45MOL   H33625064   2.597   0.012   1.401  0.4310  1.4971 -0.1750
   45MOL   H33725065   2.583   0.231   1.300  4.6825  0.7840 -0.2479
   45MOL   O33825066   2.645   7.579   1.727  0.1310  0.2967 -0.5926
   45MOL   C33925067   2.575   7.671   1.694 -0.1851 -0.5642  0.3816
   45MOL   O34025068   2.562   7.707   1.570  0.3526 -0.5430 -0.1382
   45MOL   C34125069   2.503   7.765   1.782  0.7956 -0.3509  0.2439
   45MOL   C34225070   2.436   7.881   1.738 -0.2651 -0.1976 -0.1374
   45MOL   C34325071   2.370   7.967   1.835  0.3539  0.1785 -0.3928
   45MOL   C34425072   2.317   8.092   1.795 -0.2523  0.1959 -0.2124
   45MOL   C34525073   2.246   8.167   1.893 -0.5922 -0.1452 -0.1803
   45MOL   C34625074   2.228   8.121   2.026 -0.0087  0.5982 -0.5348
   45MOL   C34725075   2.148   8.201   2.123 -0.4262  0.4407 -0.2320
   45MOL   O34825076   2.132   8.140   2.248 -0.1253  0.0795 -0.2281
   45MOL   C34925077   2.041   8.201   2.346 -0.3573  0.0272  0.3969
   45MOL   C35025078   1.905   8.126   2.345  0.2511  0.2535  0.0060
   45MOL   O35125079   2.096   0.060   2.092  0.4894 -0.3142 -0.3948
   45MOL   C35225080   2.302   8.006   2.070  0.0749  0.8856  0.4529
   45MOL   C35325081   2.371   7.927   1.973 -1.0892 -0.1671  0.5809
   45MOL   C35425082   2.427   7.801   2.012 -0.3253  0.5471 -0.3666
   45MOL   C35525083   2.497   7.728   1.917 -0.2277  0.3391  0.1054
   45MOL   H35625084   2.455   7.916   1.638  1.4903  1.0752  0.6153
   45MOL   H35725085   2.316   8.132   1.695 -1.1624  1.9215  0.4723
   45MOL   H35825086   2.200   0.011   1.861 -1.9724 -1.8732 -3.4747
   45MOL   H35925087   2.023   0.055   2.315 -0.1732 -0.3475 -1.0285
   45MOL   H36025088   2.079   8.207   2.448 -1.0476  0.1575  0.6449
   45MOL   H36125089   1.927   8.022   2.323 -0.6152  0.4114 -1.7672
   45MOL   H36225090   1.850   8.126   2.439 -1.9951  0.7838 -1.2574
   45MOL   H36325091   2.303   7.976   2.174  0.2914  0.0977  0.2317
   45MOL   H36425092   2.416   7.755   2.109  1.4334  0.4938 -0.1652
   45MOL   H36525093   2.541   7.636   1.954  1.3655  1.1188  0.1812
   45MOL   O36625094   1.630   8.144   2.386 -0.2447 -0.3658 -0.5252
   45MOL   C36725095   1.682   8.190   2.281  0.6801  0.0667 -0.2806
   45MOL   O36825096   1.814   8.187   2.252  0.0468  0.0217 -0.2073
   45MOL   C36925097   1.604   0.012   2.175 -0.0149 -0.1711 -0.5084
   45MOL   C37025098   1.465   0.019   2.203  0.5597 -0.4803  0.6500
   45MOL   C37125099   1.381   0.086   2.109 -0.6032  0.3725  0.9504
   45MOL   C37225100   1.245   0.110   2.134 -0.5706  0.5398 -0.0798
   45MOL   C37325101   1.159   0.164   2.029  0.0359 -0.3613 -0.3124
   45MOL   C37425102   1.223   0.230   1.918 -0.2463  0.7902  0.1068
   45MOL   C37525103   1.133   0.301   1.821 -0.0845  0.3546  0.1971
   45MOL   O37625104   1.190   0.380   1.739  0.9259 -0.5989 -0.2710
   45MOL   C37725105   1.112   0.466   1.657  0.0338  0.6230 -0.1936
   45MOL   C37825106   1.209   0.576   1.594 -0.2350 -0.0667  0.4868
   45MOL   O37925107   1.015   0.271   1.825 -0.1503  0.0220  0.1742
   45MOL   C38025108   1.360   0.227   1.908  0.1524  0.4459 -0.2451
   45MOL   C38125109   1.441   0.154   1.996 -0.0821  0.4495  0.3039
   45MOL   C38225110   1.578   0.158   1.976 -0.4420  0.2457  0.0362
   45MOL   C38325111   1.664   0.084   2.070  0.2252 -0.0805  0.5886
   45MOL   H38425112   1.421   8.213   2.285  0.3730 -1.7818 -0.2977
   45MOL   H38525113   1.197   0.061   2.217 -0.0875 -0.0728 -0.1584
   45MOL   H38625114   1.052   0.170   2.044 -0.0907 -0.7633 -1.0473
   45MOL   H38725115   1.031   0.521   1.705 -0.8211 -0.0554 -0.8337
   45MOL   H38825116   1.062   0.405   1.581  0.5169 -0.5757  0.4466
   45MOL   H38925117   1.149   0.654   1.546 -1.7739 -1.0459  0.7879
   45MOL   H39025118   1.275   0.623   1.668  0.1980  0.8536 -0.4646
   45MOL   H39125119   1.414   0.287   1.836  1.8707  1.8037  2.1052
   45MOL   H39225120   1.626   0.219   1.901 -1.9380  0.6346 -0.6334
   45MOL   H39325121   1.771   0.096   2.065  0.2604  0.1703  1.7572
   45MOL   O39425122   1.459   0.488   1.637  0.0329 -0.7144 -0.1901
   45MOL   C39525123   1.406   0.476   1.529  0.1508  0.1765  0.7118
   45MOL   O39625124   1.289   0.516   1.499  0.5301 -0.4525  0.5349
   45MOL   C39725125   1.479   0.411   1.419 -0.4860 -0.8593  0.4167
   45MOL   C39825126   1.417   0.370   1.299  0.3032 -0.4097 -0.0328
   45MOL   C39925127   1.487   0.301   1.201  0.0136 -0.0537  0.1671
   45MOL   C40025128   1.421   0.255   1.084 -0.1013  0.2848 -0.0868
   45MOL   C40125129   1.500   0.206   0.978  0.0169 -0.7210  0.7860
   45MOL   C40225130   1.639   0.184   0.987  0.6802  0.7796 -0.3816
   45MOL   C40325131   1.712   0.116   0.876 -0.2162  0.0618 -0.1351
   45MOL   O40425132   1.626   0.062   0.793 -0.0833  0.6940 -0.0287
   45MOL   C40525133   1.672   0.008   0.666  0.3449  0.3524 -0.1891
   45MOL   C40625134   1.684   8.099   0.670  0.5638  0.1245  0.0635
   45MOL   O40725135   1.836   0.098   0.880  0.2454  0.2792  0.0108
   45MOL   C40825136   1.700   0.227   1.103  0.0823 -1.3598  0.2418
   45MOL   C40925137   1.631   0.288   1.213  0.3524 -0.6079 -0.0135
   45MOL   C41025138   1.697   0.340   1.324 -0.0369 -0.7586  0.3417
   45MOL   C41125139   1.619   0.387   1.432  0.1749 -0.9304 -0.3472
   45MOL   H41225140   1.312   0.385   1.281  0.6235  3.6670  0.9638
   45MOL   H41325141   1.316   0.273   1.067  0.0204  0.1507 -1.0218
   45MOL   H41425142   1.451   0.177   0.886  1.8349 -1.2670 -0.0310
   45MOL   H41525143   1.768   0.049   0.634  0.2015 -0.6827 -2.0877
   45MOL   H41625144   1.596   0.049   0.599  1.5240  0.0094 -1.7817
   45MOL   H41725145   1.735   8.061   0.582  1.5810 -1.6276  1.3882
   45MOL   H41825146   1.760   8.075   0.745 -0.1786  1.0747  1.1477
   45MOL   H41925147   1.807   0.214   1.107  0.4075  1.0689  0.0064
   45MOL   H42025148   1.804   0.332   1.335  0.5347  0.5790 -3.4360
   45MOL   H42125149   1.667   0.428   1.520 -1.3089  2.4346 -1.0287
   45MOL   O42225150   1.439   8.135   0.561 -0.3975  0.3861  0.4237
   45MOL   C42325151   1.460   8.042   0.642  0.2886 -0.4251  0.4393
   45MOL   O42425152   1.572   8.024   0.705  0.0678  0.1806  0.7088
   45MOL   C42525153   1.354   7.946   0.689 -0.1217 -0.8377  0.3265
   45MOL   C42625154   1.215   7.964   0.652  0.2961  0.6741  0.7907
   45MOL   C42725155   1.113   7.873   0.701  0.6351 -0.5561 -0.2857
   45MOL   C42825156   0.980   7.900   0.673  0.4763  0.9459  0.0821
   45MOL   C42925157   0.881   7.809   0.715  0.3453  1.0379 -0.2076
   45MOL   C43025158   0.911   7.700   0.799  0.3376 -0.2062  0.4026
   45MOL   C43125159   0.798   7.608   0.839 -0.2285 -0.6349 -0.4626
   45MOL   O43225160   0.680   7.647   0.788  0.7464 -0.1285  0.2633
   45MOL   C43325161   0.556   7.591   0.837  0.4540  0.1027  0.0263
   45MOL   C43425162   0.463   7.710   0.845  0.4956 -0.9286 -0.4036
   45MOL   O43525163   0.811   7.510   0.911 -0.6300  0.7262 -0.0830
   45MOL   C43625164   1.048   7.681   0.840 -0.1700  0.1359  0.5568
   45MOL   C43725165   1.147   7.765   0.783 -0.0953  0.2891  0.1070
   45MOL   C43825166   1.286   7.752   0.814 -0.6202 -0.9732 -0.2303
   45MOL   C43925167   1.387   7.834   0.763 -0.8388  0.4755 -0.0048
   45MOL   H44025168   1.191   8.058   0.604  0.8931 -0.8087 -2.5370
   45MOL   H44125169   0.964   7.978   0.600 -0.3351  1.2549  0.5780
   45MOL   H44225170   0.784   7.829   0.672 -0.1070 -1.7279 -0.6139
   45MOL   H44325171   0.588   7.552   0.933  1.2817 -0.3713 -0.4337
   45MOL   H44425172   0.524   7.512   0.770 -1.0637  1.3824 -0.8046
   45MOL   H44525173   0.396   7.711   0.930 -0.4260  1.1632 -1.1055
   45MOL   H44625174   0.532   7.787   0.878  0.2278 -1.4645  1.4136
   45MOL   H44725175   1.070   7.598   0.906  3.0664 -0.0339 -0.6445
   45MOL   H44825176   1.310   7.666   0.875 -0.8602 -2.9159 -2.7685
   45MOL   H44925177   1.488   7.807   0.791 -1.1249 -1.3020 -0.6226
   45MOL   O45025178   0.249   7.605   0.700  0.3884  0.0857 -0.5003
   45MOL   C45125179   0.306   7.703   0.658 -0.3416  0.1272  0.1702
   45MOL   O45225180   0.416   7.755   0.716 -0.1251 -0.3137 -0.6185
   45MOL   C45325181   0.265   7.773   0.533 -0.0597  0.2627 -1.0173
   45MOL   C45425182   0.347   7.874   0.474 -0.2460  0.2178 -0.5639
   45MOL   C45525183   0.315   7.943   0.356  0.0835 -0.2216 -0.1898
   45MOL   C45625184   0.390   8.051   0.302  0.1404  0.4386  0.2359
   45MOL   C45725185   0.351   8.120   0.186 -0.1888  0.2264 -0.1149
   45MOL   C45825186   0.244   8.077   0.116 -0.2489 -0.4136 -0.4310
   45MOL   C45925187   0.202   8.156   8.243 -0.0893 -0.5600  0.1777
   45MOL   O46025188   0.076   8.127   8.202  0.3753  0.4556  0.6892
   45MOL   C46125189   0.029   8.183   8.086 -0.8190 -0.1183 -0.7258
   45MOL   C46225190   8.135   8.144   8.062  0.3001  0.6480 -0.1088
   45MOL   O46325191   0.275   8.233   8.178  0.3596  0.0497  0.1379
   45MOL   C46425192   0.162   7.975   0.171 -0.3699  0.3037  1.3242
   45MOL   C46525193   0.191   7.908   0.294 -0.1376 -1.0490 -0.7487
   45MOL   C46625194   0.112   7.803   0.340  0.5798  0.2971 -0.0757
   45MOL   C46725195   0.152   7.736   0.459  0.0033 -0.2827  0.0271
   45MOL   H46825196   0.440   7.905   0.520  0.2585 -0.5515 -1.0438
   45MOL   H46925197   0.477   8.079   0.359  0.7637  0.8535 -0.8938
   45MOL   H47025198   0.405   8.205   0.145 -1.0839 -0.2236 -2.2718
   45MOL   H47125199   0.088   8.139   8.006 -0.2016 -2.2518  0.8759
   45MOL   H47225200   0.038   0.042   8.077 -1.9200 -0.0412 -1.0010
   45MOL   H47325201   8.067   8.176   8.141  1.1343 -0.5297  1.1296
   45MOL   H47425202   8.109   8.210   7.979  2.3428 -0.6990 -1.8801
   45MOL   H47525203   0.063   7.947   0.139  0.4973 -3.1689  1.4731
   45MOL   H47625204   0.025   7.766   0.288  0.8242 -1.2758  0.6060
   45MOL   H47725205   0.094   7.651   0.490 -0.0280 -0.4223 -0.4104
   45MOL   O47825206   8.056   7.927   8.209 -0.3872  0.0384  0.8518
   45MOL   C47925207   8.084   7.910   8.091 -0.2606  0.3045  0.2026
   45MOL   O48025208   8.109   8.011   8.008  0.3881  0.0778 -0.0334
   45MOL   C48125209   8.087   7.776   8.024  0.9158  0.2344 -0.1269
   45MOL   C48225210   8.041   7.662   8.095  0.2052  0.1168  0.1453
   45MOL   C48325211   8.049   7.543   8.033  0.2831  0.4660  0.6979
   45MOL   C48425212   8.009   7.433   8.109  0.0988 -0.3423 -0.4468
   45MOL   C48525213   8.014   7.309   8.046 -1.1763  0.6412  0.0738
   45MOL   C48625214   8.073   7.286   7.917  0.4956  0.5283 -0.7513
   45MOL   C48725215   8.084   7.149   7.867  0.2678 -0.4407  0.3417
   45MOL   O48825216   8.147   7.140   7.745  0.1072  0.4693 -0.0948
   45MOL   C48925217   8.169   7.013   7.679 -0.6207 -1.1987  0.0294
   45MOL   C49025218   8.054   6.963   7.590 -0.7110 -0.3104 -0.0382
   45MOL   O49125219   8.042   7.054   7.933 -0.7248 -0.8553 -0.0876
   45MOL   C49225220   8.109   7.397   7.841  0.2542 -0.1342  0.5079
   45MOL   C49325221   8.106   7.526   7.906 -0.0858 -0.0341  0.7691
   45MOL   C49425222   8.143   7.637   7.829 -0.2382 -0.1166 -0.7708
   45MOL   C49525223   8.119   7.768   7.886 -0.9434  0.1109  0.7593
   45MOL   H49625224   8.000   7.675   8.194 -1.2309 -1.8273 -0.1817
   45MOL   H49725225   7.961   7.448   8.204 -0.1751 -1.9089 -0.3283
   45MOL   H49825226   7.976   7.233   8.112  0.3023 -0.6377 -0.5421
   45MOL   H49925227   8.190   6.932   7.750  3.4831 -0.5959 -0.3692
   45MOL   H50025228   0.009   7.017   7.616  1.5653  0.2908  3.1102
   45MOL   H50125229   8.074   6.858   7.570 -0.3547 -0.3056  0.2971
   45MOL   H50225230   7.959   6.967   7.644 -1.4787  0.6032 -1.4181
   45MOL   H50325231   8.159   7.381   7.747  1.8326 -0.9092  1.4705
   45MOL   H50425232   8.171   7.624   7.725 -0.8376 -1.3759 -0.7881
   45MOL   H50525233   8.155   7.857   7.837 -2.0087 -0.2418 -0.6767
   45MOL   O50625234   7.827   7.020   7.457  0.2448  0.0772 -0.0397
   45MOL   C50725235   7.930   7.066   7.412  0.2159  0.9657 -0.0411
   45MOL   O50825236   8.051   7.044   7.471  0.8864 -0.7192  0.0164
   45MOL   C50925237   7.938   7.160   7.303 -0.4561 -0.1721  0.2344
   45MOL   C51025238   8.058   7.225   7.260 -0.2225 -0.0157  0.2204
   45MOL   C51125239   8.059   7.290   7.133 -0.1922 -0.3840  0.3001
   45MOL   C51225240   8.183   7.340   7.077  0.1764  0.1090 -0.2979
   45MOL   C51325241   8.171   7.419   6.960 -0.1669 -0.0972  0.6033
   45MOL   C51425242   8.049   7.441   6.899 -0.0528  0.4519  0.4140
   45MOL   C51525243   8.046   7.524   6.770  0.0552 -0.0795 -0.8315
   45MOL   O51625244   7.926   7.558   6.732 -0.2198  0.1654 -0.0167
   45MOL   C51725245   7.909   7.608   6.600 -0.4191  0.3951 -0.0805
   45MOL   C51825246   7.891   7.762   6.610  0.0968  0.0176  0.7023
   45MOL   O51925247   8.150   7.542   6.701  0.2193 -0.2901  0.5060
   45MOL   C52025248   7.931   7.390   6.951  0.1577  0.2283 -0.2580
   45MOL   C52125249   7.935   7.313   7.063 -0.2102 -0.0366 -0.2619
   45MOL   C52225250   7.819   7.262   7.116 -0.0677  0.4930 -0.3304
   45MOL   C52325251   7.817   7.188   7.238 -0.7130 -0.1693  0.7198
   45MOL   H52425252   8.150   7.203   7.312 -0.4485  0.9827  1.0711
   45MOL   H52525253   0.026   7.303   7.121 -0.8269 -0.4437  1.3862
   45MOL   H52625254   0.014   7.456   6.918 -0.4223 -0.5710 -0.3912
   45MOL   H52725255   7.824   7.553   6.561 -0.9638  0.5127  0.9257
   45MOL   H52825256   7.996   7.591   6.537  1.6464 -0.1552  2.8003
   45MOL   H52925257   7.849   7.790   6.514  0.1028  0.2692  0.7730
   45MOL   H53025258   7.823   7.803   6.685  1.0322  1.1467  0.9348
   45MOL   H53125259   7.834   7.399   6.906 -0.1651 -0.3818  0.3078
   45MOL   H53225260   7.726   7.289   7.068  0.1472 -0.6549 -1.4060
   45MOL   H53325261   7.719   7.158   7.274  0.1379 -3.4385  0.4157
   45MOL   O53425262   8.090   7.815   6.414 -0.6976 -0.4798  0.1898
   45MOL   C53525263   8.103   7.855   6.531 -0.3671  0.1445  0.6023
   45MOL   O53625264   8.009   7.840   6.630  0.3339 -0.3390  0.2345
   45MOL   C53725265   8.227   7.921   6.588 -1.1818  0.0827  0.1511
   45MOL   C53825266   8.221   8.004   6.699 -1.0923 -0.6365  0.0978
   45MOL   C53925267   0.087   8.050   6.765  0.0518 -0.5080  0.4908
   45MOL   C54025268   0.077   8.118   6.883 -0.4162  0.3185  0.2047
   45MOL   C54125269   0.195   8.175   6.942  0.0891  0.5435  0.6244
   45MOL   C54225270   0.321   8.159   6.888 -0.4570 -0.8756 -0.4409
   45MOL   C54325271   0.447   8.218   6.936 -0.4937 -0.8650 -0.2101
   45MOL   O54425272   0.428   0.042   7.054  0.5027  0.5540 -0.5211
   45MOL   C54525273   0.535   0.089   7.132  0.1279  0.4326  0.2031
   45MOL   C54625274   0.573   8.229   7.241 -0.0679  0.2233 -0.2833
   45MOL   O54725275   0.553   8.193   6.890 -0.0429  0.0547 -1.0638
   45MOL   C54825276   0.323   8.081   6.772 -0.7653 -0.4119  0.3996
   45MOL   C54925277   0.211   8.020   6.714 -0.6520 -0.0575 -0.0840
   45MOL   C55025278   0.226   7.940   6.600 -0.6539  0.0457 -0.4414
   45MOL   C55125279   0.110   7.891   6.538 -0.8764  0.3487 -0.3487
   45MOL   H55225280   8.126   8.027   6.745 -1.4200 -1.3785 -0.2005
   45MOL   H55325281   8.230   8.137   6.928  0.8398  1.7898  2.3552
   45MOL   H55425282   0.183   8.233   7.032 -0.0308  1.8784 -0.2471
   45MOL   H55525283   0.516   0.189   7.171  0.3166 -0.1022  1.7066
   45MOL   H55625284   0.618   0.110   7.064 -0.2548 -1.4559 -0.8753
   45MOL   H55725285   0.592   8.129   7.203 -1.4695 -0.2757  0.2913
   45MOL   H55825286   0.494   8.224   7.315  0.4018 -0.9109  0.1584
   45MOL   H55925287   0.421   8.066   6.728 -0.1683 -0.3495  1.6989
   45MOL   H56025288   0.320   7.927   6.548  0.4816  2.7771  0.7993
   45MOL   H56125289   0.114   7.825   6.452 -2.1059  0.8523 -0.7987
   45MOL   H56225290   0.666   0.000   7.295 -0.4935  2.1068 -0.2293
   46MOL     O125291   5.057   1.667   6.810 -0.3072  0.0174  0.0509
   46MOL     C225292   5.145   1.641   6.889 -0.2413  1.0324 -0.1459
   46MOL     O325293   5.232   1.737   6.928  0.2487  0.1293  0.2030
   46MOL     C425294   5.171   1.498   6.928  0.2087  0.9761  0.1682
   46MOL     C525295   5.069   1.399   6.900 -0.0236 -0.5094  0.5193
   46MOL     C625296   5.080   1.264   6.939 -0.1569 -0.5486 -0.4122
   46MOL     C725297   4.974   1.173   6.935 -0.1745 -0.1098 -0.2353
   46MOL     C825298   4.986   1.044   6.991  0.3811  0.2080 -0.4763
   46MOL     C925299   5.109   1.005   7.049 -0.1085 -0.1037  0.0806
   46MOL    C1025300   5.116   0.866   7.088  0.0715  0.1520 -0.7629
   46MOL    O1125301   5.242   0.822   7.122 -0.1992 -0.0643  0.6719
   46MOL    C1225302   5.258   0.691   7.180 -0.2343  0.5584 -0.0386
   46MOL    C1325303   5.199   0.690   7.324 -0.3709  0.3639 -0.0615
   46MOL    O1425304   5.019   0.791   7.101  0.0215 -0.1594  0.3717
   46MOL    C1525305   5.220   1.096   7.052 -0.2230 -0.1622  0.3348
   46MOL    C1625306   5.200   1.226   7.003 -0.0781  0.0215 -0.0808
   46MOL    C1725307   5.309   1.318   7.016  0.6722 -0.2895 -0.3326
   46MOL    C1825308   5.293   1.454   6.983  0.2869 -0.2139 -0.0821
   46MOL    H1925309   4.975   1.431   6.857  0.5254  0.9018  0.3485
   46MOL    H2025310   4.884   1.199   6.881 -0.2495 -1.3423 -0.7178
   46MOL    H2125311   4.913   0.966   6.971  0.6430  0.0195 -0.7077
   46MOL    H2225312   5.203   0.615   7.125  0.9314 -1.2288  1.2145
   46MOL    H2325313   5.361   0.658   7.183 -0.7870 -1.2673 -0.2292
   46MOL    H2425314   5.108   0.751   7.330 -1.5701 -1.5416  2.5006
   46MOL    H2525315   5.187   0.588   7.363 -2.2639  0.5511 -0.0958
   46MOL    H2625316   5.318   1.065   7.085 -0.6324 -2.5776 -0.5996
   46MOL    H2725317   5.398   1.276   7.061  1.2568  0.7830 -0.4661
   46MOL    H2825318   5.375   1.521   7.005 -0.5290  1.8888 -3.2149
   46MOL    H2925319   5.199   1.822   6.906 -1.4640 -0.6267 -0.2360
   46MOL    O3025320   5.174   0.946   7.417  0.2748 -0.0973 -0.4088
   46MOL    C3125321   5.266   0.874   7.456 -0.5913  0.4476  1.1547
   46MOL    O3225322   5.293   0.748   7.413 -0.0808  0.1849 -0.5506
   46MOL    C3325323   5.370   0.921   7.556  0.7373 -0.0074  0.7035
   46MOL    C3425324   5.410   1.052   7.581  0.4570 -0.8976 -0.0055
   46MOL    C3525325   5.511   1.094   7.661 -0.0860 -0.3361  0.0895
   46MOL    C3625326   5.545   1.232   7.676  0.4013  0.1783 -0.2785
   46MOL    C3725327   5.653   1.269   7.760 -0.5401 -0.4645 -0.2261
   46MOL    C3825328   5.722   1.168   7.826 -0.0251  0.3024 -0.3523
   46MOL    C3925329   5.842   1.205   7.913  0.2325 -0.5819 -0.0985
   46MOL    O4025330   5.911   1.103   7.966 -0.3086  0.1914 -0.3128
   46MOL    C4125331   6.028   1.131   8.037  0.2219 -0.3805  0.8265
   46MOL    C4225332   5.989   1.168   8.181 -0.5229  0.3428  0.3617
   46MOL    O4325333   5.871   1.324   7.933 -0.3079 -0.1463  0.2243
   46MOL    C4425334   5.685   1.031   7.818 -0.0751  0.2314  0.6927
   46MOL    C4525335   5.576   0.997   7.735  0.1516 -0.3166 -0.3260
   46MOL    C4625336   5.539   0.859   7.723  0.5951 -0.7856 -0.0004
   46MOL    C4725337   5.437   0.826   7.632 -0.2455  0.7352  0.1318
   46MOL    H4825338   5.350   1.126   7.530  0.8206 -0.3044  0.4207
   46MOL    H4925339   5.484   1.302   7.620  0.5415  0.2321 -0.3657
   46MOL    H5025340   5.673   1.373   7.781  1.1458 -0.7525 -0.3555
   46MOL    H5125341   6.083   1.215   7.995 -0.3738 -0.1082  0.5893
   46MOL    H5225342   6.097   1.046   8.036 -1.0817 -1.4827  2.1727
   46MOL    H5325343   6.045   1.251   8.225  0.7100 -0.1249 -0.2833
   46MOL    H5425344   5.883   1.192   8.178 -0.4447  0.7898  1.1784
   46MOL    H5525345   5.735   0.951   7.870  0.8668 -0.3838 -1.1091
   46MOL    H5625346   5.595   0.777   7.766  1.1571 -1.1402 -1.3875
   46MOL    H5725347   5.410   0.721   7.628  3.1254 -0.1391 -1.6980
   46MOL    O5825348   6.234   1.070   8.244  0.0231 -0.0367  0.1629
   46MOL    C5925349   6.132   1.005   0.034 -0.4133 -0.6910  0.5624
   46MOL    O6025350   6.004   1.049   0.014 -0.0019 -0.4953  0.8487
   46MOL    C6125351   6.151   0.875   0.112 -0.6888 -0.0251 -0.3425
   46MOL    C6225352   6.041   0.785   0.137 -0.2224 -0.5526  0.2797
   46MOL    C6325353   6.065   0.667   0.207  0.6191  0.0424  0.5921
   46MOL    C6425354   5.959   0.577   0.223  0.4626  0.1098 -0.4511
   46MOL    C6525355   5.979   0.450   0.282 -0.4294 -0.2625  0.1217
   46MOL    C6625356   6.102   0.420   0.342 -0.1463  0.7778  0.1836
   46MOL    C6725357   6.134   0.285   0.385  0.8388  0.7300 -0.2093
   46MOL    O6825358   6.037   0.200   0.340  0.1278  0.6605 -0.4478
   46MOL    C6925359   6.038   0.073   0.409 -0.5000 -0.3710 -1.0413
   46MOL    C7025360   5.944   8.223   0.346 -0.2918  0.1539  0.4063
   46MOL    O7125361   6.238   0.257   0.453 -0.7366 -0.4540 -0.5978
   46MOL    C7225362   6.208   0.516   0.336  0.5236  0.2737  0.4285
   46MOL    C7325363   6.196   0.636   0.259 -0.3098  0.0259 -0.4940
   46MOL    C7425364   6.301   0.722   0.236 -0.0731 -0.0183 -0.0151
   46MOL    C7525365   6.281   0.835   0.156  0.1913 -0.2352 -0.4809
   46MOL    H7625366   5.940   0.799   0.102 -0.3660 -1.1757  0.4394
   46MOL    H7725367   5.866   0.605   0.176 -0.2657  2.3303  2.1719
   46MOL    H7825368   5.896   0.383   0.295 -1.3780  0.9321  0.3282
   46MOL    H7925369   6.007   0.095   0.511  1.9420  1.1887 -0.5889
   46MOL    H8025370   6.139   0.033   0.422 -0.3956  0.1083 -0.3407
   46MOL    H8125371   5.930   8.136   0.410 -0.3539 -0.4835 -0.4545
   46MOL    H8225372   5.853   0.032   0.348 -0.3472  0.0831 -0.0185
   46MOL    H8325373   6.307   0.495   0.374 -0.1471 -3.4110  0.3467
   46MOL    H8425374   6.401   0.708   0.275  0.6714  3.4614 -0.4562
   46MOL    H8525375   6.357   0.912   0.151  1.2869 -1.1600  1.2472
   46MOL    O8625376   5.812   8.057   0.166  0.0363  0.1632 -0.3316
   46MOL    C8725377   5.915   8.111   0.135  0.3223  0.1331 -0.1887
   46MOL    O8825378   5.982   8.194   0.210 -1.1551 -0.1648  0.3241
   46MOL    C8925379   5.981   8.089   0.006  0.0699  0.8338  0.3131
   46MOL    C9025380   6.059   8.191   8.201  0.2821 -0.2649  0.2610
   46MOL    C9125381   6.137   8.163   8.086 -0.1127 -0.1935 -0.4526
   46MOL    C9225382   6.235   0.011   8.044 -0.8313 -0.3153 -0.6839
   46MOL    C9325383   6.318   8.242   7.931 -0.1193 -0.2076 -0.1956
   46MOL    C9425384   6.288   8.134   7.845  0.1420 -0.0294 -0.0970
   46MOL    C9525385   6.345   8.128   7.708 -0.3709  0.5428 -0.3534
   46MOL    O9625386   6.417   8.241   7.673 -0.8916 -0.8609 -0.2850
   46MOL    C9725387   6.433   0.024   7.538  0.2484 -0.6227  0.4991
   46MOL    C9825388   6.326   0.122   7.497  0.0202 -0.1707 -1.1196
   46MOL    O9925389   6.330   8.036   7.626  0.4056 -0.3542 -0.6628
   46MOL   C10025390   6.195   8.036   7.887 -0.0372  1.1233 -0.1046
   46MOL   C10125391   6.128   8.048   8.009  0.0552  0.4276  0.3170
   46MOL   C10225392   6.044   7.948   8.061 -0.3445 -0.1172  0.3707
   46MOL   C10325393   5.975   7.970   8.181 -0.2654 -0.4727 -0.1496
   46MOL   H10425394   6.065   0.035   0.007  2.2547 -0.6166  0.6572
   46MOL   H10525395   6.237   0.098   8.109 -0.0227 -2.0016  1.6281
   46MOL   H10625396   6.389   0.071   7.909 -0.2745 -0.0127 -0.0227
   46MOL   H10725397   6.432   8.186   7.472  1.8380 -1.5282  1.6368
   46MOL   H10825398   6.525   0.077   7.511  0.2437 -0.9125 -0.1004
   46MOL   H10925399   6.314   0.188   7.583 -0.1675 -1.8278  0.1492
   46MOL   H11025400   6.357   0.164   7.401  1.8829  2.1577  0.4621
   46MOL   H11125401   6.179   7.950   7.825 -0.5599  2.1479 -1.4123
   46MOL   H11225402   6.032   7.853   8.011 -1.9710  1.2355 -1.8695
   46MOL   H11325403   5.914   7.893   8.226  0.4067 -0.5831  0.5849
   46MOL   O11425404   6.237   0.015   7.259 -0.0425 -0.0255 -0.3115
   46MOL   C11525405   6.171   0.008   7.364 -0.1227  0.1725  0.8229
   46MOL   O11625406   6.205   0.055   7.485 -0.8702 -0.3734 -0.3493
   46MOL   C11725407   6.051   8.173   7.375 -0.2004  0.9127 -0.1294
   46MOL   C11825408   6.008   8.134   7.503 -0.3888 -0.6748 -0.6871
   46MOL   C11925409   5.895   8.052   7.516  0.3413 -0.1706 -0.6002
   46MOL   C12025410   5.844   8.002   7.644 -0.6539  0.8342  0.5762
   46MOL   C12125411   5.734   7.919   7.645  0.1030  0.1263 -0.0790
   46MOL   C12225412   5.663   7.884   7.530  0.0027 -0.2225  0.2467
   46MOL   C12325413   5.542   7.799   7.543  0.2702  0.0761  0.1912
   46MOL   O12425414   5.463   7.791   7.436  0.3943 -0.6973  0.0366
   46MOL   C12525415   5.367   7.685   7.422  1.0785 -1.0445 -0.9020
   46MOL   C12625416   5.431   7.574   7.344  0.1630 -0.1119  0.1029
   46MOL   O12725417   5.522   7.733   7.644  0.0412  0.4086  0.3841
   46MOL   C12825418   5.705   7.942   7.406 -0.0366  0.0024  0.1995
   46MOL   C12925419   5.822   8.018   7.396 -0.3050 -0.5106  0.6483
   46MOL   C13025420   5.859   8.067   7.268 -0.2234  0.3439  0.3460
   46MOL   C13125421   5.972   8.147   7.255 -0.5998 -0.0990  0.2996
   46MOL   H13225422   6.058   8.153   7.597 -0.2804 -4.0195 -0.0062
   46MOL   H13325423   5.890   8.034   7.737  0.1061 -0.7522  0.7503
   46MOL   H13425424   5.692   7.887   7.739  1.6907 -0.4382  0.4557
   46MOL   H13525425   5.274   7.724   7.379  1.0084 -0.7610 -0.4973
   46MOL   H13625426   5.335   7.656   7.522  3.1076  0.8725  0.3472
   46MOL   H13725427   5.379   7.541   7.254 -0.1768 -1.8322  0.8993
   46MOL   H13825428   5.523   7.618   7.307 -0.1509  1.3845  1.0927
   46MOL   H13925429   5.639   7.922   7.323 -0.0244 -2.0002  0.6356
   46MOL   H14025430   5.805   8.043   7.178 -0.0978 -0.2163  0.4171
   46MOL   H14125431   6.006   8.190   7.161  1.2208 -1.1532  0.4478
   46MOL   O14225432   5.261   7.394   7.477 -0.1277  0.2639  0.1794
   46MOL   C14325433   5.383   7.389   7.493  0.4144 -0.0458 -0.8581
   46MOL   O14425434   5.470   7.460   7.418 -0.3990  0.2756 -0.0123
   46MOL   C14525435   5.455   7.297   7.586 -0.8193 -0.2946 -0.5479
   46MOL   C14625436   5.601   7.290   7.591  0.1595  0.3907 -0.0537
   46MOL   C14725437   5.667   7.192   7.674  0.8635 -0.3217  1.3656
   46MOL   C14825438   5.810   7.195   7.696 -0.1450  0.2999 -0.3025
   46MOL   C14925439   5.881   7.088   7.765 -0.4243 -0.1233  0.6906
   46MOL   C15025440   5.801   6.983   7.814  0.4301  0.2010 -0.4188
   46MOL   C15125441   5.874   6.869   7.875 -0.9190  0.2127 -0.5597
   46MOL   O15225442   5.800   6.784   7.945  0.5991  0.1277 -0.3038
   46MOL   C15325443   5.852   6.671   8.005  0.5021  0.0366  0.8065
   46MOL   C15425444   5.867   6.562   7.893  0.1840  0.2641 -0.7641
   46MOL   O15525445   5.997   6.855   7.873  0.1301  0.1798 -0.1911
   46MOL   C15625446   5.656   6.987   7.814 -0.3095 -0.2823  0.1268
   46MOL   C15725447   5.594   7.087   7.736  0.0916 -0.5727  0.0484
   46MOL   C15825448   5.450   7.097   7.736 -0.3662  0.0551  0.2400
   46MOL   C15925449   5.382   7.198   7.662 -0.6712  0.2206  0.5677
   46MOL   H16025450   5.659   7.356   7.529  0.0121 -0.0126 -0.6225
   46MOL   H16125451   5.868   7.270   7.645 -0.5257 -0.2493 -1.5626
   46MOL   H16225452   5.988   7.101   7.762 -0.9379  5.0733 -0.2690
   46MOL   H16325453   5.782   6.641   8.083 -2.3611  0.3116 -1.5573
   46MOL   H16425454   5.953   6.693   8.038  1.1300  1.6946 -2.1133
   46MOL   H16525455   5.917   6.614   7.811  0.1298  1.9845  0.2591
   46MOL   H16625456   5.933   6.486   7.934  0.1747  0.5570 -0.1998
   46MOL   H16725457   5.611   6.908   7.871  2.7398  0.5047  3.8254
   46MOL   H16825458   5.384   7.024   7.781 -0.2716 -0.0139  0.2660
   46MOL   H16925459   5.275   7.186   7.657 -0.8313  1.3334  1.2469
   46MOL   O17025460   5.701   6.387   8.042  0.1843  0.5055  0.6946
   46MOL   C17125461   5.671   6.425   7.927  0.3106 -0.2316 -0.0984
   46MOL   O17225462   5.745   6.506   7.851  0.1570  0.0562  0.1416
   46MOL   C17325463   5.542   6.381   7.863 -0.1325  0.3230  0.3254
   46MOL   C17425464   5.528   6.372   7.725  0.4807 -0.1375 -0.4900
   46MOL   C17525465   5.405   6.328   7.672  0.0884  0.1219 -0.0212
   46MOL   C17625466   5.385   6.335   7.533 -0.4090  0.6285  0.1945
   46MOL   C17725467   5.263   6.284   7.476  0.6812 -0.0769 -0.8093
   46MOL   C17825468   5.161   6.226   7.559 -0.4776 -0.0395  0.1603
   46MOL   C17925469   5.046   6.163   7.491 -0.3519 -0.5104  0.6152
   46MOL   O18025470   4.980   6.077   7.573 -0.3790 -0.0584 -0.5581
   46MOL   C18125471   4.877   5.991   7.516  0.3874 -0.3984 -0.1701
   46MOL   C18225472   4.805   5.916   7.622 -0.2897 -0.4468 -0.7410
   46MOL   O18325473   5.015   6.173   7.373 -0.8060 -0.0521 -0.3117
   46MOL   C18425474   5.178   6.226   7.695 -0.2550 -0.4579 -0.0330
   46MOL   C18525475   5.297   6.280   7.756 -0.2570 -0.0596  0.1430
   46MOL   C18625476   5.316   6.301   7.890 -0.9010  0.4596  0.2326
   46MOL   C18725477   5.439   6.340   7.947 -0.8790 -0.3718  0.3630
   46MOL   H18825478   5.620   6.391   7.671  1.1795  0.4528  0.8773
   46MOL   H18925479   5.454   6.384   7.465  0.5571 -0.2524  0.5425
   46MOL   H19025480   5.259   6.310   7.372  0.2907  1.3931 -0.4457
   46MOL   H19125481   4.926   5.919   7.451 -0.9569 -1.3879 -0.0967
   46MOL   H19225482   4.812   6.051   7.451 -0.4263  0.4450  1.3858
   46MOL   H19325483   4.848   5.816   7.632  2.4002  0.9430  2.1341
   46MOL   H19425484   4.827   5.955   7.721  0.9837  1.6163 -1.8181
   46MOL   H19525485   5.097   6.187   7.756 -1.1019 -0.9191 -1.4257
   46MOL   H19625486   5.234   6.275   7.956  0.2303  0.2048  1.5533
   46MOL   H19725487   5.455   6.349   8.054 -0.1010 -0.0989  0.2289
   46MOL   O19825488   4.692   5.721   7.495 -0.1466 -0.3034  0.0608
   46MOL   C19925489   4.616   5.807   7.533 -0.0978 -0.1084 -1.2334
   46MOL   O20025490   4.661   5.910   7.603  0.2576  0.1508  0.1622
   46MOL   C20125491   4.469   5.795   7.517 -0.2199  0.0704  1.0000
   46MOL   C20225492   4.417   5.676   7.464  0.3101  0.3609 -0.2686
   46MOL   C20325493   4.281   5.649   7.475  0.4574  0.2374 -0.5150
   46MOL   C20425494   4.227   5.526   7.426 -0.2196 -0.0742 -0.5173
   46MOL   C20525495   4.091   5.491   7.453  0.2350  0.1390  0.3545
   46MOL   C20625496   4.002   5.582   7.511  0.0656  0.5602  0.2344
   46MOL   C20725497   3.857   5.554   7.518  0.0427 -0.2952 -0.7998
   46MOL   O20825498   3.826   5.430   7.461 -0.3777 -0.0318  0.0851
   46MOL   C20925499   3.696   5.397   7.428  0.4716 -0.1255 -0.0098
   46MOL   C21025500   3.640   5.489   7.315 -0.0564 -0.4280 -0.1265
   46MOL   O21125501   3.774   5.631   7.564  0.0986 -0.4765  0.0580
   46MOL   C21225502   4.058   5.710   7.553 -0.0824  0.4911  0.0428
   46MOL   C21325503   4.193   5.741   7.532  0.1375  0.8736 -0.2702
   46MOL   C21425504   4.240   5.864   7.580  0.0278  0.8781  0.8084
   46MOL   C21525505   4.376   5.890   7.571 -0.5675  0.2554  0.2544
   46MOL   H21625506   4.482   5.605   7.414 -0.0183  0.3347 -0.6572
   46MOL   H21725507   4.285   5.451   7.373  0.5157  0.0557  0.0964
   46MOL   H21825508   4.052   5.395   7.423 -0.3117 -0.2404  2.2644
   46MOL   H21925509   3.642   5.407   7.523  0.8880 -1.4294  0.3772
   46MOL   H22025510   3.694   5.293   7.398  1.5045 -0.2489  0.3214
   46MOL   H22125511   3.565   5.440   7.252  0.9544 -1.7239 -0.3602
   46MOL   H22225512   3.603   5.587   7.344  0.7902 -0.1975  0.1691
   46MOL   H22325513   3.992   5.786   7.594  0.3032  0.6766  0.3191
   46MOL   H22425514   4.176   5.939   7.625 -2.2418  0.5697 -1.7489
   46MOL   H22525515   4.427   5.974   7.617  2.3806 -1.1667 -0.3213
   46MOL   O22625516   3.713   5.313   7.119  0.7169  0.4691  1.0267
   46MOL   C22725517   3.785   5.405   7.139 -0.2874  0.3777  0.0891
   46MOL   O22825518   3.741   5.507   7.220 -0.1041  0.4704 -0.6349
   46MOL   C22925519   3.918   5.418   7.086  0.0461 -0.4339  0.1122
   46MOL   C23025520   4.000   5.526   7.134 -0.1962 -1.0684  0.2029
   46MOL   C23125521   4.136   5.546   7.080 -0.0544  0.0825 -0.9084
   46MOL   C23225522   4.210   5.666   7.115  0.3400 -0.1411 -0.0844
   46MOL   C23325523   4.339   5.685   7.069 -1.0145  0.0050  0.6050
   46MOL   C23425524   4.401   5.594   6.976  0.2168 -0.2776 -0.3724
   46MOL   C23525525   4.544   5.614   6.933 -0.0127  0.2745 -0.2244
   46MOL   O23625526   4.584   5.737   6.964  0.9124 -0.0078  0.3642
   46MOL   C23725527   4.717   5.781   6.961 -0.3967 -0.5466 -0.3991
   46MOL   C23825528   4.743   5.862   6.833 -0.0994  0.0711  0.4611
   46MOL   O23925529   4.620   5.533   6.880 -0.4358  0.6712  0.4517
   46MOL   C24025530   4.321   5.483   6.936  0.1653 -0.1433  0.5743
   46MOL   C24125531   4.196   5.457   6.994 -0.9427 -0.4209 -0.3286
   46MOL   C24225532   4.112   5.348   6.946 -0.0334 -0.6918 -0.0056
   46MOL   C24325533   3.979   5.329   6.995 -0.4008 -0.9260  0.1541
   46MOL   H24425534   3.955   5.596   7.203 -0.0057  1.4445 -2.1361
   46MOL   H24525535   4.164   5.729   7.189  1.5272 -1.4991  1.8496
   46MOL   H24625536   4.396   5.769   7.104  0.3419 -0.3192 -0.7423
   46MOL   H24725537   4.789   5.701   6.982  0.6480 -0.2482 -2.6849
   46MOL   H24825538   4.724   5.841   7.051  1.3272 -0.2369 -0.7161
   46MOL   H24925539   4.782   5.802   6.750 -0.4838  2.4369 -1.4821
   46MOL   H25025540   4.654   5.910   6.793 -0.1729 -1.4123 -1.2472
   46MOL   H25125541   4.358   5.415   6.860 -1.9482  1.6908 -2.1913
   46MOL   H25225542   4.145   5.284   6.866  2.3595 -0.2043  0.5629
   46MOL   H25325543   3.921   5.250   6.950  0.6799 -1.3784 -0.4631
   46MOL   O25425544   5.016   5.891   6.921 -0.1729  0.2960  0.4667
   46MOL   C25525545   4.947   5.988   6.885  0.0571  0.1956 -0.3693
   46MOL   O25625546   4.820   5.984   6.847  1.0440 -0.0387 -0.1090
   46MOL   C25725547   5.001   6.123   6.893  0.6983 -0.7868 -0.3441
   46MOL   C25825548   5.136   6.145   6.931 -0.1745  0.0596  0.1697
   46MOL   C25925549   5.188   6.267   6.965 -0.1745  0.5119  0.5020
   46MOL   C26025550   5.322   6.267   7.012  0.1263  0.2469  0.5276
   46MOL   C26125551   5.375   6.390   7.045  0.1785  0.1944  0.2448
   46MOL   C26225552   5.305   6.510   7.028  0.2206  0.3760  0.2899
   46MOL   C26325553   5.381   6.633   7.054  0.5643  0.4435  0.2806
   46MOL   O26425554   5.321   6.734   6.986 -0.3503  0.1965  0.1445
   46MOL   C26525555   5.395   6.848   6.958  0.0131  0.5475 -0.0471
   46MOL   C26625556   5.419   6.946   7.076  0.4380 -0.6200  0.2880
   46MOL   O26725557   5.491   6.633   7.106 -1.0173 -0.2098 -0.6809
   46MOL   C26825558   5.166   6.506   6.984 -0.1747  0.6135  0.9011
   46MOL   C26925559   5.107   6.383   6.954 -0.0849 -0.0794 -0.0287
   46MOL   C27025560   4.978   6.369   6.906  0.2401 -0.1423  0.5932
   46MOL   C27125561   4.930   6.242   6.872  0.2730  0.4857 -0.2286
   46MOL   H27225562   5.200   6.060   6.947  0.7921  1.1212  2.2433
   46MOL   H27325563   5.396   6.188   7.008  0.0698  0.0671  2.5402
   46MOL   H27425564   5.483   6.398   7.054  0.3417 -1.0817 -0.4856
   46MOL   H27525565   5.336   6.889   6.876  0.5171  0.1787 -0.5998
   46MOL   H27625566   5.495   6.821   6.925 -1.0776 -0.1892 -2.8189
   46MOL   H27725567   5.461   6.901   7.166  1.0617 -0.3196  0.1437
   46MOL   H27825568   5.501   7.017   7.070  0.1477 -0.0338  2.8441
   46MOL   H27925569   5.113   6.599   6.970 -0.3885  0.3475 -0.1206
   46MOL   H28025570   4.920   6.454   6.873 -0.0512 -0.2929  0.7088
   46MOL   H28125571   4.828   6.234   6.836 -0.4903 -0.0029  1.9421
   46MOL   O28225572   5.267   7.146   6.933 -0.6359  0.4679 -0.5802
   46MOL   C28325573   5.236   7.106   7.049  0.7964 -0.1849  0.1070
   46MOL   O28425574   5.299   7.006   7.116  0.0914 -0.5880  0.7585
   46MOL   C28525575   5.119   7.151   7.136  0.4389 -0.0781  0.4372
   46MOL   C28625576   5.005   7.207   7.071  0.0802  0.3720  1.2226
   46MOL   C28725577   4.899   7.266   7.151  0.7854 -0.0622 -0.3488
   46MOL   C28825578   4.799   7.339   7.085  0.2191  0.2845  0.4416
   46MOL   C28925579   4.693   7.390   7.158  0.5940 -0.1134  0.0729
   46MOL   C29025580   4.688   7.386   7.300 -0.2927 -0.6636  0.6499
   46MOL   C29125581   4.578   7.444   7.375 -0.1406  0.1107  0.3180
   46MOL   O29225582   4.591   7.432   7.507 -0.3124  0.2353 -0.4843
   46MOL   C29325583   4.483   7.488   7.592 -1.3981 -0.2904 -0.0244
   46MOL   C29425584   4.514   7.467   7.735 -0.4946  0.5329 -0.3067
   46MOL   O29525585   4.484   7.499   7.318 -0.1283 -0.0063 -0.1882
   46MOL   C29625586   4.794   7.316   7.365  0.7545 -0.1819 -0.4476
   46MOL   C29725587   4.900   7.260   7.296 -0.5050  0.5282 -0.1285
   46MOL   C29825588   5.007   7.198   7.351  0.5442  0.0231  0.0794
   46MOL   C29925589   5.115   7.146   7.280 -0.6787 -0.2810  0.5444
   46MOL   H30025590   4.994   7.206   6.963 -0.5258 -2.0883  1.2789
   46MOL   H30125591   4.804   7.346   6.977 -0.9653  0.5024  0.3995
   46MOL   H30225592   4.616   7.448   7.107 -0.5614 -0.9138  0.8724
   46MOL   H30325593   4.393   7.434   7.562  0.4433 -1.7091 -3.1610
   46MOL   H30425594   4.482   7.593   7.563  0.6319 -0.1785  0.2031
   46MOL   H30525595   4.451   7.521   7.807 -1.5903 -0.1644 -0.7243
   46MOL   H30625596   4.506   7.359   7.749 -3.2985  0.6324 -0.8391
   46MOL   H30725597   4.799   7.319   7.473 -0.6168  1.2658 -0.4058
   46MOL   H30825598   5.010   7.199   7.459  2.1760  0.9460  0.0381
   46MOL   H30925599   5.200   7.108   7.334  0.6492 -0.1737 -1.4359
   46MOL   O31025600   4.579   7.723   7.816  0.3874  0.1385 -0.0626
   46MOL   C31125601   4.667   7.635   7.809 -0.2063 -0.0907  0.0942
   46MOL   O31225602   4.651   7.507   7.771 -0.8912  0.0616 -0.1722
   46MOL   C31325603   4.813   7.664   7.831  0.3874  0.2426 -0.3280
   46MOL   C31425604   4.917   7.563   7.820  0.5205 -0.4304 -0.4647
   46MOL   C31525605   5.050   7.601   7.859 -0.4874 -0.6321  0.0654
   46MOL   C31625606   5.156   7.510   7.851  0.3773  0.8861 -0.3470
   46MOL   C31725607   5.288   7.538   7.876  0.6375  0.0103 -0.1298
   46MOL   C31825608   5.321   7.670   7.923 -0.3382  0.3486 -0.0152
   46MOL   C31925609   5.466   7.710   7.955 -0.0389 -0.1213  0.6646
   46MOL   O32025610   5.554   7.617   7.913  0.1235  0.0247  0.6024
   46MOL   C32125611   5.700   7.634   7.939  0.0895  0.6428  0.0053
   46MOL   C32225612   5.783   7.517   7.882  0.1268  0.2432  0.3750
   46MOL   O32325613   5.499   7.812   8.014 -0.1281  1.0994 -0.4260
   46MOL   C32425614   5.216   7.767   7.937  0.6574  0.4392 -0.1212
   46MOL   C32525615   5.086   7.732   7.900 -0.4754  0.3040  0.2092
   46MOL   C32625616   4.983   7.829   7.898  0.4166 -0.3141  0.3886
   46MOL   C32725617   4.848   7.799   7.873 -0.2874 -0.0185 -0.3715
   46MOL   H32825618   4.911   7.459   7.793 -0.1241 -0.6017  0.3290
   46MOL   H32925619   5.138   7.406   7.829  0.2252  0.6670  0.7621
   46MOL   H33025620   5.368   7.466   7.866  1.6305  0.7633  2.0976
   46MOL   H33125621   5.710   7.648   8.047 -1.6649  0.2412  0.2288
   46MOL   H33225622   5.724   7.734   7.903  1.1928  0.4150  0.0909
   46MOL   H33325623   5.870   7.509   7.948 -1.6016 -1.1349  2.5534
   46MOL   H33425624   5.720   7.428   7.882  0.8301 -0.2847 -2.3180
   46MOL   H33525625   5.244   7.860   7.984 -0.0235 -0.2214  1.6588
   46MOL   H33625626   5.011   7.928   7.933  2.2757 -0.7609  0.1816
   46MOL   H33725627   4.775   7.878   7.869  1.0595  1.1782 -1.6198
   46MOL   O33825628   5.982   7.681   7.811  0.0557 -0.0395  0.2069
   46MOL   C33925629   5.919   7.620   7.723  0.6729 -0.7450 -0.2787
   46MOL   O34025630   5.822   7.537   7.747 -0.2270 -0.0518  0.0303
   46MOL   C34125631   5.937   7.637   7.578  0.0920  0.1552 -0.9030
   46MOL   C34225632   6.032   7.734   7.537 -0.2360 -0.1804  0.1595
   46MOL   C34325633   6.049   7.762   7.401  0.6917  0.2825 -0.2112
   46MOL   C34425634   6.159   7.840   7.364 -0.2034 -0.4490 -0.1197
   46MOL   C34525635   6.184   7.861   7.225  0.1324  0.0393  0.0774
   46MOL   C34625636   6.099   7.806   7.130 -0.0176  0.7014 -0.0509
   46MOL   C34725637   6.134   7.820   6.988  0.0308 -0.2177  0.1252
   46MOL   O34825638   6.262   7.857   6.963 -0.1435 -0.4503 -0.0976
   46MOL   C34925639   6.310   7.839   6.828 -0.0522 -0.4192  0.2531
   46MOL   C35025640   6.258   7.956   6.741 -0.3439  0.1250  0.0839
   46MOL   O35125641   6.059   7.776   6.899 -0.5512  0.4944  0.1590
   46MOL   C35225642   5.987   7.727   7.167  0.4210 -0.6895 -0.1657
   46MOL   C35325643   5.963   7.701   7.309 -0.0687 -0.4098 -0.0820
   46MOL   C35425644   5.870   7.613   7.347 -0.1306  0.2340 -0.2415
   46MOL   C35525645   5.856   7.569   7.485  0.2236  0.3428  0.5938
   46MOL   H35625646   6.087   7.786   7.615 -0.0693 -1.3867  0.8596
   46MOL   H35725647   6.226   7.875   7.441  1.1597 -1.9030 -0.6357
   46MOL   H35825648   6.261   7.930   7.193 -2.1364  1.8963 -1.5564
   46MOL   H35925649   6.265   7.748   6.788 -1.5986  1.1207 -1.6259
   46MOL   H36025650   6.418   7.831   6.825 -0.0279 -0.0090 -0.1004
   46MOL   H36125651   6.191   8.017   6.801 -1.2531 -0.2032 -0.5930
   46MOL   H36225652   6.337   8.028   6.716  1.0387 -0.7285  1.8482
   46MOL   H36325653   5.923   7.674   7.097 -0.2091 -1.6451  1.1067
   46MOL   H36425654   5.809   7.566   7.271  0.2152 -1.4906  0.5066
   46MOL   H36525655   5.778   7.499   7.510 -0.8126  1.6152  0.9430
   46MOL   O36625656   6.414   7.906   6.519  0.3071  0.1354  0.0712
   46MOL   C36725657   6.291   7.895   6.507  0.0482  0.2477 -0.4166
   46MOL   O36825658   6.200   7.912   6.618 -0.5167 -0.7622 -0.1566
   46MOL   C36925659   6.218   7.854   6.385 -0.6716 -0.5190  0.2744
   46MOL   C37025660   6.290   7.837   6.263 -0.0175  0.1732 -0.2070
   46MOL   C37125661   6.221   7.813   6.145 -0.0857 -0.1343 -0.3846
   46MOL   C37225662   6.294   7.795   6.032 -0.2637 -0.8461  0.6981
   46MOL   C37325663   6.230   7.769   5.911  0.9630 -0.3235  0.2636
   46MOL   C37425664   6.087   7.772   5.907 -0.2480 -0.4498 -0.6291
   46MOL   C37525665   6.016   7.761   5.780  0.7750  0.1763  0.2511
   46MOL   O37625666   5.890   7.817   5.776  0.0392 -0.2867 -0.2218
   46MOL   C37725667   5.814   7.814   5.656  0.1836  0.5995 -0.9081
   46MOL   C37825668   5.665   7.816   5.688  0.1145  0.3220 -0.3679
   46MOL   O37925669   6.068   7.704   5.687 -0.3943 -0.5655 -0.4987
   46MOL   C38025670   6.016   7.789   6.021  0.0306 -0.3659  0.6543
   46MOL   C38125671   6.083   7.803   6.147 -0.3330  0.0705 -0.2317
   46MOL   C38225672   6.008   7.809   6.268  0.5200  0.4975  0.4633
   46MOL   C38325673   6.078   7.835   6.390 -0.4025  0.1067  0.1617
   46MOL   H38425674   6.398   7.834   6.267  0.0604 -2.1020 -2.5952
   46MOL   H38525675   6.402   7.796   6.038 -0.3103 -0.7632  1.5041
   46MOL   H38625676   6.286   7.752   5.821  0.5758  0.7989 -0.2057
   46MOL   H38725677   5.831   7.721   5.600 -1.1155  0.0526 -0.4211
   46MOL   H38825678   5.848   7.899   5.597  0.0525  0.6737 -0.8735
   46MOL   H38925679   5.628   7.714   5.675  2.6356 -0.3180 -3.0487
   46MOL   H39025680   5.648   7.846   5.791  0.3626 -0.0816 -0.2125
   46MOL   H39125681   5.908   7.793   6.022  0.0937  2.4880 -0.5548
   46MOL   H39225682   5.900   7.806   6.263  0.4629  1.0613  1.2604
   46MOL   H39325683   6.021   7.849   6.481  1.1626 -2.8422  1.6802
   46MOL   O39425684   5.649   8.102   5.682 -0.0584 -0.5127  0.6901
   46MOL   C39525685   5.592   8.037   5.597 -0.5790  0.5137 -0.6258
   46MOL   O39625686   5.593   7.899   5.601 -0.0600  0.2441 -0.1263
   46MOL   C39725687   5.513   8.095   5.485  0.2083  0.6289 -0.1910
   46MOL   C39825688   5.522   8.232   5.467 -0.6832 -0.2384 -0.3033
   46MOL   C39925689   5.454   0.040   5.356  0.1752 -0.0124  0.1448
   46MOL   C40025690   5.470   0.182   5.346  0.7883 -0.4420  0.3938
   46MOL   C40125691   5.417   0.241   5.228  0.2892 -0.5860 -0.0829
   46MOL   C40225692   5.347   0.163   5.135 -0.4900 -0.2476  0.3754
   46MOL   C40325693   5.300   0.229   5.010 -0.6618 -0.0970  0.2684
   46MOL   O40425694   5.349   0.357   5.000 -0.5060 -0.6009 -0.5432
   46MOL   C40525695   5.296   0.454   4.910 -0.2381  0.4403  0.2059
   46MOL   C40625696   5.372   0.453   4.774 -0.4565  0.3867 -0.3015
   46MOL   O40725697   5.227   0.180   4.926  0.0347  0.2296 -0.3097
   46MOL   C40825698   5.331   0.025   5.154  0.7867 -0.1403 -0.5304
   46MOL   C40925699   5.379   8.209   5.267  0.2022 -0.3020 -0.7054
   46MOL   C41025700   5.364   8.072   5.295  0.8558  0.2280  0.7318
   46MOL   C41125701   5.429   8.016   5.405 -1.2275 -0.3903  0.0785
   46MOL   H41225702   5.583   0.037   5.537 -1.0497 -1.1546  0.7410
   46MOL   H41325703   5.521   0.233   5.426  1.5146  0.6776 -0.7699
   46MOL   H41425704   5.436   0.347   5.218 -0.1049 -0.4345  0.7510
   46MOL   H41525705   5.301   0.555   4.950  4.0646 -0.3943  2.0798
   46MOL   H41625706   5.193   0.420   4.897 -0.4941  0.6325  1.5702
   46MOL   H41725707   5.417   0.354   4.768  0.8369  0.9862 -0.5755
   46MOL   H41825708   5.310   0.468   4.686 -0.5414  0.1772 -0.2782
   46MOL   H41925709   5.275   8.213   5.085 -2.0234 -0.2834  1.7720
   46MOL   H42025710   5.294   8.013   5.237  1.0757  1.0972 -0.4417
   46MOL   H42125711   5.433   7.909   5.425  1.7567 -0.4711 -0.7451
   46MOL   O42225712   5.641   0.395   4.787 -0.0602 -0.1178 -0.1683
   46MOL   C42325713   5.599   0.508   4.818 -0.1993 -0.3028  0.4304
   46MOL   O42425714   5.477   0.554   4.791  0.9179 -0.2639  0.0987
   46MOL   C42525715   5.679   0.617   4.869  0.1190 -0.6029  0.0582
   46MOL   C42625716   5.797   0.590   4.945  0.2122 -0.8767  0.7881
   46MOL   C42725717   5.876   0.695   4.996 -0.7474 -0.1449  1.0644
   46MOL   C42825718   5.998   0.662   5.050 -0.1343  0.0927  0.0352
   46MOL   C42925719   6.093   0.756   5.092  0.1677 -0.6717 -0.8109
   46MOL   C43025720   6.059   0.896   5.080 -0.6342  1.2399  0.5027
   46MOL   C43125721   6.159   1.005   5.105  0.5328 -0.2485  0.3582
   46MOL   O43225722   6.119   1.122   5.067 -0.7980  0.4094 -0.0853
   46MOL   C43325723   6.191   1.236   5.099 -0.2738 -0.2642 -0.0654
   46MOL   C43425724   6.312   1.262   5.008 -0.4809 -0.1067  0.0578
   46MOL   O43525725   6.264   0.995   5.167 -0.5130 -0.5319 -0.2560
   46MOL   C43625726   5.937   0.927   5.019 -0.2247  0.0822  0.5173
   46MOL   C43725727   5.847   0.828   4.971  0.3373  0.4586 -0.0719
   46MOL   C43825728   5.730   0.856   4.898  0.3813  0.4207  0.1879
   46MOL   C43925729   5.645   0.748   4.844 -1.2404 -0.5379  0.3460
   46MOL   H44025730   5.833   0.492   4.973  0.6723 -1.0856 -0.4878
   46MOL   H44125731   6.019   0.556   5.053 -0.3754  0.0712  2.3848
   46MOL   H44225732   6.186   0.715   5.130 -1.3125 -2.7630  0.6591
   46MOL   H44325733   6.226   1.244   5.202  1.3945 -0.6820 -0.5853
   46MOL   H44425734   6.129   1.323   5.075  1.8777  1.1881 -0.4421
   46MOL   H44525735   6.315   1.189   4.928  1.7853  0.8873 -0.8229
   46MOL   H44625736   6.310   1.358   4.957  0.5369  0.5722  1.2599
   46MOL   H44725737   5.905   1.019   4.972 -0.1813 -0.2200 -0.1049
   46MOL   H44825738   5.711   0.961   4.878  0.5908  0.1924 -1.2593
   46MOL   H44925739   5.564   0.777   4.780 -1.9621  1.5584  2.1436
   46MOL   O45025740   6.414   1.458   5.179 -0.1288  0.0804 -0.0679
   46MOL   C45125741   6.476   1.348   5.155 -0.5666 -0.0349  0.5810
   46MOL   O45225742   6.433   1.248   5.083 -0.5628  0.2298 -0.2992
   46MOL   C45325743   6.600   1.317   5.219 -0.0201  0.1317  0.0729
   46MOL   C45425744   6.622   1.195   5.292  0.1312  0.3657 -0.1833
   46MOL   C45525745   6.750   1.160   5.340  0.6603  0.1398 -0.0846
   46MOL   C45625746   6.766   1.033   5.399 -0.5429 -0.6508  0.7176
   46MOL   C45725747   6.897   0.992   5.437 -0.0729  0.2725  0.0145
   46MOL   C45825748   7.002   1.077   5.412 -0.0179  0.6238  0.2253
   46MOL   C45925749   7.145   1.028   5.445 -0.1501 -0.0473 -0.2424
   46MOL   O46025750   7.229   1.134   5.459 -0.0600  0.4054 -0.0661
   46MOL   C46125751   7.346   1.122   5.531  0.3280 -0.1170  0.2297
   46MOL   C46225752   7.381   1.251   5.595 -0.2737  0.3637 -0.6717
   46MOL   O46325753   7.175   0.916   5.475 -0.4696  0.0242 -0.5405
   46MOL   C46425754   6.984   1.204   5.352 -0.1467 -0.9295 -0.3428
   46MOL   C46525755   6.860   1.251   5.312  0.6459  0.3077  0.1684
   46MOL   C46625756   6.838   1.375   5.254 -0.6430  0.2400  0.9159
   46MOL   C46725757   6.710   1.404   5.202  0.0594 -0.6068 -0.0834
   46MOL   H46825758   6.532   1.136   5.297  0.3720  0.0199  0.1196
   46MOL   H46925759   6.682   0.968   5.420 -2.2870  1.4066  0.2915
   46MOL   H47025760   6.918   0.904   5.496  2.9863  1.8839  1.4947
   46MOL   H47125761   7.423   1.081   5.465  0.3011 -0.5122  0.4442
   46MOL   H47225762   7.332   1.044   5.606 -2.0283  2.0315  2.0957
   46MOL   H47325763   7.321   1.264   5.685  2.1728  1.7108  0.8177
   46MOL   H47425764   7.487   1.244   5.621 -0.3800  2.1827  0.3181
   46MOL   H47525765   7.061   1.271   5.318 -0.2564 -0.6108  0.0378
   46MOL   H47625766   6.920   1.443   5.237  0.3421 -0.5327  2.4819
   46MOL   H47725767   6.695   1.494   5.144  0.2822 -0.6392 -0.1930
   46MOL   O47825768   7.166   1.415   5.560 -0.1095  0.3036  0.4722
   46MOL   C47925769   7.269   1.437   5.496  0.0500  0.2800  0.7254
   46MOL   O48025770   7.380   1.366   5.512 -0.0123 -0.3390  0.1647
   46MOL   C48125771   7.274   1.544   5.396 -0.5196 -0.4472  0.4018
   46MOL   C48225772   7.156   1.611   5.353  0.3241  0.1214 -0.0166
   46MOL   C48325773   7.155   1.716   5.261  0.1074 -0.0451  0.2576
   46MOL   C48425774   7.036   1.778   5.228 -0.1392 -0.3952 -0.2983
   46MOL   C48525775   7.043   1.877   5.127 -0.5808 -0.5419 -0.5522
   46MOL   C48625776   7.166   1.920   5.077 -1.0469 -0.5404  0.3001
   46MOL   C48725777   7.169   2.024   4.961 -0.0156 -0.2986 -0.1531
   46MOL   O48825778   7.286   2.083   4.946  0.0536 -0.3814 -0.6738
   46MOL   C48925779   7.311   2.190   4.858 -0.0882 -0.2288 -0.2357
   46MOL   C49025780   7.267   2.321   4.927  0.3422  0.1124  0.1777
   46MOL   O49125781   7.073   2.057   4.894  0.4037 -0.3298  0.3015
   46MOL   C49225782   7.288   1.864   5.127  0.1159  0.5941  0.0985
   46MOL   C49325783   7.282   1.764   5.223 -0.1924 -0.3576  0.2761
   46MOL   C49425784   7.400   1.707   5.268  0.0096  0.0420  0.4692
   46MOL   C49525785   7.396   1.596   5.355 -0.2848 -0.1463  0.0138
   46MOL   H49625786   7.061   1.575   5.389  0.0612  0.5090 -0.3169
   46MOL   H49725787   6.943   1.745   5.272  0.9499  0.0553  2.4305
   46MOL   H49825788   6.954   1.921   5.085 -0.7382  0.8634  1.1956
   46MOL   H49925789   7.244   2.179   4.773 -2.2235  0.7757  1.2601
   46MOL   H50025790   7.419   2.194   4.842  0.3956 -4.1496  1.4339
   46MOL   H50125791   7.322   2.402   4.879  0.4474 -0.1021 -0.0613
   46MOL   H50225792   7.160   2.335   4.915  0.6983  3.3690  0.2951
   46MOL   H50325793   7.383   1.907   5.099  0.2637  1.4271  1.7991
   46MOL   H50425794   7.494   1.746   5.230  0.9825 -2.0910  0.6495
   46MOL   H50525795   7.485   1.550   5.395 -0.0081  0.4904  0.1443
   46MOL   O50625796   7.526   2.356   5.057 -0.0349  0.0904 -0.2882
   46MOL   C50725797   7.421   2.324   5.120  0.0833 -0.4291  0.3598
   46MOL   O50825798   7.300   2.327   5.069 -0.3166 -0.3417  0.0787
   46MOL   C50925799   7.416   2.303   5.269  1.0710 -0.4869 -0.5124
   46MOL   C51025800   7.524   2.342   5.351 -0.3698 -0.2648 -0.4856
   46MOL   C51125801   7.520   2.334   5.491 -0.6021 -0.2531 -0.5412
   46MOL   C51225802   7.620   2.397   5.566  0.5725 -1.5891 -0.3784
   46MOL   C51325803   7.633   2.372   5.699  0.5710  0.2261  0.5372
   46MOL   C51425804   7.533   2.302   5.769 -0.0055 -0.0917  0.2727
   46MOL   C51525805   7.537   2.280   5.909  0.0025 -0.0537 -0.1027
   46MOL   O51625806   7.648   2.320   5.963 -0.7092 -0.0248  0.2263
   46MOL   C51725807   7.657   2.361   6.098  0.2758 -0.1164  0.1315
   46MOL   C51825808   7.680   2.513   6.084 -0.4111 -0.0714  0.4685
   46MOL   O51925809   7.445   2.237   5.983 -0.5155  0.3264 -0.0859
   46MOL   C52025810   7.430   2.245   5.689 -0.0665 -0.2843  0.3397
   46MOL   C52125811   7.417   2.252   5.549  0.5799 -0.0383 -0.1796
   46MOL   C52225812   7.322   2.190   5.467 -0.4550  0.1646  0.3135
   46MOL   C52325813   7.316   2.224   5.327  0.8849 -0.0143  0.1848
   46MOL   H52425814   7.609   2.391   5.304  0.2817 -0.5430  0.3946
   46MOL   H52525815   7.695   2.454   5.513 -2.5804  1.3843 -1.8739
   46MOL   H52625816   7.718   2.416   5.750  1.2451  0.5514 -0.8514
   46MOL   H52725817   7.742   2.313   6.146  1.1976  1.4333  0.0978
   46MOL   H52825818   7.575   2.323   6.159  0.5696  0.8804  1.1765
   46MOL   H52925819   7.707   2.560   6.178  0.3310  1.0753 -0.3040
   46MOL   H53025820   7.757   2.531   6.009  1.9731 -1.0091  2.5960
   46MOL   H53125821   7.363   2.185   5.750  0.5322 -0.3501  0.9447
   46MOL   H53225822   7.251   2.129   5.521  2.1081 -2.9267  0.3350
   46MOL   H53325823   7.232   2.196   5.266  0.9051 -1.2885  0.7371
   46MOL   O53425824   7.485   2.614   6.253  0.8265 -0.1248  0.3307
   46MOL   C53525825   7.461   2.609   6.128  0.2010 -0.6368 -0.0885
   46MOL   O53625826   7.556   2.569   6.039 -0.0953  0.1907 -0.3406
   46MOL   C53725827   7.332   2.639   6.054  0.4158  0.2970 -0.2008
   46MOL   C53825828   7.318   2.639   5.907  1.1161  0.8580  0.5219
   46MOL   C53925829   7.196   2.683   5.843 -0.4197  0.1477  0.9257
   46MOL   C54025830   7.189   2.680   5.700  0.1546 -0.3327 -0.2067
   46MOL   C54125831   7.076   2.731   5.641 -0.3916  0.2427 -0.6478
   46MOL   C54225832   6.971   2.783   5.719 -0.2718 -0.1521  0.5328
   46MOL   C54325833   6.843   2.837   5.661  0.2458  0.4727 -0.1387
   46MOL   O54425834   6.817   2.794   5.539  0.4956 -0.1738  0.4139
   46MOL   C54525835   6.696   2.838   5.477  0.3147  0.7899  0.1351
   46MOL   C54625836   6.686   2.809   5.327  0.2254 -0.4078 -0.3310
   46MOL   O54725837   6.755   2.907   5.726 -0.3113 -0.8807 -0.4800
   46MOL   C54825838   6.978   2.785   5.858 -0.5524 -1.0692 -0.2695
   46MOL   C54925839   7.090   2.731   5.923  0.1170  0.1694  0.1061
   46MOL   C55025840   7.106   2.740   6.060  0.8259  0.5617 -0.3651
   46MOL   C55125841   7.223   2.688   6.133  0.9057 -0.4894 -1.0226
   46MOL   H55225842   7.407   2.616   5.852  1.5138  2.8549  0.2985
   46MOL   H55325843   7.265   2.626   5.646 -1.2363 -3.1359  0.5460
   46MOL   H55425844   7.055   2.713   5.536  0.1573 -2.3702 -0.3343
   46MOL   H55525845   6.699   2.946   5.487  1.4526  0.7547  0.2247
   46MOL   H55625846   6.612   2.800   5.536 -1.0044  4.2087  0.5744
   46MOL   H55725847   6.686   2.703   5.303  1.4656 -0.6939  0.8945
   46MOL   H55825848   6.775   2.855   5.285 -0.1809  0.4625 -0.2564
   46MOL   H55925849   6.903   2.819   5.928 -2.4544 -3.9434 -0.7793
   46MOL   H56025850   7.020   2.787   6.104 -0.1536 -0.1111 -1.5459
   46MOL   H56125851   7.232   2.707   6.239  0.4378  2.2679 -1.4427
   46MOL   H56225852   6.597   2.858   5.287  0.5246 -0.7987 -1.4813
   47MOL     O125853   1.370   7.776   1.558  0.4712  0.2070 -0.3624
   47MOL     C225854   1.310   7.836   1.476 -0.0091  0.1157 -0.3786
   47MOL     O325855   1.346   7.957   1.429  0.3231 -0.0749 -0.6394
   47MOL     C425856   1.191   7.782   1.406 -0.3355 -0.0397 -0.6212
   47MOL     C525857   1.070   7.854   1.388  0.3074  0.5342  0.6780
   47MOL     C625858   0.948   7.785   1.351 -0.0936 -0.0687 -0.9965
   47MOL     C725859   0.832   7.855   1.315 -0.0923  0.4367 -0.4707
   47MOL     C825860   0.723   7.792   1.258  0.5246  1.4123  0.4666
   47MOL     C925861   0.723   7.651   1.242 -0.6466 -0.8149  0.1369
   47MOL    C1025862   0.606   7.575   1.191  0.1142 -0.1646 -0.6352
   47MOL    O1125863   0.630   7.434   1.163  0.2226 -0.6197 -0.0859
   47MOL    C1225864   0.523   7.356   1.111  0.3340 -0.2983  0.3958
   47MOL    C1325865   0.606   7.275   1.010  0.5047  0.4941  0.7450
   47MOL    O1425866   0.500   7.634   1.186  0.4106 -0.2270  0.0775
   47MOL    C1525867   0.843   7.579   1.264 -0.2884  0.0241 -0.8513
   47MOL    C1625868   0.955   7.644   1.325 -0.1429 -0.0666 -0.0413
   47MOL    C1725869   1.076   7.577   1.336 -0.0288 -0.0128  0.0005
   47MOL    C1825870   1.193   7.643   1.376  0.7118 -0.9279  0.3179
   47MOL    H1925871   1.075   7.959   1.414 -0.1278  1.4061 -2.4579
   47MOL    H2025872   0.831   7.961   1.339 -4.0331 -0.3488  3.4832
   47MOL    H2125873   0.631   7.847   1.241 -0.5716  0.1808  2.2318
   47MOL    H2225874   0.485   7.303   1.198 -1.4117  1.5321  0.8139
   47MOL    H2325875   0.438   7.409   1.067  0.6890  0.0136  0.0879
   47MOL    H2425876   0.644   7.330   0.924 -1.8629 -0.7698 -1.1444
   47MOL    H2525877   0.699   7.240   1.057  0.8354  1.5150  0.8676
   47MOL    H2625878   0.854   7.475   1.237  2.7997 -0.2890  1.2626
   47MOL    H2725879   1.079   7.470   1.319  3.4847 -0.0070  0.2678
   47MOL    H2825880   1.280   7.583   1.396  1.4215  0.5362  1.7231
   47MOL    H2925881   1.437   7.969   1.450  0.7537 -3.9781  0.1314
   47MOL    O3025882   0.413   7.273   0.822  0.1021  0.6546 -0.4196
   47MOL    C3125883   0.449   7.164   0.868  0.0526 -0.2181  0.2421
   47MOL    O3225884   0.539   7.154   0.967 -0.3545  0.2978 -0.2727
   47MOL    C3325885   0.383   7.030   0.832 -0.6220 -0.4520 -0.4741
   47MOL    C3425886   0.246   7.027   0.791 -0.5474 -0.0660  0.4653
   47MOL    C3525887   0.187   6.901   0.776  0.5090 -0.2053  0.3675
   47MOL    C3625888   0.050   6.892   0.749  0.7073  0.2274 -0.2248
   47MOL    C3725889   8.229   6.767   0.751 -0.5451 -0.0418 -0.0830
   47MOL    C3825890   0.059   6.653   0.781  0.2067  0.2233 -0.4029
   47MOL    C3925891   0.001   6.512   0.790 -0.0544 -0.1297 -0.6141
   47MOL    O4025892   8.123   6.520   0.749 -0.2992 -0.1166  0.4272
   47MOL    C4125893   8.047   6.405   0.754 -0.4366 -0.1627  0.2345
   47MOL    C4225894   7.988   6.375   0.897  0.3593 -0.2111 -0.1353
   47MOL    O4325895   0.055   6.414   0.842 -0.5968 -0.4158 -0.7729
   47MOL    C4425896   0.198   6.665   0.793 -0.2081  0.5554 -0.6794
   47MOL    C4525897   0.261   6.784   0.799  0.5202  0.6387  0.3291
   47MOL    C4625898   0.397   6.785   0.836 -0.2166 -0.2890  0.2741
   47MOL    C4725899   0.459   6.912   0.851  0.3399 -0.2521 -0.0195
   47MOL    H4825900   0.190   7.119   0.782 -1.1456 -0.5635 -1.1966
   47MOL    H4925901   8.243   6.984   0.745 -1.6492 -1.1966 -0.7637
   47MOL    H5025902   8.121   6.768   0.753 -0.5778 -0.4564 -1.3017
   47MOL    H5125903   8.105   6.317   0.726 -0.6120  0.8149 -3.4352
   47MOL    H5225904   7.973   6.416   0.675  0.4815 -1.3789 -0.8047
   47MOL    H5325905   8.057   6.362   0.980 -0.3745  0.8866  0.6728
   47MOL    H5425906   7.922   6.459   0.921  0.2747 -0.7675  1.5935
   47MOL    H5525907   0.254   6.572   0.793  1.2529  1.4231  0.1934
   47MOL    H5625908   0.449   6.692   0.856  0.0939 -0.7804 -2.5914
   47MOL    H5725909   0.553   6.914   0.903  0.6275 -1.0883 -0.5074
   47MOL    O5825910   7.743   6.369   0.790  0.2415 -0.2198 -0.0319
   47MOL    C5925911   7.777   6.269   0.847 -1.0072  0.0833  0.5095
   47MOL    O6025912   7.903   6.264   0.903  0.1920  0.4847 -0.5543
   47MOL    C6125913   7.705   6.137   0.839 -0.0969 -0.2692 -0.3801
   47MOL    C6225914   7.770   6.014   0.881  0.3003  0.0534 -0.5901
   47MOL    C6325915   7.706   5.888   0.866 -0.0880 -0.1684  0.4976
   47MOL    C6425916   7.769   5.772   0.906 -0.4048 -0.6707 -0.4282
   47MOL    C6525917   7.713   5.642   0.888  1.1330  0.1582  0.6576
   47MOL    C6625918   7.577   5.639   0.840 -0.1868  0.0878 -0.3051
   47MOL    C6725919   7.506   5.513   0.835 -0.3752 -0.8124 -0.3751
   47MOL    O6825920   7.383   5.528   0.791 -0.1241  0.5456  0.5975
   47MOL    C6925921   7.309   5.408   0.764  0.0764 -0.1278 -0.4935
   47MOL    C7025922   7.188   5.447   0.682  0.2650  0.1024 -0.2320
   47MOL    O7125923   7.550   5.408   0.875 -0.2041 -0.1096  0.6042
   47MOL    C7225924   7.510   5.760   0.806 -0.0925  0.7321 -0.6615
   47MOL    C7325925   7.572   5.887   0.815 -0.0383  0.4457 -0.8124
   47MOL    C7425926   7.502   6.007   0.775 -0.3201 -0.0910  0.2998
   47MOL    C7525927   7.575   6.131   0.786  0.2281 -0.3226  0.3313
   47MOL    H7625928   7.872   6.018   0.916  0.8633 -1.0788 -2.0603
   47MOL    H7725929   7.868   5.768   0.950 -0.4701  0.1693 -0.2003
   47MOL    H7825930   7.772   5.553   0.904 -0.1688 -0.3880  2.6978
   47MOL    H7925931   7.282   5.361   0.859 -2.1584  5.5602  1.9244
   47MOL    H8025932   7.374   5.344   0.706 -0.3258  0.0668 -1.1630
   47MOL    H8125933   7.220   5.521   0.610  0.2979  0.6656  0.3528
   47MOL    H8225934   7.158   5.361   0.623  0.5958 -1.6255  2.0178
   47MOL    H8325935   7.415   5.761   0.756  0.3331  0.4599 -1.4870
   47MOL    H8425936   7.402   6.001   0.736 -0.6182  3.1611  0.4237
   47MOL    H8525937   7.514   6.217   0.764  0.2543 -0.5613 -0.7162
   47MOL    O8625938   6.969   5.574   0.591 -0.3466 -0.1928  0.2742
   47MOL    C8725939   6.988   5.568   0.713 -0.6984 -0.0692  0.2533
   47MOL    O8825940   7.085   5.495   0.769 -0.3195  0.1988  0.0011
   47MOL    C8925941   6.899   5.629   0.816 -0.0241 -0.1399  0.3429
   47MOL    C9025942   6.893   5.589   0.952  0.1039  0.3050  0.1505
   47MOL    C9125943   6.808   5.651   1.050  0.1336  0.1886  0.0495
   47MOL    C9225944   6.800   5.605   1.184  0.1219  0.3860 -0.3405
   47MOL    C9325945   6.714   5.669   1.276  0.1184  0.0828 -0.8244
   47MOL    C9425946   6.632   5.779   1.244  0.3236 -0.5603 -0.4259
   47MOL    C9525947   6.551   5.854   1.338 -0.2361 -0.2255  0.1916
   47MOL    O9625948   6.455   5.924   1.277  0.0114  0.3663 -0.7772
   47MOL    C9725949   6.383   6.021   1.349  0.1314 -0.3359 -0.8415
   47MOL    C9825950   6.474   6.146   1.352 -0.0063  0.1726  0.7666
   47MOL    O9925951   6.565   5.846   1.459 -0.6444  0.7731  0.3366
   47MOL   C10025952   6.631   5.810   1.100 -0.7614  0.3588  0.0959
   47MOL   C10125953   6.725   5.754   1.010 -0.0694  0.6729 -0.2032
   47MOL   C10225954   6.734   5.804   0.878  0.4013  0.0827 -0.0760
   47MOL   C10325955   6.813   5.735   0.779  0.6732 -0.1937 -1.0346
   47MOL   H10425956   6.965   5.515   0.984  0.3545  0.1803 -0.6886
   47MOL   H10525957   6.865   5.525   1.218 -1.0666 -0.6809 -0.5183
   47MOL   H10625958   6.693   5.632   1.375  0.1746  1.4397 -0.2949
   47MOL   H10725959   6.356   5.994   1.451  0.8540  3.0569  0.3112
   47MOL   H10825960   6.292   6.044   1.295  0.5192  1.2815 -0.8319
   47MOL   H10925961   6.414   6.232   1.383 -0.5671  0.0970 -0.0880
   47MOL   H11025962   6.560   6.115   1.411  0.2449  1.9349  1.3634
   47MOL   H11125963   6.572   5.893   1.063  0.9398  1.4866 -0.1549
   47MOL   H11225964   6.673   5.888   0.849 -0.9592 -0.8626  0.0060
   47MOL   H11325965   6.815   5.772   0.678  1.6242 -0.5517 -1.1586
   47MOL   O11425966   6.355   6.303   1.161  0.0753 -0.1435  0.0475
   47MOL   C11525967   6.461   6.242   1.133 -0.0128 -0.1529  0.1248
   47MOL   O11625968   6.522   6.170   1.217 -0.0694 -0.2120 -0.7627
   47MOL   C11725969   6.525   6.253   0.998 -0.2071 -0.8996  0.1521
   47MOL   C11825970   6.647   6.189   0.963  0.1418  0.3277  0.3163
   47MOL   C11925971   6.705   6.216   0.836  0.2705  0.9366  0.1185
   47MOL   C12025972   6.824   6.154   0.790 -0.3367  0.2707  0.2012
   47MOL   C12125973   6.870   6.164   0.657 -0.2307 -0.4493 -0.4512
   47MOL   C12225974   6.808   6.246   0.563 -0.1112 -0.1154  0.0245
   47MOL   C12325975   6.861   6.282   0.428 -0.1787  0.5780 -0.1745
   47MOL   O12425976   6.902   6.176   0.366 -0.2563  0.5735  0.4645
   47MOL   C12525977   6.978   6.173   0.245 -0.5456  0.2681  0.4831
   47MOL   C12625978   6.913   6.248   0.126  0.0044 -0.5349 -0.1504
   47MOL   O12725979   6.876   6.393   0.386 -1.1405 -0.1764 -0.3767
   47MOL   C12825980   6.701   6.317   0.612  0.4495  0.4437  0.1836
   47MOL   C12925981   6.643   6.303   0.741 -0.0390  0.4153  0.1845
   47MOL   C13025982   6.519   6.361   0.772 -0.0354  0.7647 -0.3488
   47MOL   C13125983   6.460   6.331   0.895  0.3041 -0.8438 -0.1892
   47MOL   H13225984   6.703   6.134   1.038  0.8008  0.8917  0.2467
   47MOL   H13325985   6.875   6.084   0.855 -0.6221  0.8594  1.0712
   47MOL   H13425986   6.958   6.110   0.625  1.4793  1.1756  1.4155
   47MOL   H13525987   6.988   6.066   0.227  1.1546  0.0577  2.4632
   47MOL   H13625988   7.079   6.204   0.270 -0.1996 -1.7561  1.7076
   47MOL   H13725989   6.837   6.320   0.156 -0.4699 -0.8873 -0.4890
   47MOL   H13825990   6.989   6.298   0.068 -0.8532  1.4484  0.4059
   47MOL   H13925991   6.646   6.387   0.551 -0.6773 -0.3724  0.2631
   47MOL   H14025992   6.483   6.432   0.698  0.6250  0.7116 -0.7307
   47MOL   H14125993   6.375   6.393   0.918  1.9386  1.2145  0.4392
   47MOL   O14225994   6.656   6.151   0.164  0.1910 -0.5760  0.2123
   47MOL   C14325995   6.725   6.127   0.062  0.1015 -0.6754  0.7030
   47MOL   O14425996   6.850   6.150   0.047 -0.2460  0.0918  0.0561
   47MOL   C14525997   6.667   6.074   8.183 -0.0173 -0.3678  0.4166
   47MOL   C14625998   6.528   6.066   8.170 -0.3067 -0.6261  0.9869
   47MOL   C14725999   6.475   6.020   8.050 -0.4225  0.2179 -0.2550
   47MOL   C14826000   6.337   6.000   8.027 -0.5403 -0.2826  0.2994
   47MOL   C14926001   6.285   5.961   7.905 -0.4271  0.6446  0.0542
   47MOL   C15026002   6.367   5.935   7.798 -0.2499 -0.0655  0.0450
   47MOL   C15126003   6.318   5.894   7.666  0.4412  0.0227  0.1736
   47MOL   O15226004   6.217   5.975   7.615  0.6626  0.9664  0.2450
   47MOL   C15326005   6.155   5.949   7.490  0.4934 -0.9180 -0.1671
   47MOL   C15426006   6.224   6.030   7.379 -0.5204  0.3422  0.1319
   47MOL   O15526007   6.368   5.801   7.611  0.3457  0.0197  0.1597
   47MOL   C15626008   6.503   5.954   7.820 -0.0190 -1.0401 -0.0944
   47MOL   C15726009   6.559   5.978   7.946 -0.5647  0.0158  0.2162
   47MOL   C15826010   6.698   5.992   7.951  0.2296  0.5525 -0.7281
   47MOL   C15926011   6.752   6.044   8.069 -0.1063  0.3674  0.6233
   47MOL   H16026012   6.467   6.092   0.006 -1.7858 -1.6687  0.2810
   47MOL   H16126013   6.270   6.012   8.111  1.2182  0.7993  1.5858
   47MOL   H16226014   6.179   5.945   7.899 -0.0041 -2.2692 -0.3392
   47MOL   H16326015   6.049   5.974   7.494  1.4168  3.9552 -1.8348
   47MOL   H16426016   6.166   5.844   7.466  2.0638 -0.5222 -1.2050
   47MOL   H16526017   6.185   6.015   7.278 -1.2389  0.9961  0.3126
   47MOL   H16626018   6.217   6.136   7.403 -1.7983  0.0405  1.1356
   47MOL   H16726019   6.570   5.936   7.737 -2.2285 -1.6174 -1.8180
   47MOL   H16826020   6.763   5.971   7.868 -0.5415 -0.2270 -1.1419
   47MOL   H16926021   6.856   6.071   8.069  0.6362 -2.2876 -2.0035
   47MOL   O17026022   6.420   6.145   7.213  0.0288  0.7391  0.0157
   47MOL   C17126023   6.443   6.047   7.286 -0.0635 -0.6618 -0.3252
   47MOL   O17226024   6.358   5.989   7.367  0.2303  0.6139 -1.1267
   47MOL   C17326025   6.583   5.991   7.303 -0.1292  0.3797  0.4946
   47MOL   C17426026   6.686   6.075   7.296 -0.0800 -0.4568  0.4957
   47MOL   C17526027   6.819   6.031   7.325 -0.3118  0.5865  0.0691
   47MOL   C17626028   6.932   6.110   7.322 -0.8041  0.0822 -0.0153
   47MOL   C17726029   7.060   6.072   7.364  0.3424 -0.1711 -0.0760
   47MOL   C17826030   7.077   5.940   7.400  0.2913  0.2589 -0.3340
   47MOL   C17926031   7.216   5.892   7.450 -0.6909  0.5165 -0.0781
   47MOL   O18026032   7.312   5.984   7.441  0.1969 -0.2809 -0.6822
   47MOL   C18126033   7.450   5.959   7.468 -0.2969  0.0273 -0.1144
   47MOL   C18226034   7.515   5.876   7.360 -0.1933  0.4168 -0.1774
   47MOL   O18326035   7.238   5.781   7.496 -0.1525  0.2096 -0.2247
   47MOL   C18426036   6.969   5.853   7.387  0.4061 -0.7050 -0.4690
   47MOL   C18526037   6.838   5.892   7.349 -0.1308  0.0541  0.3287
   47MOL   C18626038   6.730   5.802   7.348 -0.3984 -0.1843  0.1698
   47MOL   C18726039   6.605   5.860   7.337  0.3057  0.6197  0.6009
   47MOL   H18826040   6.675   6.175   7.258 -3.2356 -1.4917 -1.4622
   47MOL   H18926041   6.915   6.215   7.302 -1.0562  0.0881  0.2375
   47MOL   H19026042   7.140   6.140   7.340 -0.2776  1.5481  2.5114
   47MOL   H19126043   7.467   5.913   7.565  0.6649  0.0883 -0.2487
   47MOL   H19226044   7.510   6.050   7.469 -0.9832  0.5698 -2.8725
   47MOL   H19326045   7.592   5.817   7.410 -1.9728  0.7451  3.1104
   47MOL   H19426046   7.451   5.800   7.316 -0.1918  1.0282 -1.2305
   47MOL   H19526047   6.996   5.750   7.408  1.5796 -0.2888  0.0692
   47MOL   H19626048   6.745   5.695   7.354 -2.0475 -0.4466 -0.0919
   47MOL   H19726049   6.516   5.800   7.353  0.5886 -0.6872 -2.4772
   47MOL   O19826050   7.386   6.009   7.160  0.3724  0.0228  0.2929
   47MOL   C19926051   7.506   6.020   7.175  0.5272  0.0411  0.4982
   47MOL   O20026052   7.582   5.957   7.271  0.4326 -0.3979  0.2822
   47MOL   C20126053   7.582   6.111   7.089 -0.4113  0.4573  0.0091
   47MOL   C20226054   7.720   6.099   7.074  0.4616  0.8161  0.8228
   47MOL   C20326055   7.791   6.207   7.018  0.2872  0.4262 -0.5957
   47MOL   C20426056   7.932   6.208   7.011 -0.2107  0.1351 -0.4977
   47MOL   C20526057   8.006   6.308   6.942 -0.0508 -0.1800 -0.7336
   47MOL   C20626058   7.935   6.413   6.879  0.2434  0.3722 -0.8525
   47MOL   C20726059   8.000   6.525   6.817 -0.4022 -0.3842  0.9931
   47MOL   O20826060   8.110   6.483   6.750 -0.7653  0.2485 -0.6430
   47MOL   C20926061   8.202   6.564   6.688  0.8102 -0.1953  0.0489
   47MOL   C21026062   0.031   6.644   6.792 -0.0256  0.6099 -0.2005
   47MOL   O21126063   7.962   6.637   6.823 -0.2275  0.7669 -0.3205
   47MOL   C21226064   7.795   6.420   6.892  0.5704 -0.6985 -0.1881
   47MOL   C21326065   7.725   6.319   6.954  0.4393  0.2253  0.1375
   47MOL   C21426066   7.585   6.321   6.956  0.8574  0.6435 -0.0782
   47MOL   C21526067   7.513   6.223   7.031 -0.5173  0.1271 -0.2065
   47MOL   H21626068   7.776   6.019   7.119  1.5729  1.0386 -0.1577
   47MOL   H21726069   7.995   6.135   7.058 -0.9067 -0.7140 -0.8666
   47MOL   H21826070   8.113   6.310   6.959 -0.1437  3.0356 -0.3034
   47MOL   H21926071   8.159   6.630   6.613  0.1838 -1.3723 -0.6321
   47MOL   H22026072   0.030   6.506   6.637  1.8997  2.7549 -1.8012
   47MOL   H22126073   0.110   6.690   6.732 -1.6601  0.8432 -2.2363
   47MOL   H22226074   8.219   6.718   6.842 -1.6674 -0.8460 -0.0047
   47MOL   H22326075   7.742   6.507   6.856 -0.8681 -1.5642 -0.1982
   47MOL   H22426076   7.530   6.403   6.913  0.4026 -1.1495 -3.1132
   47MOL   H22526077   7.406   6.215   7.042 -0.4332  0.5742  1.0717
   47MOL   O22626078   8.219   6.572   7.037  0.1653 -0.3131  0.5578
   47MOL   C22726079   0.081   6.532   6.997 -0.5761 -0.8666  0.9372
   47MOL   O22826080   0.119   6.561   6.873 -0.0767 -0.6826  0.0499
   47MOL   C22926081   0.174   6.444   7.074 -0.8409  0.2409  0.0091
   47MOL   C23026082   0.139   6.386   7.195  0.1493 -0.3034 -0.1411
   47MOL   C23126083   0.231   6.311   7.271 -0.7922 -0.0301  0.3485
   47MOL   C23226084   0.195   6.260   7.395 -0.2540  0.9429 -0.1002
   47MOL   C23326085   0.288   6.188   7.472 -0.2470 -0.5852 -0.1554
   47MOL   C23426086   0.417   6.160   7.420  0.8679 -0.5651  0.7222
   47MOL   C23526087   0.515   6.091   7.501 -0.7035  0.0716 -0.0567
   47MOL   O23626088   0.635   6.068   7.439 -0.3862  0.0650  0.4868
   47MOL   C23726089   0.743   6.006   7.513 -0.0963  0.6616  0.3530
   47MOL   C23826090   0.734   5.848   7.515 -0.0144 -0.2020 -0.5488
   47MOL   O23926091   0.484   6.060   7.618  0.4795  0.2058 -0.8610
   47MOL   C24026092   0.455   6.219   7.302  0.5199 -0.2995  0.9645
   47MOL   C24126093   0.363   6.290   7.228 -0.4329  0.0026  0.2294
   47MOL   C24226094   0.398   6.345   7.102  0.0067  0.2054  0.5513
   47MOL   C24326095   0.303   6.422   7.024 -0.4620 -0.4742  0.7623
   47MOL   H24426096   0.037   6.394   7.229  0.9635 -1.5906  2.7905
   47MOL   H24526097   0.095   6.279   7.430 -0.5728 -0.7859 -0.0354
   47MOL   H24626098   0.266   6.142   7.568 -1.9178 -1.1319 -0.7790
   47MOL   H24726099   0.749   6.041   7.616  2.0161 -0.8880  0.7891
   47MOL   H24826100   0.837   6.038   7.466  1.0363  1.9749  3.4245
   47MOL   H24926101   0.732   5.812   7.618  1.2096 -2.3667 -1.2393
   47MOL   H25026102   0.638   5.814   7.477 -0.3863  1.6480 -1.2973
   47MOL   H25126103   0.556   6.201   7.268  0.3889 -0.5720  0.7134
   47MOL   H25226104   0.499   6.325   7.068 -0.1003 -0.6755  0.7339
   47MOL   H25326105   0.334   6.472   6.934 -0.0298 -2.2061 -0.0765
   47MOL   O25426106   0.941   5.677   7.596 -0.6742 -0.2362 -0.0679
   47MOL   C25526107   0.926   5.707   7.477 -0.6873  0.2221 -0.1009
   47MOL   O25626108   0.829   5.789   7.425 -0.3589  0.4447 -0.0447
   47MOL   C25726109   1.022   5.649   7.376 -0.1819  0.6372 -0.5048
   47MOL   C25826110   1.024   5.703   7.244 -0.1062  0.3889 -0.2527
   47MOL   C25926111   1.133   5.677   7.158 -0.0716 -0.0074 -0.0418
   47MOL   C26026112   1.131   5.731   7.027 -0.9632 -0.8185  0.5977
   47MOL   C26126113   1.248   5.710   6.943 -0.3714  0.4502 -0.1200
   47MOL   C26226114   1.356   5.622   6.984  1.2221 -0.8764 -0.0603
   47MOL   C26326115   1.472   5.607   6.896  0.0226 -0.4012 -0.3961
   47MOL   O26426116   1.576   5.535   6.952  0.0684 -0.3402 -0.1219
   47MOL   C26526117   1.691   5.500   6.880 -0.1194 -0.4056  0.3856
   47MOL   C26626118   1.788   5.622   6.893  0.1538 -0.0812  0.1419
   47MOL   O26726119   1.476   5.645   6.783 -0.0248  0.1513  0.0476
   47MOL   C26826120   1.352   5.559   7.111 -0.7288  0.3417  0.2387
   47MOL   C26926121   1.237   5.593   7.198  0.5098  0.4110 -0.3789
   47MOL   C27026122   1.227   5.524   7.322  0.0412  0.2283  0.2665
   47MOL   C27126123   1.121   5.552   7.412 -0.5590 -0.0548 -0.1846
   47MOL   H27226124   0.946   5.765   7.205  0.3004  1.7721  1.0650
   47MOL   H27326125   1.049   5.796   7.000  0.3170  0.8540  0.6528
   47MOL   H27426126   1.258   5.747   6.842  0.9205  1.2660  0.3034
   47MOL   H27526127   1.650   5.477   6.781 -1.5636  2.8439  0.1850
   47MOL   H27626128   1.730   5.404   6.916 -2.2343 -1.1698  0.7265
   47MOL   H27726129   1.826   5.610   6.995 -0.7100  0.2100  0.5023
   47MOL   H27826130   1.874   5.602   6.829 -0.3474 -0.5981 -0.3698
   47MOL   H27926131   1.438   5.508   7.151  1.0641  0.8972 -2.7556
   47MOL   H28026132   1.299   5.445   7.336 -1.1571 -0.9534 -0.2390
   47MOL   H28126133   1.121   5.513   7.513 -2.8824  1.5463  0.4843
   47MOL   O28226134   1.823   5.782   6.668 -0.6798 -0.5301  0.2768
   47MOL   C28326135   1.744   5.812   6.757  0.6449 -0.0890 -0.5578
   47MOL   O28426136   1.734   5.746   6.870  0.4181 -0.2504 -0.0758
   47MOL   C28526137   1.663   5.936   6.755 -0.2540  0.2975  0.5545
   47MOL   C28626138   1.693   6.036   6.654  0.4554 -0.5025 -0.3072
   47MOL   C28726139   1.607   6.146   6.634  0.9415  0.3377 -0.1193
   47MOL   C28826140   1.621   6.220   6.518  0.2671  0.8887 -0.1577
   47MOL   C28926141   1.552   6.336   6.502  0.9039  0.3608  0.3784
   47MOL   C29026142   1.447   6.369   6.593  1.2455 -0.5464  0.4790
   47MOL   C29126143   1.366   6.494   6.549 -0.2519  0.3991 -0.0228
   47MOL   O29226144   1.248   6.496   6.601  0.1689 -0.0417  0.5043
   47MOL   C29326145   1.164   6.616   6.588  0.1942  0.1105 -0.0167
   47MOL   C29426146   1.027   6.596   6.656 -0.1067 -0.1952 -1.2301
   47MOL   O29526147   1.408   6.580   6.472 -0.7114 -0.5085 -0.0973
   47MOL   C29626148   1.418   6.284   6.707  0.0845 -0.7167  0.6807
   47MOL   C29726149   1.500   6.172   6.724 -0.4564  0.3378  0.1200
   47MOL   C29826150   1.475   6.084   6.829 -0.5141  0.0337  0.0324
   47MOL   C29926151   1.558   5.964   6.842  0.2699  0.4443  0.3226
   47MOL   H30026152   1.777   6.021   6.588  0.0045  0.5381 -1.1307
   47MOL   H30126153   1.696   6.194   6.444  0.7248 -1.5600  1.0961
   47MOL   H30226154   1.571   6.392   6.412  1.0054 -0.5752 -0.1882
   47MOL   H30326155   1.151   6.623   6.480 -0.4436 -1.4603 -0.0636
   47MOL   H30426156   1.224   6.703   6.616  0.9070 -0.3522 -0.0761
   47MOL   H30526157   0.959   6.671   6.613  0.5173  1.0074 -0.1459
   47MOL   H30626158   0.979   6.502   6.630  0.1674 -0.6456 -0.1108
   47MOL   H30726159   1.338   6.315   6.773  0.5202  1.8394  0.0595
   47MOL   H30826160   1.403   6.108   6.906  0.6879 -1.4359  1.6596
   47MOL   H30926161   1.522   5.897   6.918  2.0016 -1.9469 -0.9266
   47MOL   O31026162   1.061   6.844   6.773 -0.5370  0.4688 -0.2965
   47MOL   C31126163   1.059   6.745   6.848  0.4044 -0.3314 -1.1916
   47MOL   O31226164   1.052   6.615   6.796  0.1366 -0.4879  0.3577
   47MOL   C31326165   1.068   6.757   6.996 -0.8932  0.5027 -0.1154
   47MOL   C31426166   1.100   6.882   7.058 -0.7061  0.1936  0.0183
   47MOL   C31526167   1.122   6.893   7.195  0.3134  0.5926  0.1986
   47MOL   C31626168   1.146   7.023   7.251 -0.4449  0.2387 -0.5472
   47MOL   C31726169   1.154   7.032   7.394 -0.2985 -0.3395 -0.1267
   47MOL   C31826170   1.143   6.921   7.480  0.2083  0.7138  0.7935
   47MOL   C31926171   1.173   6.923   7.623 -0.2615  0.1263 -0.4128
   47MOL   O32026172   1.235   7.043   7.659 -0.2777 -0.3008  0.4099
   47MOL   C32126173   1.294   7.059   7.788  0.1032 -0.2485  0.3465
   47MOL   C32226174   1.418   7.146   7.774 -0.6844 -0.1586  0.5116
   47MOL   O32326175   1.153   6.828   7.698 -0.9344 -0.1251 -0.3577
   47MOL   C32426176   1.124   6.791   7.421  0.3376  0.4598  0.2044
   47MOL   C32526177   1.106   6.779   7.278 -0.4022 -0.1839  0.4181
   47MOL   C32626178   1.065   6.658   7.224 -0.8941 -0.4097  1.1978
   47MOL   C32726179   1.049   6.647   7.083 -0.0149  0.1396 -0.9211
   47MOL   H32826180   1.100   6.971   6.998 -1.5479 -0.5817 -1.1372
   47MOL   H32926181   1.147   7.113   7.192 -0.3852  1.7948  1.7304
   47MOL   H33026182   1.146   7.132   7.433 -0.2737  0.8231 -2.9208
   47MOL   H33126183   1.308   6.961   7.833 -1.2504 -1.0980 -1.0141
   47MOL   H33226184   1.211   7.099   7.845 -0.7255  0.5920 -1.4151
   47MOL   H33326185   1.384   7.247   7.751 -3.4356 -1.5495 -1.6765
   47MOL   H33426186   1.479   7.156   7.864 -0.5601 -2.3028  0.6916
   47MOL   H33526187   1.121   6.701   7.480 -1.0333  0.1627 -0.3034
   47MOL   H33626188   1.046   6.577   7.292  0.7662  1.5532  4.1051
   47MOL   H33726189   1.015   6.555   7.039 -1.3313 -0.4040  1.1517
   47MOL   O33826190   1.602   6.947   7.802  0.2899 -0.3148  0.1741
   47MOL   C33926191   1.585   6.994   7.687 -0.4959  0.4403 -0.8566
   47MOL   O34026192   1.505   7.103   7.670  0.4374 -0.1448  0.1949
   47MOL   C34126193   1.655   6.952   7.563  0.3576 -0.3641  0.5356
   47MOL   C34226194   1.648   7.036   7.450 -0.4742  0.2486  0.3103
   47MOL   C34326195   1.710   6.998   7.326  0.9269 -0.3209 -0.5764
   47MOL   C34426196   1.695   7.075   7.210 -0.1643 -0.3332  0.5782
   47MOL   C34526197   1.766   7.041   7.092 -0.2486  0.0657  0.2781
   47MOL   C34626198   1.848   6.924   7.085 -0.0547  0.5071  0.0963
   47MOL   C34726199   1.922   6.883   6.959  0.0818  0.4489  0.3335
   47MOL   O34826200   2.007   6.776   6.983 -0.3039 -0.8409  0.9601
   47MOL   C34926201   2.088   6.725   6.879  0.4193  0.7494 -0.1764
   47MOL   C35026202   1.988   6.654   6.780 -0.2985  0.7969  0.3939
   47MOL   O35126203   1.917   6.946   6.854 -0.0283  0.1681 -0.4695
   47MOL   C35226204   1.854   6.848   7.208  0.2407  0.3291 -0.6653
   47MOL   C35326205   1.788   6.883   7.323  0.2232 -0.0053 -0.3120
   47MOL   C35426206   1.798   6.800   7.438  0.5038  0.3390 -0.3649
   47MOL   C35526207   1.721   6.831   7.551 -0.7865 -0.1517 -0.3095
   47MOL   H35626208   1.589   7.127   7.447 -0.7773 -0.0001 -2.4080
   47MOL   H35726209   1.629   7.161   7.216 -1.8546 -1.3890 -1.8892
   47MOL   H35826210   1.758   7.102   7.003 -1.2959 -0.0961  0.2559
   47MOL   H35926211   2.169   6.656   6.906 -0.4298 -0.5218 -0.7976
   47MOL   H36026212   2.149   6.806   6.841  1.8954  0.6754  1.9305
   47MOL   H36126213   1.911   6.725   6.750  1.6646  2.5199 -0.6394
   47MOL   H36226214   2.036   6.622   6.688 -3.5199 -0.3313 -0.9735
   47MOL   H36326215   1.917   6.760   7.212 -2.2591 -1.4331  0.8326
   47MOL   H36426216   1.859   6.711   7.433 -1.2635 -0.9138  0.1452
   47MOL   H36526217   1.738   6.765   7.635 -0.7952  0.7837  0.4402
   47MOL   O36626218   2.105   6.397   6.783 -0.4662 -0.1095 -0.0412
   47MOL   C36726219   1.997   6.418   6.838  0.0062  0.8716 -0.1952
   47MOL   O36826220   1.932   6.536   6.832  0.5304  1.0352  0.3977
   47MOL   C36926221   1.909   6.316   6.906 -0.4027 -0.1114 -0.5891
   47MOL   C37026222   1.806   6.340   7.001 -0.3755 -0.3190 -0.2784
   47MOL   C37126223   1.737   6.237   7.073  0.0255  0.0677 -0.2596
   47MOL   C37226224   1.623   6.262   7.150 -0.3642  0.3825  0.0805
   47MOL   C37326225   1.560   6.152   7.211  0.1931  0.7479  0.0699
   47MOL   C37426226   1.602   6.015   7.191 -0.2989 -0.4739 -0.1917
   47MOL   C37526227   1.529   5.897   7.249  0.5391 -0.4484  0.8139
   47MOL   O37626228   1.442   5.931   7.344 -0.3213 -0.0668  0.3529
   47MOL   C37726229   1.394   5.839   7.430 -0.5044  0.3275 -0.5477
   47MOL   C37826230   1.497   5.813   7.547  0.1518  0.4195  0.6359
   47MOL   O37926231   1.546   5.782   7.212 -0.1935 -0.0502 -0.6344
   47MOL   C38026232   1.720   5.993   7.109  1.0186 -0.5072 -0.0864
   47MOL   C38126233   1.786   6.107   7.049  0.1436  0.4645 -0.1949
   47MOL   C38226234   1.897   6.080   6.967  0.3065 -0.1184  0.2669
   47MOL   C38326235   1.953   6.185   6.893 -1.6796 -0.2326  0.4051
   47MOL   H38426236   1.762   6.438   7.004  0.0544 -0.1185 -0.5656
   47MOL   H38526237   1.591   6.363   7.173  0.4472  0.3038  1.6222
   47MOL   H38626238   1.480   6.174   7.279 -0.0835  2.1100 -0.6638
   47MOL   H38726239   1.374   5.744   7.380 -0.2286 -1.0335  1.8964
   47MOL   H38826240   1.305   5.879   7.478 -0.7990  0.8412 -1.4952
   47MOL   H38926241   1.531   5.911   7.580  0.2312  1.2279 -1.7618
   47MOL   H39026242   1.451   5.757   7.629 -1.1769  0.0198 -0.3604
   47MOL   H39126243   1.749   5.890   7.091  1.5769 -0.9962  3.3286
   47MOL   H39226244   1.936   5.979   6.960 -0.6478 -0.3869 -1.7626
   47MOL   H39326245   2.029   6.154   6.823 -2.2921 -0.7139 -0.0496
   47MOL   O39426246   1.461   5.547   7.527  0.5565  0.4958  0.3869
   47MOL   C39526247   1.566   5.595   7.483  0.5762 -0.2159  0.2112
   47MOL   O39626248   1.603   5.725   7.507  0.1943  0.0008  0.3905
   47MOL   C39726249   1.669   5.523   7.399  0.0831  0.6328 -0.5850
   47MOL   C39826250   1.636   5.401   7.332 -0.2514 -0.5691  0.0420
   47MOL   C39926251   1.725   5.345   7.240 -0.6800 -0.5884  1.1838
   47MOL   C40026252   1.692   5.226   7.180  0.2413  0.3995 -0.3656
   47MOL   C40126253   1.791   5.165   7.095  0.1851  0.2248  0.2983
   47MOL   C40226254   1.913   5.234   7.053  0.0017 -0.5932  1.1139
   47MOL   C40326255   1.998   5.170   6.952 -0.0967  0.0543 -0.5863
   47MOL   O40426256   2.111   5.224   6.935 -0.3836  0.0429 -0.7253
   47MOL   C40526257   2.197   5.181   6.832 -0.6751 -0.7731 -0.3295
   47MOL   C40626258   2.230   5.301   6.735  0.1475 -0.7291  0.0007
   47MOL   O40726259   1.953   5.071   6.890  0.7114 -0.2201 -0.2612
   47MOL   C40826260   1.937   5.359   7.111  0.2078  0.1360 -0.4978
   47MOL   C40926261   1.846   5.414   7.204  0.6665  0.0861  0.0156
   47MOL   C41026262   1.871   5.538   7.264 -0.2197 -0.0640 -0.7485
   47MOL   C41126263   1.788   5.588   7.369 -0.0434  0.2734  0.4956
   47MOL   H41226264   1.537   5.356   7.335 -0.0828 -1.0107 -0.8075
   47MOL   H41326265   1.597   5.178   7.197 -0.0054  1.1780  0.4722
   47MOL   H41426266   1.763   5.072   7.047  0.1341  0.4480 -0.1032
   47MOL   H41526267   2.157   5.099   6.772  0.4624 -1.9890  0.5375
   47MOL   H41626268   2.292   5.149   6.875 -0.6446  0.3148  0.4258
   47MOL   H41726269   2.207   5.394   6.788  1.5008 -0.4308  0.0731
   47MOL   H41826270   2.332   5.296   6.697  0.5542  3.1446  0.3621
   47MOL   H41926271   2.028   5.412   7.088 -0.3224  0.8210 -1.0203
   47MOL   H42026272   1.961   5.595   7.245  0.5762 -0.7093  0.9250
   47MOL   H42126273   1.821   5.677   7.421 -0.0914 -0.2732  1.4606
   47MOL   O42226274   1.954   5.385   6.712 -0.2252 -0.3865 -0.1032
   47MOL   C42326275   2.012   5.340   6.613 -0.2459  0.8251 -0.1354
   47MOL   O42426276   2.147   5.305   6.618  0.6487  0.6281 -0.2889
   47MOL   C42526277   1.945   5.314   6.483  0.2990 -0.2874 -0.3411
   47MOL   C42626278   1.803   5.307   6.478 -0.7570 -0.3237 -0.2116
   47MOL   C42726279   1.728   5.285   6.362  0.1065  0.4044  0.1592
   47MOL   C42826280   1.592   5.297   6.361  0.0330 -0.0214  0.1140
   47MOL   C42926281   1.527   5.270   6.239 -0.3895 -0.1482  0.6849
   47MOL   C43026282   1.596   5.251   6.118 -0.6807 -0.3925 -0.8819
   47MOL   C43126283   1.522   5.226   5.991 -0.6594 -0.1506 -0.2763
   47MOL   O43226284   1.393   5.210   6.012  0.2706  0.0265  0.2258
   47MOL   C43326285   1.309   5.193   5.904  1.1671 -0.0003 -0.3045
   47MOL   C43426286   1.262   5.049   5.879 -0.0761 -0.6943 -0.6665
   47MOL   O43526287   1.579   5.215   5.879 -1.0368  0.1445 -0.8316
   47MOL   C43626288   1.735   5.247   6.124  0.1372  0.5810 -0.0564
   47MOL   C43726289   1.805   5.261   6.245  0.0800 -0.0085  0.6627
   47MOL   C43826290   1.943   5.259   6.247  1.0240 -0.1459  0.0340
   47MOL   C43926291   2.013   5.285   6.368  0.3967  0.0169 -0.0345
   47MOL   H44026292   1.745   5.307   6.570  0.1819 -1.7380  0.4009
   47MOL   H44126293   1.541   5.322   6.453  1.7059  1.1224  0.7381
   47MOL   H44226294   1.419   5.266   6.231 -0.3229  1.4548 -1.6863
   47MOL   H44326295   1.359   5.232   5.816  0.6704 -2.3841 -1.6932
   47MOL   H44426296   1.218   5.252   5.915  0.6693 -0.5343 -1.4053
   47MOL   H44526297   1.339   4.974   5.895 -1.0422 -1.4903  0.3377
   47MOL   H44626298   1.182   5.029   5.951  1.3181 -0.2545  1.0234
   47MOL   H44726299   1.788   5.229   6.031 -0.2401 -0.6892 -0.0293
   47MOL   H44826300   1.991   5.236   6.153  0.2666 -0.1658 -0.3571
   47MOL   H44926301   2.120   5.268   6.369  0.7255  1.6584 -3.0857
   47MOL   O45026302   1.412   4.945   5.673  0.5180 -0.3292  0.1078
   47MOL   C45126303   1.297   4.982   5.652  0.2909  0.2154  0.4694
   47MOL   O45226304   1.219   5.030   5.746 -0.3608  0.1447  0.1535
   47MOL   C45326305   1.243   4.981   5.518  0.6536  0.3378 -0.2821
   47MOL   C45426306   1.124   5.052   5.491  0.8101 -0.2697 -0.5095
   47MOL   C45526307   1.060   5.041   5.366  0.2120  0.1157  0.4065
   47MOL   C45626308   0.932   5.096   5.348 -0.8059  0.3891  0.1301
   47MOL   C45726309   0.865   5.081   5.232 -0.5208  0.1905  0.4582
   47MOL   C45826310   0.931   5.023   5.119 -0.7038 -0.2397  0.4672
   47MOL   C45926311   0.869   5.014   4.979 -0.3188  1.1346 -0.0660
   47MOL   O46026312   0.963   4.977   4.882  0.3318  0.1844  0.5546
   47MOL   C46126313   0.914   4.972   4.747 -0.5352 -0.2299  0.2452
   47MOL   C46226314   0.958   4.837   4.691  0.3039 -0.2552 -0.6087
   47MOL   O46326315   0.751   5.035   4.945  0.0189  0.5621  0.3790
   47MOL   C46426316   1.056   4.961   5.137 -0.3439  0.1356 -0.3909
   47MOL   C46526317   1.122   4.971   5.264 -0.0004 -0.0410 -0.1377
   47MOL   C46626318   1.246   4.910   5.286  0.2781 -0.3996 -0.1757
   47MOL   C46726319   1.303   4.908   5.412 -0.2281  0.5529 -0.7678
   47MOL   H46826320   1.068   5.099   5.570 -0.2792 -1.1522 -0.7523
   47MOL   H46926321   0.883   5.154   5.425 -0.5232 -0.1754  0.7447
   47MOL   H47026322   0.764   5.115   5.217 -1.1680 -1.6999  0.3890
   47MOL   H47126323   0.976   5.047   4.698  0.6642 -1.6720 -0.5236
   47MOL   H47226324   0.808   4.994   4.736 -0.3932  1.1137  1.5092
   47MOL   H47326325   1.066   4.836   4.707  0.0888  1.5691  1.0805
   47MOL   H47426326   0.920   4.760   4.758  2.0065 -0.8883 -0.3431
   47MOL   H47526327   1.113   4.912   5.060 -1.1366  0.2971 -1.0966
   47MOL   H47626328   1.298   4.867   5.202  0.5137 -1.0491  0.2942
   47MOL   H47726329   1.393   4.851   5.425 -0.7965 -0.3465 -0.7544
   47MOL   O47826330   0.698   4.780   4.617  0.8560  0.8033  0.3023
   47MOL   C47926331   0.783   4.803   4.531  0.0908  0.3657  0.2844
   47MOL   O48026332   0.916   4.827   4.555 -0.3317 -0.3228 -0.5500
   47MOL   C48126333   0.749   4.819   4.382 -0.2747 -0.3746  0.1212
   47MOL   C48226334   0.612   4.807   4.344 -0.3070  1.0808 -0.0882
   47MOL   C48326335   0.578   4.817   4.207  0.5384 -0.6087 -0.3739
   47MOL   C48426336   0.442   4.827   4.167  0.0221  0.0018  0.0868
   47MOL   C48526337   0.417   4.848   4.029 -0.8393 -0.6746  0.1949
   47MOL   C48626338   0.518   4.835   3.934  0.4305 -0.6658 -0.6300
   47MOL   C48726339   0.480   4.844   3.789 -0.9060 -0.6063 -0.2653
   47MOL   O48826340   0.549   4.766   3.710  0.1815 -0.3046  0.3728
   47MOL   C48926341   0.538   4.775   3.566 -1.2814 -0.6162 -0.0982
   47MOL   C49026342   0.618   4.888   3.514 -0.0167 -0.0319  0.9617
   47MOL   O49126343   0.391   4.922   3.749 -0.2339 -0.3380  0.2635
   47MOL   C49226344   0.653   4.814   3.976 -0.9844  0.8582  0.0079
   47MOL   C49326345   0.686   4.819   4.113 -0.0430 -0.1692  0.5826
   47MOL   C49426346   0.816   4.813   4.150  0.5433 -0.3823 -0.1616
   47MOL   C49526347   0.854   4.822   4.283  0.3427 -0.7107  0.6786
   47MOL   H49626348   0.532   4.789   4.414 -0.5704 -0.6302 -0.7929
   47MOL   H49726349   0.363   4.822   4.240 -1.9151 -1.4427 -2.0680
   47MOL   H49826350   0.313   4.854   3.999 -0.5820  0.1981 -0.5614
   47MOL   H49926351   0.432   4.779   3.543 -1.3112  0.6752  0.2308
   47MOL   H50026352   0.576   4.688   3.512  0.9364 -1.6866  3.0428
   47MOL   H50126353   0.651   4.875   3.411 -1.8200  1.2438  0.1840
   47MOL   H50226354   0.552   4.975   3.512 -1.2120 -0.9514 -0.2701
   47MOL   H50326355   0.728   4.799   3.900  1.1782  1.2082  2.0220
   47MOL   H50426356   0.895   4.806   4.076  0.4857  0.9991 -0.3664
   47MOL   H50526357   0.960   4.829   4.304  0.1393  0.1259  1.4524
   47MOL   O50626358   0.875   4.750   3.508  0.3209 -0.0558 -0.1149
   47MOL   C50726359   0.849   4.846   3.581  0.4608  0.6716  0.5784
   47MOL   O50826360   0.734   4.924   3.585 -0.3317  0.5708  0.6067
   47MOL   C50926361   0.934   4.892   3.702  0.3652  0.2021  0.3863
   47MOL   C51026362   0.897   4.999   3.792 -1.1562 -0.3619 -0.3746
   47MOL   C51126363   0.980   5.031   3.899  0.3738  0.1341 -0.3872
   47MOL   C51226364   0.945   5.141   3.983 -1.1463  0.5451 -1.2058
   47MOL   C51326365   1.024   5.172   4.095  0.7119  0.0533 -0.1873
   47MOL   C51426366   1.139   5.089   4.123 -0.0852  0.7790 -0.5788
   47MOL   C51526367   1.217   5.111   4.244  0.3963  0.5411  0.1116
   47MOL   O51626368   1.333   5.054   4.244 -0.8738  0.2340  0.4053
   47MOL   C51726369   1.420   5.077   4.351 -0.6530  0.2089  0.1425
   47MOL   C51826370   1.491   5.218   4.337 -0.2222  0.2399 -0.3122
   47MOL   O51926371   1.171   5.171   4.339 -0.0215  0.0081  0.1815
   47MOL   C52026372   1.180   4.988   4.039  0.0280  0.4018 -0.1258
   47MOL   C52126373   1.099   4.953   3.924 -0.4001 -0.2145 -0.1437
   47MOL   C52226374   1.134   4.851   3.834  0.2602 -0.3673 -0.5556
   47MOL   C52326375   1.055   4.819   3.723 -0.2155  0.1956 -0.2422
   47MOL   H52426376   0.813   5.058   3.759 -1.6312  0.0193  1.4500
   47MOL   H52526377   0.864   5.205   3.949 -1.3049  1.2932  0.4999
   47MOL   H52626378   1.000   5.255   4.161  1.2173 -0.7404  1.0199
   47MOL   H52726379   1.499   5.003   4.335  0.4112  1.2197  0.6389
   47MOL   H52826380   1.359   5.071   4.441 -3.4472  1.1640 -1.6337
   47MOL   H52926381   1.589   5.209   4.384 -0.6761 -2.4149  0.2214
   47MOL   H53026382   1.495   5.248   4.232  1.7501  0.1535 -0.2960
   47MOL   H53126383   1.274   4.936   4.056 -0.3679 -0.2463  0.1043
   47MOL   H53226384   1.226   4.796   3.846  0.7471  0.5090 -0.2445
   47MOL   H53326385   1.089   4.739   3.659 -1.2604 -0.1221 -0.3972
   47MOL   O53426386   1.591   5.433   4.450  0.1772 -0.4993  0.1017
   47MOL   C53526387   1.474   5.420   4.470  0.5694  0.1349 -0.3851
   47MOL   O53626388   1.417   5.314   4.412 -0.0145  0.0172 -0.1901
   47MOL   C53726389   1.380   5.505   4.557 -0.3057 -0.1870 -0.2058
   47MOL   C53826390   1.429   5.610   4.642 -0.5554 -0.1721 -1.1450
   47MOL   C53926391   1.336   5.675   4.726 -0.3940  0.0922  0.0993
   47MOL   C54026392   1.386   5.774   4.812  0.2683 -0.4054 -0.3605
   47MOL   C54126393   1.302   5.833   4.904  0.3377  0.2275  0.4827
   47MOL   C54226394   1.165   5.801   4.907  0.2298 -0.7156  0.0505
   47MOL   C54326395   1.083   5.861   5.011  0.3298 -0.8359 -0.4695
   47MOL   O54426396   0.957   5.810   5.016 -0.4169  0.1773  0.9949
   47MOL   C54526397   0.868   5.853   5.117  0.1336 -0.6314  0.3889
   47MOL   C54626398   0.870   5.758   5.238  0.2533  0.3521 -0.0138
   47MOL   O54726399   1.119   5.952   5.091  0.1593  0.2223  0.7704
   47MOL   C54826400   1.112   5.705   4.807 -0.3656 -0.4161 -0.2467
   47MOL   C54926401   1.198   5.639   4.725 -0.9717 -0.9569 -0.4966
   47MOL   C55026402   1.156   5.538   4.647  0.9944  0.0346  0.0722
   47MOL   C55126403   1.246   5.470   4.564 -0.6804 -0.0823  0.7130
   47MOL   H55226404   1.532   5.641   4.646  0.0656 -2.0853 -1.7205
   47MOL   H55326405   1.489   5.807   4.818 -0.3660  1.8900 -1.6034
   47MOL   H55426406   1.342   5.904   4.975  1.0406 -0.8678  1.2024
   47MOL   H55526407   0.769   5.844   5.071 -0.5952  1.1289  1.5404
   47MOL   H55626408   0.876   5.959   5.141 -2.8576 -0.5148  1.0951
   47MOL   H55726409   0.791   5.779   5.310  0.8170  1.2714  0.3459
   47MOL   H55826410   0.963   5.783   5.289 -0.3140  0.5151  0.9383
   47MOL   H55926411   1.008   5.677   4.807 -0.5988  0.4011  1.6680
   47MOL   H56026412   1.051   5.513   4.649  0.8043  0.8115 -0.0942
   47MOL   H56126413   1.211   5.387   4.504  1.9415 -1.5042  1.0689
   47MOL   H56226414   0.875   5.656   5.200  1.1205  0.1366  0.6716
   48MOL     O126415   1.820   3.381   5.282  0.5503  0.2679  0.9188
   48MOL     C226416   1.805   3.458   5.191 -0.0685  0.4887 -0.4687
   48MOL     O326417   1.688   3.472   5.121  0.6426 -0.2353 -0.0986
   48MOL     C426418   1.921   3.548   5.142  0.3023 -0.4994  0.2492
   48MOL     C526419   2.039   3.555   5.219  0.2991  0.4914 -0.1898
   48MOL     C626420   2.153   3.632   5.170 -0.4877  0.6486 -0.6891
   48MOL     C726421   2.267   3.636   5.246  0.0327  0.1607  0.3010
   48MOL     C826422   2.375   3.726   5.215  0.2255 -0.3778  0.1342
   48MOL     C926423   2.366   3.802   5.098  0.1212 -0.2194 -0.0082
   48MOL    C1026424   2.484   3.892   5.073 -0.6593 -0.5922  0.2449
   48MOL    O1126425   2.471   3.960   4.953 -0.2208  0.0111  0.1745
   48MOL    C1226426   2.569   4.054   4.910  0.0969 -0.7710  0.4233
   48MOL    C1326427   2.700   3.992   4.859  0.2041 -0.0066  0.1264
   48MOL    O1426428   2.581   3.910   5.149 -0.6152 -0.2022 -0.3530
   48MOL    C1526429   2.252   3.791   5.017  0.2172  0.1104  0.4376
   48MOL    C1626430   2.144   3.700   5.048  0.6240 -0.0062 -0.6736
   48MOL    C1726431   2.024   3.696   4.969 -0.1882 -0.4901 -0.9402
   48MOL    C1826432   1.911   3.620   5.021 -0.5930 -0.4820 -0.0499
   48MOL    H1926433   2.047   3.493   5.307 -2.1763 -1.4852 -1.3107
   48MOL    H2026434   2.271   3.583   5.340  0.9368 -1.1008 -0.4416
   48MOL    H2126435   2.454   3.735   5.288  0.1583 -1.2434  0.3177
   48MOL    H2226436   2.521   4.106   4.828  0.4593 -0.1474  0.6016
   48MOL    H2326437   2.583   4.129   4.988 -2.6847  0.2830 -0.0189
   48MOL    H2426438   2.776   4.061   4.824  1.6293 -2.5326 -1.9212
   48MOL    H2526439   2.742   3.935   4.941  0.7090  1.4219  0.8766
   48MOL    H2626440   2.256   3.842   4.923 -2.4720 -1.0696 -0.3539
   48MOL    H2726441   2.021   3.737   4.870 -2.5384 -0.0087 -0.6883
   48MOL    H2826442   1.821   3.606   4.963  0.4075 -1.6281 -1.3506
   48MOL    H2926443   1.623   3.405   5.137  1.1203 -1.5821 -3.3756
   48MOL    O3026444   2.670   4.051   4.595  0.3848  0.0523 -0.1865
   48MOL    C3126445   2.664   3.930   4.632  0.4815 -0.0888  0.7902
   48MOL    O3226446   2.668   3.896   4.755  0.0686 -0.5808 -0.3510
   48MOL    C3326447   2.649   3.815   4.538 -0.4846 -0.6063 -0.4194
   48MOL    C3426448   2.725   3.808   4.414 -0.0401  0.3124 -0.3824
   48MOL    C3526449   2.725   3.691   4.334  0.7099 -0.2405  0.1089
   48MOL    C3626450   2.801   3.688   4.216  0.2994 -0.5858 -0.0145
   48MOL    C3726451   2.803   3.575   4.130  0.3969 -0.1837 -0.1269
   48MOL    C3826452   2.731   3.464   4.171  0.9102 -0.1212 -0.1688
   48MOL    C3926453   2.742   3.340   4.090  0.2558 -1.6682  0.0682
   48MOL    O4026454   2.647   3.246   4.119  0.5899 -0.1309 -0.0551
   48MOL    C4126455   2.660   3.125   4.050 -0.5239 -0.1914  0.0053
   48MOL    C4226456   2.540   3.041   4.093 -0.0530  0.3838  0.2498
   48MOL    O4326457   2.831   3.317   4.013 -0.1678  0.6034 -0.2122
   48MOL    C4426458   2.652   3.464   4.293  0.1698 -0.2227 -0.1419
   48MOL    C4526459   2.653   3.577   4.377  0.1078  0.6821 -0.1241
   48MOL    C4626460   2.577   3.581   4.495 -0.4940  0.1253  0.5020
   48MOL    C4726461   2.580   3.699   4.578  0.6356 -0.1350 -0.2206
   48MOL    H4826462   2.780   3.897   4.388  2.0697 -0.7100  0.5208
   48MOL    H4926463   2.864   3.773   4.193 -0.2536 -0.5857 -1.6265
   48MOL    H5026464   2.851   3.576   4.033 -1.9227 -1.8476 -1.3504
   48MOL    H5126465   2.755   3.073   4.058 -1.0660 -1.0592  0.9112
   48MOL    H5226466   2.661   3.147   3.943  3.7609  0.6544  0.1563
   48MOL    H5326467   2.468   3.103   4.145 -1.8238 -0.4698 -1.1527
   48MOL    H5426468   2.504   2.991   4.003  0.6483 -1.8608  1.1706
   48MOL    H5526469   2.587   3.382   4.318 -0.3604  0.7176  1.6539
   48MOL    H5626470   2.520   3.493   4.522 -1.0953  0.0834 -0.8732
   48MOL    H5726471   2.533   3.700   4.675 -0.0519 -0.5806 -0.5456
   48MOL    O5826472   2.613   3.067   4.352  0.1261  0.9081 -0.1641
   48MOL    C5926473   2.610   2.956   4.299 -0.0944  0.4173 -0.2948
   48MOL    O6026474   2.577   2.936   4.172 -0.5014  0.1817  0.4250
   48MOL    C6126475   2.645   2.834   4.372 -0.6695  1.0405 -0.0531
   48MOL    C6226476   2.750   2.838   4.463  0.5826 -0.0221 -0.1913
   48MOL    C6326477   2.781   2.729   4.544  0.0595 -0.0151 -0.8403
   48MOL    C6426478   2.885   2.738   4.644 -0.5092  0.0457 -0.2047
   48MOL    C6526479   2.917   2.630   4.727 -0.2292 -0.1560  0.2269
   48MOL    C6626480   2.853   2.509   4.709 -0.0702  0.2833 -0.2405
   48MOL    C6726481   2.889   2.388   4.791 -0.2029 -0.2144  0.0420
   48MOL    O6826482   2.985   2.417   4.880  0.6974  0.4622  0.5836
   48MOL    C6926483   3.046   2.320   4.972 -1.0851 -0.2019 -0.0163
   48MOL    C7026484   3.148   2.233   4.899 -0.4922  0.1128 -0.4343
   48MOL    O7126485   2.835   2.284   4.789  0.1529 -0.0531  0.0608
   48MOL    C7226486   2.743   2.500   4.616 -0.4468  0.1027 -0.3402
   48MOL    C7326487   2.713   2.606   4.534  0.9480  0.4852 -0.1718
   48MOL    C7426488   2.610   2.600   4.443  0.6446 -0.1329 -0.0120
   48MOL    C7526489   2.577   2.710   4.355 -0.0198 -0.1968 -0.2396
   48MOL    H7626490   2.806   2.930   4.473  0.0844  0.4491 -1.6174
   48MOL    H7726491   2.956   2.819   4.655 -1.5485  1.1646 -1.4417
   48MOL    H7826492   2.982   2.647   4.812  1.0721  0.6375 -0.9085
   48MOL    H7926493   2.971   2.259   5.024 -1.4586  0.1341 -0.1587
   48MOL    H8026494   3.083   2.383   5.054  0.0625 -2.0685  0.9373
   48MOL    H8126495   3.091   2.164   4.838  0.7506 -1.8970  0.6270
   48MOL    H8226496   3.220   2.294   4.844  1.7003 -1.0983  0.9998
   48MOL    H8326497   2.704   2.403   4.590 -1.3220  0.0471  1.1101
   48MOL    H8426498   2.549   2.512   4.429  0.0786  0.3432 -0.5723
   48MOL    H8526499   2.498   2.692   4.284  0.5540  1.7952 -1.4156
   48MOL    O8626500   3.388   2.303   5.046  0.3087 -0.2564  0.9366
   48MOL    C8726501   3.337   2.189   5.050  0.4425  0.3831  0.2123
   48MOL    O8826502   3.221   2.149   4.982  0.7860  0.0774  0.0935
   48MOL    C8926503   3.406   2.071   5.108 -0.5202  0.4644 -0.1229
   48MOL    C9026504   3.533   2.107   5.167 -0.4604  0.0209  0.4249
   48MOL    C9126505   3.598   2.006   5.240  0.0287 -0.1223  1.0109
   48MOL    C9226506   3.730   2.041   5.284  0.2273  0.5642 -0.5053
   48MOL    C9326507   3.807   1.943   5.351  0.2005 -1.0395 -0.8318
   48MOL    C9426508   3.750   1.814   5.380  0.3533  0.6982  0.4650
   48MOL    C9526509   3.832   1.717   5.458  0.6542 -0.8039 -0.3052
   48MOL    O9626510   3.788   1.594   5.447  0.1260  0.6274  0.1392
   48MOL    C9726511   3.867   1.488   5.498  0.4533 -0.2451 -0.0208
   48MOL    C9826512   3.793   1.354   5.490 -0.5511 -0.2538 -0.3434
   48MOL    O9926513   3.939   1.742   5.516 -0.5597 -0.5358  0.4167
   48MOL   C10026514   3.623   1.783   5.323  0.6203 -0.0856  0.5766
   48MOL   C10126515   3.547   1.881   5.255 -0.4815  0.7515  0.8327
   48MOL   C10226516   3.417   1.850   5.196 -0.5972  0.3592  0.4463
   48MOL   C10326517   3.355   1.946   5.117 -0.1539  0.0302 -0.2485
   48MOL   H10426518   3.574   2.207   5.170  0.2785 -0.3261  2.3284
   48MOL   H10526519   3.768   2.137   5.254 -2.6526  1.6174 -0.9498
   48MOL   H10626520   3.908   1.965   5.380 -0.3132 -0.3104  0.4605
   48MOL   H10726521   3.902   1.505   5.600  1.2255  2.1938 -0.6562
   48MOL   H10826522   3.955   1.469   5.436  1.1498 -0.0572  0.9050
   48MOL   H10926523   3.714   1.331   5.562  1.8898 -3.6582  1.3689
   48MOL   H11026524   3.752   1.334   5.390 -2.0300  1.0330 -0.0161
   48MOL   H11126525   3.573   1.691   5.350  1.8653 -0.8627  0.2859
   48MOL   H11226526   3.374   1.752   5.212 -0.3768  0.2353  0.2718
   48MOL   H11326527   3.265   1.913   5.067 -0.6630  0.7273  0.1947
   48MOL   O11426528   3.952   1.216   5.321 -0.0347 -0.0488  0.5023
   48MOL   C11526529   3.964   1.195   5.440 -0.0505  0.8762  0.5133
   48MOL   O11626530   3.898   1.265   5.529  0.2786  0.2849  0.1192
   48MOL   C11726531   4.034   1.086   5.505 -1.0750 -0.3089 -0.4685
   48MOL   C11826532   4.051   1.076   5.649  0.1465 -0.2166 -0.4490
   48MOL   C11926533   4.119   0.966   5.711 -0.6192  0.0672  0.5644
   48MOL   C12026534   4.145   0.958   5.843  0.1268  0.4487 -0.8388
   48MOL   C12126535   4.221   0.854   5.904 -0.5733  0.3147 -0.5125
   48MOL   C12226536   4.252   0.741   5.824  0.1088 -0.2052  0.0530
   48MOL   C12326537   4.334   0.630   5.874 -0.3584  0.6053  0.4575
   48MOL   O12426538   4.301   0.609   6.010 -0.6596 -0.1285  0.2177
   48MOL   C12526539   4.364   0.497   6.075  0.2543  0.4761 -0.4940
   48MOL   C12626540   4.389   0.536   6.223  0.1797  0.3582 -0.4404
   48MOL   O12726541   4.415   0.566   5.804  0.2017 -0.0030  0.1405
   48MOL   C12826542   4.232   0.752   5.681 -0.0078 -0.4448 -0.3976
   48MOL   C12926543   4.163   0.861   5.629  0.4723 -0.2679  0.3255
   48MOL   C13026544   4.149   0.864   5.489  0.3032 -0.3608 -1.0289
   48MOL   C13126545   4.096   0.980   5.428  0.1740 -0.5576 -0.2717
   48MOL   H13226546   4.003   1.153   5.708 -1.3065  0.8116 -2.9248
   48MOL   H13326547   4.107   1.034   5.909 -1.1390  0.3225 -1.4008
   48MOL   H13426548   4.245   0.869   6.008  1.1409  1.4718 -1.0381
   48MOL   H13526549   4.465   0.483   6.037  0.8329 -2.1498  1.7973
   48MOL   H13626550   4.299   0.409   6.079  0.9358  0.0291  1.5347
   48MOL   H13726551   4.304   0.514   6.287 -0.2111 -0.6464 -1.2953
   48MOL   H13826552   4.464   0.477   6.276 -0.8356  0.7546  1.4611
   48MOL   H13926553   4.266   0.670   5.620  2.6503 -1.3753  2.2267
   48MOL   H14026554   4.201   0.787   5.433 -0.3760 -1.7766  0.2427
   48MOL   H14126555   4.089   0.999   5.322  0.4381  1.7282  0.1027
   48MOL   O14226556   4.502   0.673   6.443  0.0485 -0.1773  0.7176
   48MOL   C14326557   4.500   0.725   6.331  0.6828 -0.1876  0.0454
   48MOL   O14426558   4.440   0.674   6.223  0.0360  0.3705  0.1188
   48MOL   C14526559   4.573   0.838   6.282  0.2555  0.3558  0.8095
   48MOL   C14626560   4.706   0.868   6.321 -0.4117 -0.5284  0.5216
   48MOL   C14726561   4.781   0.964   6.257 -0.0253 -1.0743 -0.1075
   48MOL   C14826562   4.922   0.981   6.274 -0.3032 -0.4224 -0.5573
   48MOL   C14926563   4.989   1.086   6.211  0.2693  0.4167  0.1139
   48MOL   C15026564   4.918   1.184   6.139  0.4447 -0.0058  0.4051
   48MOL   C15126565   4.987   1.299   6.079  0.0329  0.3944  0.1164
   48MOL   O15226566   4.908   1.379   6.006  0.3469  0.6497  0.2637
   48MOL   C15326567   4.957   1.501   5.956 -0.0858  0.0203 -0.5671
   48MOL   C15426568   4.891   1.620   6.030  0.3651 -1.0415  0.0402
   48MOL   O15526569   5.102   1.333   6.110  0.1668 -0.2618 -0.0693
   48MOL   C15626570   4.780   1.171   6.122  0.0308 -0.5918 -0.1424
   48MOL   C15726571   4.714   1.056   6.177  0.8755 -0.4880  0.1899
   48MOL   C15826572   4.576   1.035   6.141  0.0401 -0.4954  0.6666
   48MOL   C15926573   4.508   0.922   6.187  0.3271  0.0860  0.4906
   48MOL   H16026574   4.768   0.806   6.385  1.0792  1.8305  1.4127
   48MOL   H16126575   4.971   0.909   6.337  0.6300 -0.5108 -1.3631
   48MOL   H16226576   5.094   1.093   6.236  1.0507 -4.1751 -1.4142
   48MOL   H16326577   4.945   1.503   5.848  1.1121  0.5158 -0.6943
   48MOL   H16426578   5.063   1.508   5.980  0.1552 -1.0104 -1.2996
   48MOL   H16526579   4.890   1.605   6.138 -1.0208  4.4183  0.9540
   48MOL   H16626580   4.941   1.716   6.022  0.8073 -1.2014  0.9089
   48MOL   H16726581   4.716   1.238   6.065 -2.3876 -1.1951  1.7893
   48MOL   H16826582   4.523   1.104   6.077 -1.4933 -1.9367  0.3716
   48MOL   H16926583   4.408   0.910   6.148  0.6683 -1.0996 -0.0374
   48MOL   O17026584   4.808   1.778   5.821 -0.2292  0.0987  0.2137
   48MOL   C17126585   4.729   1.731   5.900 -0.3186  0.0557 -0.1618
   48MOL   O17226586   4.758   1.641   5.991 -0.4613  0.5945  0.1104
   48MOL   C17326587   4.588   1.780   5.914  0.0187 -0.6449 -0.0122
   48MOL   C17426588   4.486   1.704   5.980  0.0077  0.6095  0.3729
   48MOL   C17526589   4.356   1.747   5.963  0.6105  0.0576 -1.1127
   48MOL   C17626590   4.249   1.668   6.005 -0.5246  0.2289  0.2283
   48MOL   C17726591   4.115   1.694   5.973  0.4109 -0.1049  0.4238
   48MOL   C17826592   4.086   1.812   5.901  0.1404  0.3984 -0.8709
   48MOL   C17926593   3.944   1.835   5.860 -0.3991  0.0452  0.1526
   48MOL   O18026594   3.940   1.944   5.792  0.4949  0.7490  0.3605
   48MOL   C18126595   3.828   1.992   5.731  0.3008 -0.0883  0.1734
   48MOL   C18226596   3.765   2.111   5.804 -0.2880  0.5694 -0.1714
   48MOL   O18326597   3.851   1.756   5.888 -0.3523 -0.2778 -0.4664
   48MOL   C18426598   4.192   1.895   5.857 -0.7849 -0.1727  0.4166
   48MOL   C18526599   4.325   1.865   5.891  0.4828 -0.5227 -0.1667
   48MOL   C18626600   4.425   1.946   5.843 -0.1659  0.2715 -0.7423
   48MOL   C18726601   4.555   1.893   5.841  0.0341 -0.5067  0.0122
   48MOL   H18826602   4.516   1.613   6.031 -2.1367 -0.5608 -0.3866
   48MOL   H18926603   4.278   1.575   6.053  4.6955  0.7093 -1.7076
   48MOL   H19026604   4.034   1.630   6.003  0.3454 -0.5562 -0.6943
   48MOL   H19126605   3.742   1.925   5.719  0.2281  0.0646 -0.1713
   48MOL   H19226606   3.866   2.020   5.633  1.6223 -2.6639 -0.1105
   48MOL   H19326607   3.696   2.068   5.876  1.3939 -0.2939  0.9693
   48MOL   H19426608   3.840   2.172   5.854 -1.1604  0.7507  0.9272
   48MOL   H19526609   4.178   1.983   5.797 -0.6887 -1.6394 -1.8017
   48MOL   H19626610   4.388   2.028   5.783 -1.5516  0.7177  0.6849
   48MOL   H19726611   4.634   1.937   5.780 -1.5643  0.1145 -1.6717
   48MOL   O19826612   3.618   2.331   5.860 -0.1767  0.0283  0.2310
   48MOL   C19926613   3.617   2.285   5.742 -0.0402 -0.3421 -0.4334
   48MOL   O20026614   3.678   2.171   5.708  0.2531  0.4551  0.0707
   48MOL   C20126615   3.539   2.352   5.632 -0.3515 -0.4606 -0.0485
   48MOL   C20226616   3.483   2.481   5.656 -0.3382 -0.4479  0.2661
   48MOL   C20326617   3.395   2.543   5.567 -0.0950  0.8521 -0.2068
   48MOL   C20426618   3.316   2.646   5.610  0.6486 -0.2003  0.3436
   48MOL   C20526619   3.235   2.714   5.512  0.8212  0.5443 -0.0737
   48MOL   C20626620   3.244   2.679   5.375 -0.2312 -0.2566  0.0573
   48MOL   C20726621   3.176   2.766   5.276 -0.5498  0.2038 -1.0845
   48MOL   O20826622   3.165   2.703   5.163  0.3505  0.2236  0.2368
   48MOL   C20926623   3.100   2.770   5.055 -0.0494  0.1032 -0.8990
   48MOL   C21026624   3.180   2.873   4.964  0.7678 -0.3166 -0.6535
   48MOL   O21126625   3.131   2.878   5.302 -0.3236 -0.8349  0.7179
   48MOL   C21226626   3.318   2.567   5.337  0.2470  0.2203  0.0022
   48MOL   C21326627   3.390   2.493   5.433  0.4187 -0.2497  0.9661
   48MOL   C21426628   3.444   2.365   5.406 -0.5022  0.5661  0.0449
   48MOL   C21526629   3.521   2.295   5.502 -0.1280  0.4661 -0.3329
   48MOL   H21626630   3.481   2.537   5.749  1.6691 -0.8947  0.5923
   48MOL   H21726631   3.328   2.691   5.708 -1.0205  0.4133  0.2734
   48MOL   H21826632   3.173   2.797   5.544 -0.3555 -0.7511  1.0789
   48MOL   H21926633   3.015   2.828   5.092  0.1403 -0.8077  1.0444
   48MOL   H22026634   3.045   2.700   4.992  0.2330  0.6784 -1.7964
   48MOL   H22126635   3.109   2.933   4.908  1.8985  0.2921 -1.4523
   48MOL   H22226636   3.236   2.937   5.032 -1.2222  0.2035  0.5219
   48MOL   H22326637   3.322   2.527   5.237 -0.8685 -0.1042  0.0862
   48MOL   H22426638   3.441   2.323   5.306 -2.5509 -2.0798  1.1591
   48MOL   H22526639   3.572   2.201   5.483 -1.3537 -0.0650 -1.0641
   48MOL   O22626640   3.202   2.905   4.690 -0.1179  0.4407 -0.2072
   48MOL   C22726641   3.253   2.808   4.747  0.7543  0.4147 -0.4826
   48MOL   O22826642   3.258   2.788   4.879  0.1371 -0.4326  0.1704
   48MOL   C22926643   3.321   2.692   4.679  0.2051  0.6775 -0.7429
   48MOL   C23026644   3.374   2.711   4.547  0.2969  0.4010 -0.3664
   48MOL   C23126645   3.434   2.596   4.486 -0.1107 -0.4113  0.0025
   48MOL   C23226646   3.471   2.596   4.348 -0.1731  0.2080  0.1424
   48MOL   C23326647   3.528   2.483   4.287 -0.5668  0.4354  0.2066
   48MOL   C23426648   3.552   2.363   4.355 -0.5689 -0.5201  0.3769
   48MOL   C23526649   3.607   2.245   4.292  0.8839 -0.4382  0.4370
   48MOL   O23626650   3.622   2.139   4.373 -0.3375 -0.0754 -0.8703
   48MOL   C23726651   3.684   2.021   4.322  0.3411 -0.8011 -0.0892
   48MOL   C23826652   3.829   2.017   4.272  0.3125  0.0571  1.0362
   48MOL   O23926653   3.631   2.242   4.167 -0.5169  0.4044  0.2087
   48MOL   C24026654   3.522   2.371   4.492 -0.8519  0.2404  0.7584
   48MOL   C24126655   3.455   2.474   4.554 -0.3510  0.6780  0.4586
   48MOL   C24226656   3.413   2.456   4.686  0.6898 -0.8607  0.4547
   48MOL   C24326657   3.339   2.561   4.749 -0.5104 -0.3756 -0.0409
   48MOL   H24426658   3.353   2.800   4.489 -0.8525  0.5773  0.2954
   48MOL   H24526659   3.470   2.684   4.287  0.0558 -0.6434 -1.1045
   48MOL   H24626660   3.545   2.489   4.180 -1.0724 -0.5845  0.0582
   48MOL   H24726661   3.617   1.958   4.263  1.3989 -0.4759 -1.6915
   48MOL   H24826662   3.690   1.977   4.421  0.2931 -2.2731 -0.7152
   48MOL   H24926663   3.842   2.047   4.168 -1.6786  1.2062  1.1010
   48MOL   H25026664   3.888   2.101   4.309 -0.2210  0.1915  1.5868
   48MOL   H25126665   3.540   2.291   4.562  1.0854 -0.8851 -0.9936
   48MOL   H25226666   3.416   2.362   4.738 -1.0196 -2.0044 -1.4392
   48MOL   H25326667   3.288   2.541   4.841  0.9717  0.4548  0.9832
   48MOL   O25426668   3.765   1.764   4.187  0.2582  0.6090 -0.3863
   48MOL   C25526669   3.852   1.780   4.272  0.5693  0.5575 -0.2360
   48MOL   O25626670   3.894   1.899   4.316  0.5320 -0.2272  0.3671
   48MOL   C25726671   3.925   1.668   4.334  0.3396 -0.7250 -0.0517
   48MOL   C25826672   3.910   1.536   4.289 -0.6234 -0.3934  0.5552
   48MOL   C25926673   3.973   1.428   4.352 -0.0732  0.7617  0.3846
   48MOL   C26026674   3.959   1.297   4.311  0.6108  0.5784 -0.5437
   48MOL   C26126675   4.020   1.193   4.382  0.1101  0.4175  0.1690
   48MOL   C26226676   4.114   1.217   4.485 -0.3916 -0.2900 -0.1368
   48MOL   C26326677   4.196   1.107   4.549  0.0891  0.7791 -1.0833
   48MOL   O26426678   4.127   0.992   4.546 -0.3779  0.4260  0.4967
   48MOL   C26526679   4.157   0.885   4.638  0.0667 -0.2647 -0.3562
   48MOL   C26626680   4.229   0.768   4.572  0.7444  0.4885  0.2279
   48MOL   O26726681   4.296   1.129   4.619  0.4349 -0.3284  0.1735
   48MOL   C26826682   4.137   1.351   4.528  0.0905  0.2181 -0.1872
   48MOL   C26926683   4.064   1.450   4.460 -0.8432 -0.1709 -0.2840
   48MOL   C27026684   4.082   1.582   4.507 -0.0355  0.0556  0.2439
   48MOL   C27126685   4.017   1.689   4.440 -0.4267  0.7984 -0.1338
   48MOL   H27226686   3.831   1.531   4.216 -0.4011  0.3984  0.2483
   48MOL   H27326687   3.894   1.269   4.230  1.8079 -3.3678 -0.2544
   48MOL   H27426688   4.005   1.089   4.358  2.9618  0.2360 -1.0637
   48MOL   H27526689   4.071   0.844   4.690  1.2017  0.7198  2.3709
   48MOL   H27626690   4.201   0.924   4.730 -0.1863  1.0954 -0.8085
   48MOL   H27726691   4.290   0.801   4.488  2.4112 -1.5626  0.5771
   48MOL   H27826692   4.308   0.723   4.632  1.3286  1.4150  0.1548
   48MOL   H27926693   4.200   1.381   4.610  2.1681 -3.1183 -0.4489
   48MOL   H28026694   4.149   1.613   4.586 -0.8384  1.5423  0.3640
   48MOL   H28126695   4.040   1.789   4.474 -1.2528  0.3848  1.7082
   48MOL   O28226696   4.190   0.508   4.661  0.1528  0.1356  0.1781
   48MOL   C28326697   4.123   0.551   4.566  0.3399  0.0611  0.7104
   48MOL   O28426698   4.136   0.672   4.521  0.4631 -0.2666  0.2133
   48MOL   C28526699   4.036   0.474   4.475  0.3836  0.3090 -0.5979
   48MOL   C28626700   4.048   0.329   4.479  0.1507  0.3769  0.1784
   48MOL   C28726701   3.974   0.247   4.394 -0.0434 -0.3065  0.2661
   48MOL   C28826702   3.982   0.107   4.393 -0.2311  1.0075  0.2798
   48MOL   C28926703   3.914   0.035   4.293  0.1573  0.0175 -0.3055
   48MOL   C29026704   3.846   0.101   4.191  0.1121 -0.3574  0.1103
   48MOL   C29126705   3.786   0.020   4.077 -0.2970 -0.6017  0.0092
   48MOL   O29226706   3.861   8.160   4.037 -0.0104 -0.3545 -0.2869
   48MOL   C29326707   3.827   8.094   3.913 -0.0302  0.0402  0.2413
   48MOL   C29426708   3.967   8.091   3.843 -0.6922 -0.2118  0.0971
   48MOL   O29526709   3.696   0.064   3.998  0.2356 -0.0552  0.6489
   48MOL   C29626710   3.831   0.240   4.196  0.1186  0.0303  0.1190
   48MOL   C29726711   3.894   0.316   4.297  0.0726  0.1112 -0.4139
   48MOL   C29826712   3.878   0.453   4.291 -0.3926 -0.1250  0.4352
   48MOL   C29926713   3.941   0.532   4.388 -0.5952 -0.1716 -0.0367
   48MOL   H30026714   4.113   0.286   4.555 -2.0228 -0.9918  1.3110
   48MOL   H30126715   4.048   0.057   4.462  0.6827 -0.1280 -1.3996
   48MOL   H30226716   3.917   8.176   4.291 -1.8177 -0.0528 -1.6498
   48MOL   H30326717   3.755   8.146   3.850  0.0240  0.9767  0.9412
   48MOL   H30426718   3.799   7.990   3.925 -1.9424  0.4876 -0.2426
   48MOL   H30526719   4.006   8.189   3.871 -0.6581  0.0333 -0.7800
   48MOL   H30626720   4.018   8.005   3.887 -0.2991  0.6579  1.3481
   48MOL   H30726721   3.781   0.288   4.113  2.4582 -0.0483 -1.3786
   48MOL   H30826722   3.819   0.498   4.212  2.4290  1.3930 -0.8825
   48MOL   H30926723   3.924   0.637   4.371  0.4083 -0.0849 -0.5123
   48MOL   O31026724   4.171   8.092   3.676  0.1279  0.0858 -0.2067
   48MOL   C31126725   4.058   8.078   3.630 -0.4340 -0.0258 -0.0400
   48MOL   O31226726   3.951   8.070   3.703 -0.4823 -0.5308 -0.7501
   48MOL   C31326727   4.029   8.064   3.483 -0.0232  0.7442  0.0898
   48MOL   C31426728   3.907   8.010   3.437 -0.1790 -0.1319 -1.0079
   48MOL   C31526729   3.880   8.022   3.297  0.5964 -0.2075 -0.7782
   48MOL   C31626730   3.755   7.972   3.254 -0.1055  0.0519  0.8838
   48MOL   C31726731   3.719   7.975   3.120  0.6393 -0.0807  0.0829
   48MOL   C31826732   3.808   8.035   3.030 -0.2401 -0.1107  0.1895
   48MOL   C31926733   3.770   8.039   2.887  0.2732 -0.1468 -0.5684
   48MOL   O32026734   3.873   8.058   2.812 -0.1300  0.2055 -0.2820
   48MOL   C32126735   3.864   8.077   2.666 -0.2468  0.1442  0.5105
   48MOL   C32226736   3.831   8.227   2.647  0.7973  0.0208 -0.5172
   48MOL   O32326737   3.652   8.036   2.847 -0.3539 -0.0775  0.7564
   48MOL   C32426738   3.934   8.090   3.070  0.1638  0.8396 -0.8211
   48MOL   C32526739   3.972   8.072   3.203  0.0467  0.4518 -0.4753
   48MOL   C32626740   4.099   8.116   3.248  0.2126 -0.6357 -0.4157
   48MOL   C32726741   4.129   8.112   3.389  0.2855  0.0042  0.1116
   48MOL   H32826742   3.831   7.983   3.509 -0.3542  1.9937 -0.3705
   48MOL   H32926743   3.686   7.931   3.326 -1.0396  0.3936  0.1924
   48MOL   H33026744   3.627   7.927   3.088  0.9576 -1.4925  1.2359
   48MOL   H33126745   3.807   8.004   2.609  0.1850  0.1397  0.0862
   48MOL   H33226746   3.966   8.057   2.631  0.1518  1.8027  0.6612
   48MOL   H33326747   3.865   0.004   2.547  1.8093  1.9049  0.2958
   48MOL   H33426748   3.723   8.244   2.647  0.4943 -1.6627 -2.2457
   48MOL   H33526749   4.007   8.142   3.010  2.1954 -0.0983  0.7910
   48MOL   H33626750   4.174   8.163   3.187  0.7518 -1.3533 -0.3179
   48MOL   H33726751   4.223   8.146   3.430  0.2487 -0.5634  0.6681
   48MOL   O33826752   4.091   0.075   2.629 -0.0354 -0.0020  0.4343
   48MOL   C33926753   4.016   0.108   2.722  0.1765  0.4628 -0.1675
   48MOL   O34026754   3.895   0.052   2.746 -0.2610 -0.1718 -0.0033
   48MOL   C34126755   4.039   0.218   2.821  0.8013 -0.0258 -0.3835
   48MOL   C34226756   3.990   0.212   2.953 -0.1244 -0.1996  0.0925
   48MOL   C34326757   4.024   0.309   3.048 -0.0234  0.7307  0.3219
   48MOL   C34426758   3.981   0.300   3.187 -0.3242 -0.2298  0.1671
   48MOL   C34526759   4.027   0.396   3.282  0.1210 -0.1437 -0.3638
   48MOL   C34626760   4.115   0.501   3.245  0.3414 -0.0605  0.7662
   48MOL   C34726761   4.169   0.598   3.347  0.4346 -0.1302  0.0255
   48MOL   O34826762   4.122   0.578   3.470 -0.2245 -0.9385 -0.2266
   48MOL   C34926763   4.143   0.668   3.573 -0.2674 -0.0765 -0.1687
   48MOL   C35026764   4.285   0.660   3.630  0.7180  0.3091 -0.8291
   48MOL   O35126765   4.244   0.691   3.312  0.1275  0.0125 -0.2066
   48MOL   C35226766   4.161   0.502   3.110 -0.1064 -0.7273  0.7433
   48MOL   C35326767   4.116   0.408   3.010 -0.3809 -0.3508  0.5350
   48MOL   C35426768   4.158   0.422   2.878 -0.3975  0.1608  0.6160
   48MOL   C35526769   4.124   0.322   2.781  0.4102  0.0183  0.1377
   48MOL   H35626770   3.930   0.132   2.993 -0.5259 -0.4047 -0.9135
   48MOL   H35726771   3.928   0.210   3.214 -0.2422  0.4211  2.6239
   48MOL   H35826772   3.980   0.385   3.379  2.8546  1.1035  1.1631
   48MOL   H35926773   4.073   0.649   3.655 -0.1038 -1.3290 -0.3161
   48MOL   H36026774   4.120   0.771   3.543 -1.7344 -0.0982  0.7799
   48MOL   H36126775   4.312   0.559   3.657 -1.6043 -0.3213 -0.6934
   48MOL   H36226776   4.356   0.688   3.552  2.0511  0.3299  0.3764
   48MOL   H36326777   4.228   0.584   3.088  1.0414 -1.2575  2.2181
   48MOL   H36426778   4.226   0.504   2.858 -0.6426 -0.2371 -2.0870
   48MOL   H36526779   4.171   0.327   2.684 -0.3843 -2.6276 -0.4169
   48MOL   O36626780   4.412   0.571   3.864 -0.1059 -0.1328  0.6593
   48MOL   C36726781   4.378   0.686   3.853  0.4281 -0.3660 -0.1723
   48MOL   O36826782   4.303   0.734   3.748  0.3276 -0.6034 -0.0671
   48MOL   C36926783   4.408   0.793   3.952  0.3291  0.5447 -0.8489
   48MOL   C37026784   4.446   0.760   4.087 -0.0488  0.2510  0.6513
   48MOL   C37126785   4.475   0.864   4.186 -0.1877  0.6891 -0.5643
   48MOL   C37226786   4.512   0.826   4.314  0.7081 -0.7739  0.0102
   48MOL   C37326787   4.537   0.923   4.413 -0.2010 -0.0725 -0.7954
   48MOL   C37426788   4.531   1.060   4.378  1.0969  0.6113  0.1439
   48MOL   C37526789   4.561   1.162   4.472 -0.1323  0.1734  0.3958
   48MOL   O37626790   4.581   1.120   4.601  0.5624 -0.5196 -0.2307
   48MOL   C37726791   4.581   1.216   4.704  0.1644  0.6427  0.0466
   48MOL   C37826792   4.514   1.152   4.829 -0.4656  0.5327  0.0955
   48MOL   O37926793   4.556   1.280   4.436 -0.4046  0.2284 -0.5621
   48MOL   C38026794   4.490   1.091   4.244 -0.0838 -0.9039  0.4772
   48MOL   C38126795   4.462   0.995   4.146  0.2727  0.1513 -0.4419
   48MOL   C38226796   4.419   1.030   4.015 -0.3034  0.0331 -0.6648
   48MOL   C38326797   4.394   0.929   3.919  0.3656 -0.1218  0.1265
   48MOL   H38426798   4.438   0.657   4.117 -0.5943 -0.5250 -1.9863
   48MOL   H38526799   4.528   0.724   4.345  0.3089 -1.7187 -2.7840
   48MOL   H38626800   4.558   0.893   4.514 -1.3029  2.3399  0.1825
   48MOL   H38726801   4.519   1.303   4.681  0.1845  0.4491 -0.7472
   48MOL   H38826802   4.682   1.255   4.716  0.0779  1.0018 -0.3903
   48MOL   H38926803   4.467   1.236   4.879 -1.5392 -0.5656  0.9511
   48MOL   H39026804   4.437   1.076   4.816  1.1506 -1.0944 -0.1039
   48MOL   H39126805   4.467   1.194   4.222  3.0981 -0.2237  0.1150
   48MOL   H39226806   4.405   1.135   3.995 -0.4798  0.9193  3.7178
   48MOL   H39326807   4.376   0.950   3.815 -3.7506  0.8031  0.9646
   48MOL   O39426808   4.670   1.333   4.964 -0.8710 -0.0984 -0.2703
   48MOL   C39526809   4.681   1.213   4.993  0.1291 -0.7025  0.2189
   48MOL   O39626810   4.611   1.115   4.929 -0.4287 -0.0133 -0.1730
   48MOL   C39726811   4.771   1.158   5.100  0.1919 -0.2312  0.1612
   48MOL   C39826812   4.748   1.027   5.144 -0.4584 -0.3231  0.8159
   48MOL   C39926813   4.831   0.967   5.235  0.4392 -0.6618  0.3446
   48MOL   C40026814   4.812   0.831   5.281  0.2372  0.2939 -0.6747
   48MOL   C40126815   4.903   0.771   5.371  0.2432 -0.9331  0.2383
   48MOL   C40226816   5.014   0.848   5.418  0.9343 -0.0985  0.8397
   48MOL   C40326817   5.108   0.780   5.513 -0.8633  0.4316  0.1316
   48MOL   O40426818   5.210   0.863   5.552 -0.0071  0.1649 -0.3201
   48MOL   C40526819   5.319   0.812   5.619  1.1133  0.4026  0.6113
   48MOL   C40626820   5.310   0.815   5.770 -0.2362  0.2029  0.3821
   48MOL   O40726821   5.090   0.666   5.550  0.3687  0.6561 -0.0237
   48MOL   C40826822   5.031   0.980   5.375 -0.2267 -0.0348 -0.6004
   48MOL   C40926823   4.940   1.041   5.286 -0.0972  0.2461 -0.2321
   48MOL   C41026824   4.963   1.172   5.248  0.1405 -0.0603  0.2375
   48MOL   C41126825   4.880   1.233   5.156  0.0725 -0.8172  0.5083
   48MOL   H41226826   4.674   0.963   5.098 -0.9103  0.4033  0.5307
   48MOL   H41326827   4.724   0.776   5.250  0.4365 -1.1892  1.3105
   48MOL   H41426828   4.881   0.670   5.401 -1.4312 -0.7447 -0.2996
   48MOL   H41526829   5.404   0.879   5.600 -0.3083  2.5172  1.5409
   48MOL   H41626830   5.349   0.711   5.592 -0.8745  0.3317 -1.4572
   48MOL   H41726831   5.415   0.800   5.798 -0.0381  0.8796  0.0089
   48MOL   H41826832   5.270   0.911   5.803 -2.8265 -1.1500  1.3044
   48MOL   H41926833   5.110   1.038   5.421  0.7706 -0.7221 -1.4417
   48MOL   H42026834   5.042   1.229   5.295 -2.0482  3.3080  0.0111
   48MOL   H42126835   4.884   1.338   5.131  0.1910 -1.5047 -2.5711
   48MOL   O42226836   5.175   0.820   6.013  0.4675 -0.2776 -0.7185
   48MOL   C42326837   5.154   0.726   5.934  0.0558  0.1636  0.3713
   48MOL   O42426838   5.227   0.714   5.815 -0.0967 -0.0474 -0.1066
   48MOL   C42526839   5.054   0.620   5.961 -0.0273  0.3001 -0.7160
   48MOL   C42626840   4.993   0.614   6.087  0.8203  0.6161  0.2053
   48MOL   C42726841   4.894   0.514   6.118  0.4559  0.1925  0.0517
   48MOL   C42826842   4.827   0.503   6.242 -0.1876 -0.1097 -0.1803
   48MOL   C42926843   4.723   0.411   6.258 -0.3318  0.1698  0.1857
   48MOL   C43026844   4.683   0.319   6.157 -0.7955 -0.7209 -0.9258
   48MOL   C43126845   4.596   0.204   6.186  0.0728 -0.3515  0.0481
   48MOL   O43226846   4.631   0.103   6.108  0.1464  0.2242  0.2898
   48MOL   C43326847   4.558   8.227   6.102  0.1260  0.4863  0.0676
   48MOL   C43426848   4.567   8.187   5.952  0.6028  0.0881  0.7687
   48MOL   O43526849   4.497   0.202   6.261 -0.3533 -0.3029 -0.7127
   48MOL   C43626850   4.749   0.334   6.034  0.2411  0.0345 -0.0992
   48MOL   C43726851   4.848   0.433   6.013 -0.2153 -0.3454 -0.3519
   48MOL   C43826852   4.907   0.445   5.888  0.5088 -0.3422 -0.7828
   48MOL   C43926853   5.010   0.531   5.864 -0.5419 -0.6728  0.3943
   48MOL   H44026854   5.030   0.681   6.164  1.5245  0.2691  0.1702
   48MOL   H44126855   4.836   0.588   6.308 -0.7527 -0.7291  0.6992
   48MOL   H44226856   4.668   0.409   6.351 -2.5216  1.2672 -1.0369
   48MOL   H44326857   4.461   8.235   6.151 -0.0143  3.6293 -0.5981
   48MOL   H44426858   4.616   8.162   6.168  0.8297  1.9499  0.9211
   48MOL   H44526859   4.672   8.170   5.929  0.0767 -0.5113 -1.3565
   48MOL   H44626860   4.512   8.093   5.949  3.3260 -1.5257 -3.1215
   48MOL   H44726861   4.735   0.258   5.959  0.4785  0.6465 -0.7714
   48MOL   H44826862   4.871   0.384   5.806 -0.7870  0.1427 -0.5753
   48MOL   H44926863   5.058   0.543   5.768  1.5420  0.3523  1.5224
   48MOL   O45026864   4.476   8.127   5.708 -0.0588 -0.3987 -0.3321
   48MOL   C45126865   4.447   8.241   5.746 -0.5626  0.1868  0.1192
   48MOL   O45226866   4.486   0.034   5.871 -0.9033 -0.3390 -0.1167
   48MOL   C45326867   4.362   0.092   5.663  0.2193 -0.2807  0.0981
   48MOL   C45426868   4.322   0.059   5.532  0.3108  0.4161 -0.0250
   48MOL   C45526869   4.256   0.149   5.448 -0.6424  0.2457 -0.8615
   48MOL   C45626870   4.219   0.116   5.316  0.9459  0.0331  0.7577
   48MOL   C45726871   4.135   0.206   5.244  0.4797 -0.0829 -0.2686
   48MOL   C45826872   4.090   0.330   5.300  0.3797 -0.6142 -0.3524
   48MOL   C45926873   4.001   0.422   5.233 -1.2001 -0.0096 -0.6945
   48MOL   O46026874   3.937   0.363   5.132 -0.3265  0.2505 -0.4176
   48MOL   C46126875   3.829   0.427   5.064  0.0745  0.5630 -0.8116
   48MOL   C46226876   3.716   0.401   5.163  0.0540  0.4562  0.3779
   48MOL   O46326877   3.987   0.540   5.263 -0.3038  0.4290 -0.4404
   48MOL   C46426878   4.146   0.363   5.425 -0.1113 -0.9786 -0.0111
   48MOL   C46526879   4.228   0.273   5.501  0.3109 -0.2610  0.5390
   48MOL   C46626880   4.268   0.316   5.632  0.7981  0.1082  0.0735
   48MOL   C46726881   4.338   0.222   5.707 -0.2567 -0.6469 -0.0167
   48MOL   H46826882   4.337   8.207   5.497 -0.0865 -0.4448  2.2561
   48MOL   H46926883   4.237   0.017   5.277 -3.8655 -0.4794 -0.5057
   48MOL   H47026884   4.098   0.167   5.151  2.8132  0.5826 -1.5172
   48MOL   H47126885   3.803   0.394   4.963 -0.4347 -0.5253 -0.3303
   48MOL   H47226886   3.853   0.533   5.065 -0.2252  0.6219  0.1666
   48MOL   H47326887   3.753   0.386   5.265  0.9997  1.5889  0.2123
   48MOL   H47426888   3.646   0.483   5.176  0.0964  1.0245 -2.7199
   48MOL   H47526889   4.121   0.453   5.479 -0.8284 -0.0136 -1.9283
   48MOL   H47626890   4.249   0.420   5.655  0.6069  0.1501 -0.2640
   48MOL   H47726891   4.382   0.254   5.800 -0.1266  0.8136 -0.5631
   48MOL   O47826892   3.598   0.191   5.320  0.3405  0.0878  0.0067
   48MOL   C47926893   3.591   0.192   5.193 -0.1874  0.0882 -0.8443
   48MOL   O48026894   3.640   0.288   5.115 -0.3553 -0.2296 -0.8417
   48MOL   C48126895   3.516   0.084   5.130  0.4052  0.2183 -1.0847
   48MOL   C48226896   3.418   0.014   5.212  0.5964  0.4939 -0.0031
   48MOL   C48326897   3.366   8.147   5.161 -0.2853  0.1698  0.0958
   48MOL   C48426898   3.295   8.059   5.242 -0.4881  0.0799  0.2013
   48MOL   C48526899   3.226   7.947   5.193  1.1904 -0.2439  0.8915
   48MOL   C48626900   3.247   7.909   5.060  0.5127 -0.2390 -0.1706
   48MOL   C48726901   3.194   7.777   5.019  0.2770 -0.0405  0.0551
   48MOL   O48826902   3.101   7.721   5.108  0.2544  0.4628 -0.1433
   48MOL   C48926903   3.050   7.588   5.072  0.0480 -0.3669 -0.0755
   48MOL   C49026904   2.934   7.611   4.979 -0.1589  0.6347  0.2356
   48MOL   O49126905   3.222   7.728   4.908  0.4662 -0.0331  0.1854
   48MOL   C49226906   3.322   7.993   4.980  0.0755  0.3801 -0.1497
   48MOL   C49326907   3.378   8.112   5.028 -0.0415  0.1386  0.0627
   48MOL   C49426908   3.455   8.192   4.942 -0.1959 -0.3940 -0.1620
   48MOL   C49526909   3.534   0.051   4.996  0.0018 -0.3700  0.2190
   48MOL   H49626910   3.389   0.048   5.310  0.3962  0.7254 -0.1437
   48MOL   H49726911   3.297   8.087   5.346 -0.5268 -1.1337  0.5346
   48MOL   H49826912   3.173   7.875   5.253  1.1094 -1.4590 -0.6300
   48MOL   H49926913   3.035   7.516   5.152  3.6553 -0.9177  0.1625
   48MOL   H50026914   3.126   7.536   5.014  0.2206 -0.5935  0.3541
   48MOL   H50126915   2.842   7.582   5.030 -0.2903  1.1655  0.3043
   48MOL   H50226916   2.916   7.716   4.958 -1.5764  0.1700 -0.9904
   48MOL   H50326917   3.341   7.969   4.876 -0.0323  1.6233 -0.4586
   48MOL   H50426918   3.466   8.168   4.837 -1.3665  0.3860 -0.4812
   48MOL   H50526919   3.601   0.105   4.930  1.7935 -1.7383  0.8766
   48MOL   O50626920   2.802   7.394   4.850  0.3817  0.4122  0.0355
   48MOL   C50726921   2.901   7.454   4.796 -0.1683 -0.9015  0.4081
   48MOL   O50826922   2.963   7.561   4.851 -0.5816 -0.0178  0.1630
   48MOL   C50926923   2.966   7.414   4.675  0.0240 -0.4794  0.8198
   48MOL   C51026924   2.887   7.341   4.580 -0.5273 -0.2252 -0.1062
   48MOL   C51126925   2.937   7.309   4.452  0.5487  0.5673  0.2327
   48MOL   C51226926   2.864   7.238   4.350 -0.3978  0.2378 -0.1090
   48MOL   C51326927   2.930   7.211   4.226 -0.9871 -0.3794  0.3239
   48MOL   C51426928   3.059   7.257   4.200 -1.0910  0.3605 -0.7563
   48MOL   C51526929   3.129   7.223   4.074 -0.0622 -0.2206  0.9766
   48MOL   O51626930   3.264   7.213   4.092 -0.0307  0.0182  0.0897
   48MOL   C51726931   3.350   7.155   3.989  0.6805  0.0424 -0.0833
   48MOL   C51826932   3.315   7.008   3.957 -0.2523 -0.4126 -0.5006
   48MOL   O51926933   3.070   7.192   3.971  0.1536 -0.0458  0.8692
   48MOL   C52026934   3.133   7.320   4.304  0.5960  0.2294  0.7493
   48MOL   C52126935   3.072   7.340   4.427 -0.1621  0.3636 -0.4207
   48MOL   C52226936   3.155   7.401   4.526 -0.2730 -0.0523 -0.1330
   48MOL   C52326937   3.100   7.441   4.646 -0.1125  0.3074 -0.1984
   48MOL   H52426938   2.785   7.315   4.604 -0.8787 -0.3874 -1.7196
   48MOL   H52526939   2.763   7.204   4.366  0.1924 -2.0127 -0.9638
   48MOL   H52626940   2.880   7.165   4.142 -0.0991  1.9255 -1.5277
   48MOL   H52726941   3.451   7.157   4.029  0.8132  1.8828 -0.4433
   48MOL   H52826942   3.350   7.219   3.901 -2.1280 -2.6992 -2.1671
   48MOL   H52926943   3.405   6.947   3.955 -0.4820 -0.7258 -2.9948
   48MOL   H53026944   3.250   6.957   4.028 -1.3382  1.7402  0.0837
   48MOL   H53126945   3.236   7.352   4.295 -0.1940  2.1073 -2.7038
   48MOL   H53226946   3.256   7.431   4.501  0.0083 -0.6700  0.2483
   48MOL   H53326947   3.164   7.503   4.708 -0.8897  0.2760  0.6566
   48MOL   O53426948   3.448   6.992   3.713  0.6599 -0.7653 -0.4429
   48MOL   C53526949   3.330   6.966   3.721  0.0979  0.9154 -0.8630
   48MOL   O53626950   3.252   6.981   3.834  0.1595 -0.2838 -0.2307
   48MOL   C53726951   3.239   6.932   3.601 -0.1319  0.1258  0.5865
   48MOL   C53826952   3.306   6.893   3.484 -0.3532 -0.2621  1.1065
   48MOL   C53926953   3.228   6.860   3.374  0.0287  0.1387  0.5352
   48MOL   C54026954   3.292   6.823   3.256 -0.2877 -0.2877 -0.0791
   48MOL   C54126955   3.222   6.764   3.149  0.5333 -0.0060  0.1686
   48MOL   C54226956   3.081   6.753   3.154  0.4811 -0.3220 -0.4221
   48MOL   C54326957   3.011   6.686   3.037  0.0111 -0.1792  0.6513
   48MOL   O54426958   3.098   6.620   2.945 -0.1710 -0.3948  0.0917
   48MOL   C54526959   3.046   6.569   2.825  0.6347 -0.5665  0.4233
   48MOL   C54626960   3.010   6.422   2.826 -0.7810 -0.0459 -0.0275
   48MOL   O54726961   2.890   6.688   3.022  0.2934  0.1080 -0.0192
   48MOL   C54826962   3.014   6.781   3.281 -0.4087 -0.4102 -0.2976
   48MOL   C54926963   3.087   6.838   3.387  0.6506 -0.2731 -0.2515
   48MOL   C55026964   3.023   6.872   3.507  0.6223 -0.5889 -0.3613
   48MOL   C55126965   3.102   6.923   3.608  0.1234 -0.2177 -0.1788
   48MOL   H55226966   3.413   6.883   3.477 -0.5989 -2.3875  0.0614
   48MOL   H55326967   3.399   6.826   3.243  0.0821  3.9436  2.8470
   48MOL   H55426968   3.265   6.742   3.053  0.1341  1.8186 -0.4514
   48MOL   H55526969   3.119   6.591   2.748 -0.7359 -0.9349 -1.0155
   48MOL   H55626970   2.953   6.623   2.809  0.6248 -0.5517  0.5318
   48MOL   H55726971   2.944   6.391   2.907  0.3791 -0.0765  0.9232
   48MOL   H55826972   3.096   6.355   2.815 -1.5434 -1.1212  0.4014
   48MOL   H55926973   2.909   6.754   3.288 -0.1218 -1.0559  1.7374
   48MOL   H56026974   2.919   6.842   3.511  0.3862  0.0825 -1.3707
   48MOL   H56126975   3.061   6.959   3.701 -2.6248 -1.9470 -0.6330
   48MOL   H56226976   2.965   6.404   2.728  1.1407 -0.4842 -0.8475
   49MOL     O126977   7.817   0.067   7.617  0.3916 -0.1898  0.1343
   49MOL     C226978   7.910   8.238   7.642 -0.2403  0.4367  0.7054
   49MOL     O326979   7.959   8.224   7.764  0.1657 -0.3480  0.5154
   49MOL     C426980   7.984   8.151   7.541 -0.6223 -0.3139  0.2639
   49MOL     C526981   7.947   8.155   7.405 -0.3719 -0.5592  0.1662
   49MOL     C626982   8.012   8.069   7.312  1.0418 -0.1676  0.6190
   49MOL     C726983   7.987   8.071   7.174  0.3452 -0.0277 -0.5260
   49MOL     C826984   8.055   7.978   7.092 -0.5253 -0.2268 -0.1412
   49MOL     C926985   8.160   7.892   7.138 -0.3020  0.0365 -0.1981
   49MOL    C1026986   0.001   7.816   7.042  0.2357  0.0683  0.0592
   49MOL    O1126987   0.094   7.750   7.104  0.3055 -0.3866 -0.8626
   49MOL    C1226988   0.197   7.684   7.032  0.1331 -0.3859 -0.6016
   49MOL    C1326989   0.295   7.788   6.973  0.6880 -0.1236  0.0075
   49MOL    O1426990   8.232   7.810   6.923  0.1479  0.2768  0.3192
   49MOL    C1526991   8.181   7.890   7.274  0.4303 -0.9214 -0.0349
   49MOL    C1626992   8.107   7.977   7.360 -0.2863 -0.8784 -0.5992
   49MOL    C1726993   8.150   7.977   7.497 -0.5739 -0.0850  0.0593
   49MOL    C1826994   8.078   8.058   7.584  0.2285  0.7616 -0.1916
   49MOL    H1926995   7.875   8.232   7.380 -0.1574 -0.1273  0.8562
   49MOL    H2026996   7.906   8.129   7.131  0.2334  0.1484 -0.0774
   49MOL    H2126997   8.038   7.987   6.985  0.6724  0.7288 -0.2699
   49MOL    H2226998   0.237   7.618   7.109  1.5416  0.8216 -0.2692
   49MOL    H2326999   0.144   7.625   6.958  0.6598 -0.7502 -0.6944
   49MOL    H2427000   0.388   7.753   6.928  0.2343  1.3906 -2.2012
   49MOL    H2527001   0.234   7.835   6.896  0.2938 -1.3597 -0.4344
   49MOL    H2627002   0.019   7.839   7.312  0.9538 -0.5027 -0.6606
   49MOL    H2727003   8.220   7.898   7.521  0.5855  0.6629 -0.8267
   49MOL    H2827004   8.114   8.058   7.686  1.4178 -1.0762 -0.5784
   49MOL    H2927005   7.914   0.040   7.815  0.0321 -0.6300  0.7610
   49MOL    O3027006   0.435   7.744   7.229  0.3053  0.4534 -0.1589
   49MOL    C3127007   0.381   7.850   7.198  0.4761  0.3622 -0.0920
   49MOL    O3227008   0.330   7.887   7.069 -0.1996 -0.3343 -0.4634
   49MOL    C3327009   0.350   7.963   7.294  0.5021 -0.1911  0.1093
   49MOL    C3427010   0.253   8.065   7.272  0.3601  0.1532  0.0247
   49MOL    C3527011   0.220   8.147   7.379  0.1947  0.1969  0.1901
   49MOL    C3627012   0.126   8.241   7.363  0.3824  0.8200 -0.3418
   49MOL    C3727013   0.085   0.074   7.471  0.1322 -0.8489 -0.3505
   49MOL    C3827014   0.142   0.056   7.597 -0.2952  0.0197 -0.3298
   49MOL    C3927015   0.094   0.129   7.716  0.0574  0.0452  0.0390
   49MOL    O4027016   0.073   0.255   7.684 -0.0148  0.4254  0.0396
   49MOL    C4127017   8.235   0.337   7.758  1.0204  0.7100 -0.2342
   49MOL    C4227018   8.084   0.313   7.751  0.6306  0.1153  0.2925
   49MOL    O4327019   0.080   0.084   7.829 -0.5409 -0.7940 -0.1431
   49MOL    C4427020   0.242   8.213   7.615 -0.1466 -0.1667  0.3461
   49MOL    C4527021   0.280   8.131   7.506  0.4936 -0.6431 -0.0466
   49MOL    C4627022   0.376   8.028   7.525  0.4435  0.3633  0.4113
   49MOL    C4727023   0.408   7.944   7.417  0.2283 -0.9405 -0.0227
   49MOL    H4827024   0.207   8.075   7.175  1.4127  0.5120 -0.4474
   49MOL    H4927025   0.071   8.248   7.270  0.9462 -1.7482 -0.9175
   49MOL    H5027026   8.245   0.132   7.450 -0.5422 -1.7127  0.0735
   49MOL    H5127027   0.013   0.439   7.729  0.6201  0.5749 -1.0779
   49MOL    H5227028   0.019   0.335   7.862  1.6333  2.1040 -0.3939
   49MOL    H5327029   8.060   0.210   7.776 -2.4537  1.1874  2.0917
   49MOL    H5427030   8.031   0.385   7.814 -1.3451 -0.4211 -0.7315
   49MOL    H5527031   0.293   8.188   7.707  2.0361 -0.9792 -1.0413
   49MOL    H5627032   0.420   8.017   7.623 -1.9797 -1.9973  1.3085
   49MOL    H5727033   0.474   7.862   7.440 -2.9841 -3.0147  2.3554
   49MOL    O5827034   8.067   0.566   7.629 -0.5311  0.2273 -0.1368
   49MOL    C5927035   8.030   0.467   7.563 -0.7482 -0.3837 -0.6225
   49MOL    O6027036   8.034   0.336   7.616 -0.2374 -0.2109  0.6015
   49MOL    C6127037   7.998   0.464   7.417  0.4051  0.1297 -0.3747
   49MOL    C6227038   8.022   0.575   7.337 -0.8967  0.1721  0.2465
   49MOL    C6327039   7.986   0.569   7.198  0.6444 -0.7440 -0.1008
   49MOL    C6427040   7.993   0.685   7.120  0.1556 -0.0787 -0.3635
   49MOL    C6527041   7.950   0.686   6.990 -0.4756  0.8546  0.2230
   49MOL    C6627042   7.914   0.561   6.919 -0.2510 -0.0328  0.1684
   49MOL    C6727043   7.893   0.558   6.770  0.5316 -0.1053  0.1327
   49MOL    O6827044   7.838   0.436   6.725  0.5725  0.0033  0.0380
   49MOL    C6927045   7.853   0.395   6.588  0.7467  0.2866  0.7919
   49MOL    C7027046   7.748   0.467   6.497  0.9857  0.0225 -0.2860
   49MOL    O7127047   7.945   0.645   6.695  0.4044  0.2090  0.3341
   49MOL    C7227048   7.904   0.447   6.998  0.5635  0.6450 -0.0815
   49MOL    C7327049   7.938   0.452   7.136 -0.6990 -0.3676 -0.3563
   49MOL    C7427050   7.917   0.341   7.214  0.3833  0.7475 -0.6819
   49MOL    C7527051   7.940   0.350   7.356 -0.1159 -0.1724 -0.2102
   49MOL    H7627052   8.073   0.663   7.373  0.5382 -1.1274  1.4750
   49MOL    H7727053   8.030   0.777   7.164  0.9114 -1.3626  1.7554
   49MOL    H7827054   7.961   0.778   6.935  0.4633  0.8086  0.3285
   49MOL    H7927055   7.865   0.288   6.573 -0.4045  0.3923 -0.9630
   49MOL    H8027056   7.951   0.435   6.562 -1.1094  1.8702 -4.3756
   49MOL    H8127057   7.650   0.442   6.536  1.6665  0.4425  1.7573
   49MOL    H8227058   7.768   0.575   6.494 -0.1230  0.2097 -1.4189
   49MOL    H8327059   7.876   0.355   6.948 -1.1857  0.9097  0.4022
   49MOL    H8427060   7.879   0.251   7.168 -0.1731  1.1184 -0.9503
   49MOL    H8527061   7.922   0.262   7.416  0.7693 -1.2776 -1.5513
   49MOL    O8627062   7.642   0.236   6.389  0.0463  0.4083  0.3352
   49MOL    C8727063   7.717   0.301   6.317 -0.4736  0.7036  0.0898
   49MOL    O8827064   7.771   0.412   6.360  0.4438 -0.3322 -0.3837
   49MOL    C8927065   7.752   0.269   6.176 -0.2989 -0.2153  0.9175
   49MOL    C9027066   7.681   0.165   6.108  0.8424 -0.2883 -0.4779
   49MOL    C9127067   7.711   0.134   5.973  0.1513  0.8595 -0.5788
   49MOL    C9227068   7.635   0.041   5.901 -0.1917 -0.0898 -0.0069
   49MOL    C9327069   7.671   0.002   5.770  0.3216 -0.2859 -0.2523
   49MOL    C9427070   7.777   0.066   5.703 -0.2332 -0.3365 -0.5702
   49MOL    C9527071   7.831   0.024   5.567  0.6733 -0.3938  0.2445
   49MOL    O9627072   7.753   8.190   5.511  0.1495 -0.6013  0.3087
   49MOL    C9727073   7.787   8.096   5.418 -0.3246  0.1416 -0.7462
   49MOL    C9827074   7.662   8.003   5.413  0.5107 -0.2027  1.1878
   49MOL    O9927075   7.942   0.052   5.522  0.2617  0.3824  0.1528
   49MOL   C10027076   7.849   0.168   5.776 -0.8657  0.1251 -1.0205
   49MOL   C10127077   7.821   0.198   5.909 -0.3695 -0.8850  0.1054
   49MOL   C10227078   7.899   0.288   5.980 -0.5818 -0.2631  0.2054
   49MOL   C10327079   7.864   0.329   6.109  0.3132 -0.7604  0.4236
   49MOL   H10427080   7.590   0.120   6.145  0.8853 -1.5386 -1.8502
   49MOL   H10527081   7.559   8.234   5.954 -0.0890 -0.7132 -0.5133
   49MOL   H10627082   7.607   8.180   5.718  0.3063 -0.9117  0.6239
   49MOL   H10727083   7.876   8.039   5.447  0.3834  0.7533 -1.6813
   49MOL   H10827084   7.816   8.147   5.327  0.5390  2.7626  0.9571
   49MOL   H10927085   7.690   7.908   5.368 -0.2592  0.4542 -0.7412
   49MOL   H11027086   7.620   7.980   5.510 -2.8711 -2.5623 -0.7365
   49MOL   H11127087   7.934   0.222   5.738  0.2766 -1.3073 -0.5245
   49MOL   H11227088   7.992   0.322   5.938 -0.0909 -1.9605 -0.1094
   49MOL   H11327089   7.933   0.391   6.165  1.4322 -1.2072 -0.4420
   49MOL   O11427090   7.448   8.184   5.447  0.2074 -0.0246  0.1561
   49MOL   C11527091   7.475   8.142   5.339  0.7426  0.3103 -0.3895
   49MOL   O11627092   7.574   8.056   5.306 -0.3877  0.3853  0.0067
   49MOL   C11727093   7.405   8.184   5.211 -0.6004  0.8343  0.2088
   49MOL   C11827094   7.302   0.029   5.217  0.0062 -0.2373 -0.3179
   49MOL   C11927095   7.224   0.063   5.104  0.1995 -0.4082  0.3532
   49MOL   C12027096   7.118   0.153   5.112  0.1367 -0.4258 -0.4389
   49MOL   C12127097   7.032   0.177   5.001 -0.3025  0.3718  0.3603
   49MOL   C12227098   7.067   0.114   4.882  0.1665 -0.0987  0.1310
   49MOL   C12327099   6.959   0.110   4.774  0.7670 -0.4726 -0.3529
   49MOL   O12427100   6.846   0.179   4.802  0.1895 -0.3314 -0.0242
   49MOL   C12527101   6.731   0.172   4.721  0.0878 -0.3510  0.0750
   49MOL   C12627102   6.592   0.146   4.791  0.1617  0.2961 -0.1344
   49MOL   O12727103   6.972   0.042   4.671  0.1194 -0.4258  0.4086
   49MOL   C12827104   7.182   0.034   4.870 -0.0046 -0.0955 -0.4476
   49MOL   C12927105   7.261   0.008   4.979 -0.0259 -0.0654  0.3787
   49MOL   C13027106   7.366   8.167   4.970  0.8940  0.7200  0.3194
   49MOL   C13127107   7.436   8.130   5.083 -0.0410 -0.0666 -0.2360
   49MOL   H13227108   7.277   0.087   5.304 -1.4706  2.5268 -2.5132
   49MOL   H13327109   7.092   0.188   5.211  0.4857  1.5505 -1.0101
   49MOL   H13427110   6.944   0.237   5.019 -0.8196  0.1486 -1.3605
   49MOL   H13527111   6.737   0.087   4.653 -0.2512 -0.7848  0.5752
   49MOL   H13627112   6.736   0.266   4.667 -0.8435 -1.2787 -1.6439
   49MOL   H13727113   6.511   0.160   4.719 -0.7647  0.2280  0.8883
   49MOL   H13827114   6.574   0.049   4.836 -1.3422  0.9512  0.6982
   49MOL   H13927115   7.193   8.238   4.773 -1.1511  1.8359 -1.5165
   49MOL   H14027116   7.399   8.129   4.874  1.5231 -1.3505  1.3239
   49MOL   H14127117   7.513   8.054   5.073 -0.3949 -0.4211 -0.2772
   49MOL   O14227118   6.614   0.104   5.050  0.4664  0.8314 -0.3391
   49MOL   C14327119   6.583   0.216   5.014 -0.1061 -0.3876 -0.4667
   49MOL   O14427120   6.565   0.251   4.884  0.3222 -0.2195  0.0306
   49MOL   C14527121   6.573   0.336   5.109 -0.7143 -0.5839 -0.4118
   49MOL   C14627122   6.616   0.322   5.239 -0.5017 -0.0328  0.5539
   49MOL   C14727123   6.603   0.423   5.334 -0.5688 -0.1366 -0.2669
   49MOL   C14827124   6.629   0.401   5.474  0.5590  0.5161  0.9317
   49MOL   C14927125   6.610   0.502   5.567  0.6073  0.5505  0.1223
   49MOL   C15027126   6.541   0.622   5.536  0.3307 -0.8821  0.2422
   49MOL   C15127127   6.505   0.722   5.641  0.3261 -0.6563 -0.0678
   49MOL   O15227128   6.485   0.842   5.588 -0.4410  0.2883  0.5752
   49MOL   C15327129   6.429   0.946   5.670  0.0604  0.0397  0.4300
   49MOL   C15427130   6.331   1.022   5.581 -0.3809 -0.2078  0.7394
   49MOL   O15527131   6.485   0.693   5.754  0.2126  0.4568  0.0336
   49MOL   C15627132   6.498   0.636   5.398 -0.5481 -0.2934 -0.5046
   49MOL   C15727133   6.534   0.544   5.301  0.2672  0.0908 -0.2003
   49MOL   C15827134   6.488   0.562   5.168  0.6867  0.5512 -0.0865
   49MOL   C15927135   6.513   0.464   5.067  0.5578 -0.5675  0.3104
   49MOL   H16027136   6.650   0.225   5.273  1.7034  1.3760  2.4556
   49MOL   H16127137   6.674   0.306   5.499 -1.5134 -0.7163  0.1015
   49MOL   H16227138   6.640   0.480   5.669 -0.7545 -1.6166  0.0709
   49MOL   H16327139   6.508   1.010   5.709 -0.7617  0.2642  1.7386
   49MOL   H16427140   6.376   0.905   5.756 -2.1158  1.8899  0.0221
   49MOL   H16527141   6.340   1.126   5.614 -0.5682  0.5266 -1.4080
   49MOL   H16627142   6.365   1.020   5.478  1.8615 -0.2022  1.4530
   49MOL   H16727143   6.446   0.728   5.375  2.1047  1.7376  1.2025
   49MOL   H16827144   6.429   0.645   5.134  0.2949  0.1961 -0.2824
   49MOL   H16927145   6.476   0.475   4.966  3.4057  2.8725 -0.4272
   49MOL   O17027146   6.224   0.815   5.437 -0.0938  0.8980 -0.6316
   49MOL   C17127147   6.163   0.860   5.531  0.0918 -0.1545 -0.2835
   49MOL   O17227148   6.203   0.969   5.594  0.1905 -0.5574  0.3514
   49MOL   C17327149   6.044   0.799   5.581  0.4658 -0.2747 -0.2163
   49MOL   C17427150   5.948   0.744   5.488 -0.4013  0.1328 -0.8870
   49MOL   C17527151   5.832   0.681   5.535 -1.1810  0.5501 -0.0453
   49MOL   C17627152   5.735   0.627   5.449 -0.4289 -0.3783  0.2982
   49MOL   C17727153   5.620   0.561   5.499 -0.0762  0.0372  0.1347
   49MOL   C17827154   5.605   0.539   5.637 -0.7905 -0.1873 -0.9007
   49MOL   C17927155   5.488   0.483   5.688 -0.4524  0.4035  0.1187
   49MOL   O18027156   5.422   0.403   5.598 -0.8060 -0.1677 -0.1821
   49MOL   C18127157   5.309   0.324   5.649  0.1256 -0.2694  0.0908
   49MOL   C18227158   5.187   0.335   5.543 -0.2574 -0.4026 -0.4374
   49MOL   O18327159   5.443   0.500   5.800  0.2440 -0.0936  0.4751
   49MOL   C18427160   5.695   0.598   5.721  0.4082 -0.0110 -0.4791
   49MOL   C18527161   5.813   0.668   5.675  1.1468  0.4898  0.9727
   49MOL   C18627162   5.911   0.704   5.768 -0.2576 -0.4760  0.2340
   49MOL   C18727163   6.015   0.783   5.720  0.3570  0.5440  0.8010
   49MOL   H18827164   5.961   0.745   5.381 -1.4870 -1.0033 -1.0442
   49MOL   H18927165   5.738   0.659   5.346 -0.3195 -2.5957 -0.4115
   49MOL   H19027166   5.546   0.531   5.427 -0.3100 -2.8526  1.5173
   49MOL   H19127167   5.271   0.356   5.746  0.3453  1.9290 -0.5059
   49MOL   H19227168   5.341   0.220   5.657  1.0700 -0.1101 -1.4933
   49MOL   H19327169   5.106   0.386   5.595 -1.4060 -1.3003 -1.3092
   49MOL   H19427170   5.214   0.379   5.446  0.4017  0.7272  0.2507
   49MOL   H19527171   5.690   0.584   5.828 -1.2883  2.1948 -0.2293
   49MOL   H19627172   5.891   0.701   5.874  0.2137  1.6746  0.3943
   49MOL   H19727173   6.079   0.824   5.797  1.3633 -2.2481  1.4783
   49MOL   O19827174   5.091   0.152   5.735 -0.0033  0.1208 -0.4680
   49MOL   C19927175   5.082   0.127   5.618  0.6977  0.7026 -0.1450
   49MOL   O20027176   5.128   0.208   5.519 -0.1726  0.6289  0.2294
   49MOL   C20127177   5.024   8.244   5.568 -0.1261  0.0918  0.4799
   49MOL   C20227178   4.939   8.171   5.650 -0.0601 -0.4577  0.9519
   49MOL   C20327179   4.874   8.054   5.604 -0.3247 -1.1469 -0.6429
   49MOL   C20427180   4.785   7.984   5.690  0.6397 -0.1499  0.2526
   49MOL   C20527181   4.730   7.865   5.644 -0.2779  0.2916  1.1625
   49MOL   C20627182   4.752   7.822   5.507  0.2852  0.8846  0.0189
   49MOL   C20727183   4.674   7.706   5.447  0.2761 -0.0369  0.1598
   49MOL   O20827184   4.617   7.622   5.538 -0.2458 -0.1495  0.5378
   49MOL   C20927185   4.543   7.510   5.493  0.3520 -0.4872  0.1361
   49MOL   C21027186   4.396   7.549   5.485  0.1303  0.4662 -0.3453
   49MOL   O21127187   4.663   7.687   5.325 -0.0338  0.9348  0.1685
   49MOL   C21227188   4.839   7.896   5.430  0.0459  0.3406 -0.0103
   49MOL   C21327189   4.907   8.005   5.476 -0.7081 -1.1292 -0.7635
   49MOL   C21427190   5.002   8.072   5.393 -0.0518 -0.6304 -0.0822
   49MOL   C21527191   5.050   8.198   5.435  0.5984 -0.0294 -0.2576
   49MOL   H21627192   4.919   8.222   5.744 -1.1254  0.7004  0.1249
   49MOL   H21727193   4.758   8.020   5.789  0.5198 -1.1616  0.6004
   49MOL   H21827194   4.660   7.806   5.702 -0.7408  0.3599  0.6707
   49MOL   H21927195   4.573   7.425   5.555  1.2428  0.7619  1.4528
   49MOL   H22027196   4.580   7.480   5.395 -2.4861  0.9483 -1.4538
   49MOL   H22127197   4.400   7.651   5.446 -0.9093  1.0465  1.0002
   49MOL   H22227198   4.345   7.479   5.419 -0.8905 -0.3140  1.2330
   49MOL   H22327199   4.851   7.861   5.328  0.3231 -0.3936  0.2753
   49MOL   H22427200   5.025   8.027   5.298  1.9952 -0.0638  0.1185
   49MOL   H22527201   5.120   8.247   5.369  1.0796 -1.2384 -0.6425
   49MOL   O22627202   4.391   7.739   5.672 -0.2740  0.1954  0.6442
   49MOL   C22727203   4.345   7.631   5.702  0.1063  0.3598 -0.4389
   49MOL   O22827204   4.336   7.538   5.605  0.2149 -0.1971  0.4108
   49MOL   C22927205   4.312   7.575   5.835 -0.3577 -0.3186  0.7595
   49MOL   C23027206   4.253   7.448   5.838 -0.2699 -0.0452 -0.1647
   49MOL   C23127207   4.220   7.390   5.964  0.1590 -0.2008  0.3011
   49MOL   C23227208   4.146   7.267   5.976  0.2193 -0.0341 -0.2762
   49MOL   C23327209   4.113   7.204   6.102 -0.7451 -0.4108  0.0525
   49MOL   C23427210   4.158   7.280   6.216  0.8058 -0.1179  0.4802
   49MOL   C23527211   4.124   7.223   6.349  0.3257  0.4294  0.1297
   49MOL   O23627212   4.221   7.235   6.440 -0.2252 -0.6955  0.2023
   49MOL   C23727213   4.208   7.184   6.566 -0.5087 -0.2865  0.1281
   49MOL   C23827214   4.144   7.287   6.661 -0.3586 -0.1375 -0.1646
   49MOL   O23927215   4.007   7.184   6.381  0.0295  0.3645  0.3091
   49MOL   C24027216   4.224   7.407   6.209 -0.3588  0.1024 -0.1668
   49MOL   C24127217   4.248   7.465   6.081  0.5096 -0.4453 -0.6833
   49MOL   C24227218   4.302   7.596   6.073 -1.1189  1.0716 -0.2935
   49MOL   C24327219   4.330   7.651   5.949 -0.1254 -0.5115  0.3638
   49MOL   H24427220   4.229   7.397   5.746  0.7466 -0.5764 -0.1350
   49MOL   H24527221   4.108   7.215   5.889 -0.6317  0.7393 -0.3669
   49MOL   H24627222   4.063   7.108   6.102 -0.1823 -0.7188 -1.6433
   49MOL   H24727223   4.312   7.165   6.593 -1.5520 -2.4645  2.9264
   49MOL   H24827224   4.157   7.088   6.550 -1.5818  0.5748 -1.7889
   49MOL   H24927225   4.048   7.332   6.635 -1.0132 -0.1699  2.1084
   49MOL   H25027226   4.123   7.233   6.754  0.3214  1.1555  0.7482
   49MOL   H25127227   4.243   7.462   6.300 -0.2116 -0.0769 -0.0889
   49MOL   H25227228   4.327   7.658   6.158  2.9142  1.2286 -1.4559
   49MOL   H25327229   4.368   7.752   5.938 -0.3046 -0.2377  2.0759
   49MOL   O25427230   4.243   7.336   6.917 -0.2865 -0.4853  0.3640
   49MOL   C25527231   4.291   7.401   6.818 -0.0114  0.5365 -0.2496
   49MOL   O25627232   4.249   7.387   6.689 -0.5551  0.2530 -0.3954
   49MOL   C25727233   4.376   7.511   6.837  0.2037 -0.0980 -0.3399
   49MOL   C25827234   4.384   7.576   6.966  0.0009 -0.2748 -0.1028
   49MOL   C25927235   4.494   7.657   6.990 -0.3924  0.0329 -0.4309
   49MOL   C26027236   4.499   7.738   7.109 -0.6862 -0.0016 -0.0169
   49MOL   C26127237   4.606   7.824   7.140  0.2216  0.0005  0.1210
   49MOL   C26227238   4.705   7.851   7.045  0.3979 -0.2192 -0.5049
   49MOL   C26327239   4.817   7.952   7.071 -0.7190 -0.2976  0.4138
   49MOL   O26427240   4.809   8.010   7.192  0.0387  0.5777 -0.1529
   49MOL   C26527241   4.907   8.109   7.230  0.2580  0.1949  0.4439
   49MOL   C26627242   4.845   8.220   7.303 -0.1705 -0.6093  0.0457
   49MOL   O26727243   4.904   7.971   6.993  0.4005  0.3986 -0.0325
   49MOL   C26827244   4.700   7.775   6.924  0.4947 -0.0660  0.2109
   49MOL   C26927245   4.597   7.682   6.895 -0.4832 -1.0791 -0.0767
   49MOL   C27027246   4.586   7.615   6.772 -0.2559 -0.1292  0.6326
   49MOL   C27127247   4.473   7.535   6.740 -0.0698  0.1976 -0.2181
   49MOL   H27227248   4.313   7.551   7.044 -0.6989  1.4195 -0.1889
   49MOL   H27327249   4.427   7.728   7.189 -1.1525 -1.5769 -0.6121
   49MOL   H27427250   4.607   7.880   7.232  1.0283  0.7157 -0.3286
   49MOL   H27527251   4.941   8.151   7.135 -0.6050 -0.8433 -0.3275
   49MOL   H27627252   4.982   8.058   7.291  0.2478  1.5809  1.6644
   49MOL   H27727253   4.796   0.025   7.222 -1.1039  3.0584  2.8971
   49MOL   H27827254   4.771   8.189   7.377 -0.0170 -0.9278  0.0672
   49MOL   H27927255   4.777   7.806   6.855  1.7208 -0.3444  1.4134
   49MOL   H28027256   4.662   7.622   6.695  0.5720 -0.1610  1.4376
   49MOL   H28127257   4.461   7.499   6.639 -4.8737  1.0401 -0.0817
   49MOL   O28227258   5.045   0.134   7.173  0.6531 -0.0152  0.0227
   49MOL   C28327259   5.046   0.114   7.295 -0.4709 -0.3010 -0.2583
   49MOL   O28427260   4.947   0.060   7.357 -0.3920  0.4223  0.0577
   49MOL   C28527261   5.146   0.178   7.384 -0.0915 -0.3419 -0.0293
   49MOL   C28627262   5.256   0.241   7.319  0.5734  0.4899  0.0033
   49MOL   C28727263   5.352   0.310   7.398 -0.4323  0.5504 -0.2784
   49MOL   C28827264   5.454   0.388   7.342 -0.1819  0.7198  0.0694
   49MOL   C28927265   5.547   0.455   7.427 -0.3799  0.6490  0.4747
   49MOL   C29027266   5.545   0.449   7.567 -0.7605 -0.5600 -0.1309
   49MOL   C29127267   5.643   0.515   7.654 -0.3979 -0.7247  0.1353
   49MOL   O29227268   5.735   0.574   7.568  0.4248  0.5240 -0.0414
   49MOL   C29327269   5.848   0.639   7.623  0.0429  0.4378  0.7337
   49MOL   C29427270   5.861   0.773   7.552 -0.1367 -0.1763  0.0244
   49MOL   O29527271   5.651   0.523   7.778 -0.4855 -0.0260 -0.1677
   49MOL   C29627272   5.446   0.362   7.623 -0.6539  1.0954 -0.5268
   49MOL   C29727273   5.347   0.297   7.542 -0.0309  0.2547  0.4441
   49MOL   C29827274   5.238   0.235   7.602  0.2969  0.2110 -0.0603
   49MOL   C29927275   5.143   0.173   7.521 -0.0386  0.3907 -0.9126
   49MOL   H30027276   5.269   0.255   7.212 -0.6012  1.2330 -0.0576
   49MOL   H30127277   5.453   0.390   7.234 -0.3197  0.1866  0.0570
   49MOL   H30227278   5.626   0.514   7.383  0.5733 -1.4780 -0.7662
   49MOL   H30327279   5.939   0.580   7.616 -0.1091 -0.2217  3.9394
   49MOL   H30427280   5.834   0.659   7.729  2.7289 -1.4371  1.4964
   49MOL   H30527281   5.763   0.821   7.552 -0.0082  0.0841  0.8054
   49MOL   H30627282   5.920   0.841   7.613 -1.0219 -0.3164  1.0616
   49MOL   H30727283   5.462   0.344   7.728  0.3977 -0.7603 -0.9904
   49MOL   H30827284   5.232   0.213   7.708  0.2035 -0.2607 -0.1613
   49MOL   H30927285   5.064   0.119   7.573  1.0088 -0.0231  0.2874
   49MOL   O31027286   6.113   0.863   7.475  0.0941 -0.2996  0.3557
   49MOL   C31127287   6.047   0.798   7.397 -0.3277 -0.0151  0.6149
   49MOL   O31227288   5.922   0.755   7.424 -0.8094 -0.8231  0.0370
   49MOL   C31327289   6.086   0.744   7.265 -0.4615 -0.5319  1.1502
   49MOL   C31427290   6.223   0.702   7.250 -0.3940  0.3578 -0.8201
   49MOL   C31527291   6.265   0.652   7.128 -0.6433  0.4761 -0.7831
   49MOL   C31627292   6.402   0.620   7.104  0.3636  0.3888 -0.0055
   49MOL   C31727293   6.446   0.562   6.981  0.2220  0.7062  0.2091
   49MOL   C31827294   6.346   0.526   6.882  0.8856 -0.0328  0.2249
   49MOL   C31927295   6.385   0.472   6.751  0.6957  0.1766  0.0914
   49MOL   O32027296   6.290   0.492   6.655 -0.1897  0.6599  0.4181
   49MOL   C32127297   6.301   0.428   6.529 -0.1192 -0.1772  0.3977
   49MOL   C32227298   6.244   0.284   6.537  0.1120 -0.2865  1.0545
   49MOL   O32327299   6.495   0.419   6.729 -0.3396 -0.2547 -0.0590
   49MOL   C32427300   6.208   0.556   6.902 -0.1991  0.2295 -0.1110
   49MOL   C32527301   6.171   0.620   7.023  0.4625 -0.1363 -0.2141
   49MOL   C32627302   6.031   0.659   7.041 -0.2754  0.4674 -0.3820
   49MOL   C32727303   5.995   0.720   7.160 -0.0983  0.1919 -0.0527
   49MOL   H32827304   6.291   0.737   7.326  0.3043  0.7137 -1.6068
   49MOL   H32927305   6.477   0.641   7.178  1.3720 -1.5155 -0.4526
   49MOL   H33027306   6.550   0.538   6.968  0.3447  0.3205  1.8454
   49MOL   H33127307   6.404   0.424   6.494  0.1086 -1.7997  1.2088
   49MOL   H33227308   6.249   0.480   6.448  0.6077 -0.2239 -0.1073
   49MOL   H33327309   6.313   0.224   6.478  1.4549  0.5939  1.6944
   49MOL   H33427310   6.233   0.258   6.642  1.2565  1.9914  1.7841
   49MOL   H33527311   6.136   0.531   6.825 -0.1785  1.1039 -0.4096
   49MOL   H33627312   5.959   0.640   6.963 -2.2629 -0.6864  1.6685
   49MOL   H33727313   5.892   0.749   7.173 -0.4992 -0.3644 -1.7801
   49MOL   O33827314   6.191   0.291   6.271  0.3415 -0.0524  0.7777
   49MOL   C33927315   6.101   0.274   6.354  0.7114  0.2105  0.6292
   49MOL   O34027316   6.117   0.273   6.488 -0.1745  0.3001  0.1379
   49MOL   C34127317   5.960   0.267   6.314 -0.4843 -0.3083 -0.5269
   49MOL   C34227318   5.930   0.261   6.172 -0.9277 -0.5737  0.4782
   49MOL   C34327319   5.798   0.244   6.129 -0.2219 -0.1713  0.4046
   49MOL   C34427320   5.774   0.222   5.991  0.1543  0.1349  0.6976
   49MOL   C34527321   5.646   0.178   5.952  0.1142 -0.0579  0.0239
   49MOL   C34627322   5.544   0.161   6.046  0.2897  0.3742 -0.4085
   49MOL   C34727323   5.410   0.118   5.992  0.0031  0.1792  0.1879
   49MOL   O34827324   5.327   0.065   6.081  0.0254 -0.2451  0.1652
   49MOL   C34927325   5.194   0.023   6.039  0.6993 -0.4128 -0.1937
   49MOL   C35027326   5.188   8.158   5.932  0.1548  0.5639 -0.4514
   49MOL   O35127327   5.368   0.132   5.881 -0.3410 -0.5020 -0.1626
   49MOL   C35227328   5.564   0.201   6.183 -0.2300  0.0057 -0.2801
   49MOL   C35327329   5.692   0.236   6.226 -0.1065 -0.2077 -0.3358
   49MOL   C35427330   5.718   0.271   6.359 -0.3358 -0.1531 -0.8207
   49MOL   C35527331   5.855   0.288   6.402  0.3414 -0.4230 -0.5275
   49MOL   H35627332   6.005   0.265   6.094 -0.0857  1.7310  1.3801
   49MOL   H35727333   5.854   0.222   5.918  0.0306  1.3065  0.5537
   49MOL   H35827334   5.630   0.142   5.852 -1.8667  0.0070  0.2932
   49MOL   H35927335   5.141   0.108   5.997 -1.2207 -1.1761  0.6536
   49MOL   H36027336   5.141   8.244   6.130  1.5805  0.1161  0.4922
   49MOL   H36127337   5.135   8.193   5.844  0.0583 -0.1206 -0.6650
   49MOL   H36227338   5.291   8.128   5.915 -0.5529 -2.0019 -0.3562
   49MOL   H36327339   5.489   0.208   6.260  1.1490  0.1656  1.0750
   49MOL   H36427340   5.645   0.292   6.436  0.7137  0.6631 -0.0349
   49MOL   H36527341   5.868   0.308   6.507 -1.9745 -0.6246 -0.1611
   49MOL   O36627342   4.935   8.154   6.008  0.4658  0.0866  0.7961
   49MOL   C36727343   4.990   8.044   6.002 -0.8359 -0.9637  0.2036
   49MOL   O36827344   5.118   8.040   5.968 -0.6052 -0.6776 -0.4481
   49MOL   C36927345   4.919   7.920   6.026 -1.0839  0.8314  0.1501
   49MOL   C37027346   4.989   7.797   6.004  0.0175  0.3543  0.1098
   49MOL   C37127347   4.932   7.671   6.038 -0.3619  0.3827  0.2808
   49MOL   C37227348   5.010   7.549   6.037  0.5263  0.1610 -0.2133
   49MOL   C37327349   4.943   7.425   6.060  0.0878 -0.8533  0.0645
   49MOL   C37427350   4.809   7.420   6.103 -0.6338  0.3656 -0.0226
   49MOL   C37527351   4.752   7.280   6.135 -0.6350 -0.0328  0.2119
   49MOL   O37627352   4.646   7.287   6.214 -0.1289 -0.1102 -0.6799
   49MOL   C37727353   4.563   7.184   6.268  0.3663 -0.5385 -0.6662
   49MOL   C37827354   4.469   7.122   6.163 -0.4064 -0.6263  0.4379
   49MOL   O37927355   4.803   7.175   6.091 -0.0732  0.0581  0.1058
   49MOL   C38027356   4.734   7.541   6.100  0.3154 -0.2853  0.0740
   49MOL   C38127357   4.793   7.666   6.066  0.2000  0.5733 -0.0392
   49MOL   C38227358   4.713   7.789   6.065 -0.0218  0.8175  0.3495
   49MOL   C38327359   4.778   7.909   6.052 -1.0778 -0.0444 -0.9019
   49MOL   H38427360   5.091   7.807   5.971  0.2828 -3.1351 -0.2994
   49MOL   H38527361   5.115   7.559   6.011  0.3156  0.6274 -0.9054
   49MOL   H38627362   5.004   7.336   6.058  1.1141 -0.1764  0.3907
   49MOL   H38727363   4.510   7.239   6.345  0.8643 -1.1361  0.1181
   49MOL   H38827364   4.620   7.105   6.317  0.2495 -0.2753 -0.0928
   49MOL   H38927365   4.374   7.094   6.208  0.0640 -0.4582  1.5692
   49MOL   H39027366   4.451   7.199   6.088 -0.0384 -0.9220  0.0434
   49MOL   H39127367   4.628   7.533   6.119  0.0023 -0.2621 -1.5284
   49MOL   H39227368   4.606   7.799   6.079  0.1205  3.0814 -0.0431
   49MOL   H39327369   4.728   8.002   6.071 -1.2402 -0.4919  0.9943
   49MOL   O39427370   4.364   6.961   5.979  0.1034  0.5215  0.4265
   49MOL   C39527371   4.474   6.940   6.021 -0.5997 -0.4719 -0.3111
   49MOL   O39627372   4.542   7.012   6.109 -0.2666 -0.2697 -0.2683
   49MOL   C39727373   4.553   6.818   5.983 -0.2510  0.1225  0.2250
   49MOL   C39827374   4.500   6.716   5.896  0.1628 -0.1908  0.0876
   49MOL   C39927375   4.579   6.606   5.854  0.1610  0.1027 -0.5258
   49MOL   C40027376   4.525   6.520   5.759 -0.1019 -0.3708  0.1308
   49MOL   C40127377   4.596   6.407   5.723 -0.0295 -0.2503 -0.5785
   49MOL   C40227378   4.728   6.385   5.763  0.1259 -0.6680 -0.6169
   49MOL   C40327379   4.798   6.253   5.734 -0.1161  0.3389  0.3871
   49MOL   O40427380   4.714   6.152   5.725  0.0156 -0.0694 -0.1735
   49MOL   C40527381   4.754   6.018   5.706 -0.9346  0.1242 -0.0977
   49MOL   C40627382   4.785   5.980   5.564 -0.1018 -0.8163  0.2817
   49MOL   O40727383   4.921   6.243   5.729  0.0410  0.1559 -0.1762
   49MOL   C40827384   4.785   6.480   5.852  0.1120  0.8489 -0.2527
   49MOL   C40927385   4.710   6.591   5.899 -0.0530  0.3579 -0.2073
   49MOL   C41027386   4.769   6.686   5.982 -0.2822  0.6700 -0.0166
   49MOL   C41127387   4.690   6.799   6.020 -0.7888  0.6900  0.0515
   49MOL   H41227388   4.397   6.727   5.866  0.4085  1.5540 -0.1172
   49MOL   H41327389   4.423   6.537   5.729  0.8370  2.1089 -1.8424
   49MOL   H41427390   4.554   6.333   5.656  0.2892 -0.4419 -0.5689
   49MOL   H41527391   4.663   5.963   5.730  0.2434 -1.4890  0.7056
   49MOL   H41627392   4.821   5.966   5.774  1.3778  1.9561 -0.8790
   49MOL   H41727393   4.774   5.873   5.546  0.8303 -0.6881 -1.1093
   49MOL   H41827394   4.713   6.035   5.504  0.2035  0.1374  0.7661
   49MOL   H41927395   4.877   6.457   5.904 -0.8891 -1.2508  0.6486
   49MOL   H42027396   4.870   6.668   6.017 -0.0072  1.9661 -0.1043
   49MOL   H42127397   4.731   6.874   6.086  1.0829  0.2884 -0.6179
   49MOL   O42227398   4.882   6.144   5.341  0.5096 -0.4776  0.1562
   49MOL   C42327399   4.956   6.086   5.417  0.0389 -0.3516  0.4541
   49MOL   O42427400   4.921   6.006   5.523  0.2838 -0.1724  0.0589
   49MOL   C42527401   5.100   6.083   5.398 -0.8927 -0.8436 -0.4665
   49MOL   C42627402   5.189   6.076   5.510  0.4807  0.3329 -0.3191
   49MOL   C42727403   5.329   6.076   5.484  0.6111 -0.1432  1.0165
   49MOL   C42827404   5.421   6.056   5.593  0.4864 -0.6898  0.0014
   49MOL   C42927405   5.557   6.042   5.568 -0.2168 -0.2662 -0.1411
   49MOL   C43027406   5.612   6.051   5.437 -0.1094 -0.7560  0.0180
   49MOL   C43127407   5.758   6.042   5.407 -0.9398  0.3856  0.8104
   49MOL   O43227408   5.841   6.028   5.524 -0.3266 -0.1458 -0.4279
   49MOL   C43327409   5.979   5.987   5.520 -0.2166 -0.5808 -0.1316
   49MOL   C43427410   6.088   6.091   5.504  0.3789  0.0055 -0.3509
   49MOL   O43527411   5.809   6.046   5.296  0.1587  0.2081  0.0881
   49MOL   C43627412   5.523   6.078   5.334  0.8226 -0.7003 -0.0016
   49MOL   C43727413   5.379   6.087   5.353  0.1799  0.1923  0.8771
   49MOL   C43827414   5.293   6.097   5.246  0.0544 -0.2437 -0.5892
   49MOL   C43927415   5.154   6.094   5.268  0.4980  0.2086  0.1562
   49MOL   H44027416   5.159   6.063   5.613  0.8509  0.2173 -0.2284
   49MOL   H44127417   5.382   6.034   5.691 -1.6884  0.0458 -0.6633
   49MOL   H44227418   5.626   6.040   5.651 -0.4936  0.4288  0.1078
   49MOL   H44327419   6.005   5.922   5.437  1.0619 -0.3861  0.0922
   49MOL   H44427420   6.006   5.922   5.603 -0.5292  0.3834  0.7413
   49MOL   H44527421   6.051   6.173   5.566  1.9963 -0.7471  1.6914
   49MOL   H44627422   6.184   6.057   5.542 -0.7021  0.1098  2.6692
   49MOL   H44727423   5.559   6.105   5.236 -3.1989 -1.5716 -1.8307
   49MOL   H44827424   5.325   6.102   5.143 -0.0858  0.5961 -0.5937
   49MOL   H44927425   5.091   6.108   5.182  0.4227 -0.6428  0.0721
   49MOL   O45027426   6.334   6.170   5.399  0.6936  0.7909  0.0296
   49MOL   C45127427   6.235   6.170   5.324 -0.1459  0.3482  0.1982
   49MOL   O45227428   6.112   6.134   5.371 -0.2142 -0.1677 -0.0344
   49MOL   C45327429   6.243   6.214   5.181 -0.5329 -0.0197  0.4544
   49MOL   C45427430   6.137   6.197   5.089 -0.3147 -0.2534 -0.2029
   49MOL   C45527431   6.158   6.247   4.952 -0.1881 -0.0272  0.1277
   49MOL   C45627432   6.054   6.220   4.861  1.2241  0.2407 -0.6239
   49MOL   C45727433   6.066   6.262   4.726  0.4681 -0.9358 -0.1725
   49MOL   C45827434   6.182   6.318   4.676  0.3502  0.1047  0.1976
   49MOL   C45927435   6.202   6.357   4.534 -0.0266  0.9510  0.2154
   49MOL   O46027436   6.133   6.284   4.449 -0.6358 -0.0693 -0.2933
   49MOL   C46127437   6.161   6.274   4.307  0.3504  0.9113  0.6408
   49MOL   C46227438   6.262   6.171   4.295  0.2686 -0.4325  0.5037
   49MOL   O46327439   6.279   6.442   4.493 -0.0356 -0.2909  0.6669
   49MOL   C46427440   6.288   6.344   4.769 -0.5604  0.1306  0.4639
   49MOL   C46527441   6.274   6.302   4.907  0.0105 -0.2540  0.2201
   49MOL   C46627442   6.374   6.318   5.002  0.0001  0.5273 -0.0364
   49MOL   C46727443   6.365   6.267   5.133  0.4456 -0.0400  0.2846
   49MOL   H46827444   6.044   6.156   5.125 -0.8582  1.7575  0.7515
   49MOL   H46927445   5.968   6.164   4.895  0.2199  1.2043 -1.5214
   49MOL   H47027446   5.982   6.237   4.663 -0.3725 -0.0578  0.5760
   49MOL   H47127447   6.176   6.367   4.252  2.0693  1.2579  1.6564
   49MOL   H47227448   6.063   6.245   4.270 -0.2429  0.9221  2.1506
   49MOL   H47327449   6.358   6.223   4.300  0.1396 -0.1646  0.2351
   49MOL   H47427450   6.259   6.106   4.382 -0.0579 -0.6353  0.3424
   49MOL   H47527451   6.382   6.383   4.733  0.1755 -1.9242  0.1018
   49MOL   H47627452   6.471   6.358   4.974  0.6095  0.6472  2.1548
   49MOL   H47727453   6.450   6.278   5.198  2.9818 -0.0074 -2.8956
   49MOL   O47827454   6.264   5.904   4.283 -0.0193 -0.2396 -0.9637
   49MOL   C47927455   6.245   5.966   4.181  0.1031  0.1704 -0.0269
   49MOL   O48027456   6.247   6.096   4.172  0.4584  0.3523 -0.0946
   49MOL   C48127457   6.238   5.893   4.046 -0.5060 -0.0930 -0.1410
   49MOL   C48227458   6.189   5.961   3.929  0.5045  0.7660 -0.7773
   49MOL   C48327459   6.165   5.882   3.812  0.1898  0.1531  0.6428
   49MOL   C48427460   6.106   5.946   3.699 -0.1131  0.4291  0.3147
   49MOL   C48527461   6.083   5.875   3.571 -0.2911  0.2793 -0.0891
   49MOL   C48627462   6.130   5.742   3.566  0.5555  0.8291 -0.0037
   49MOL   C48727463   6.123   5.653   3.439  0.8531 -0.3328 -0.1830
   49MOL   O48827464   6.038   5.710   3.344  0.0392 -0.0203 -0.0509
   49MOL   C48927465   6.007   5.631   3.225 -0.1222  1.0274  0.6900
   49MOL   C49027466   5.858   5.596   3.218 -0.4302  0.6320 -0.4421
   49MOL   O49127467   6.184   5.547   3.432  0.1688 -0.0916  0.2116
   49MOL   C49227468   6.188   5.684   3.683  0.2044 -0.5908  0.2178
   49MOL   C49327469   6.210   5.751   3.804 -0.1476 -0.3926 -0.4088
   49MOL   C49427470   6.262   5.679   3.917 -0.5341  0.3537 -0.5312
   49MOL   C49527471   6.269   5.752   4.037  0.3013 -0.1339 -0.9585
   49MOL   H49627472   6.161   6.065   3.919  0.2596  0.8264  0.4460
   49MOL   H49727473   6.082   6.051   3.712 -1.4852  0.2332 -0.6414
   49MOL   H49827474   6.038   5.928   3.489 -2.0538  1.4058  1.5655
   49MOL   H49927475   6.068   5.540   3.225  0.1520  1.2057 -0.0098
   49MOL   H50027476   6.042   5.693   3.143  0.1857 -0.6431 -0.4753
   49MOL   H50127477   5.793   5.681   3.199 -2.8501 -1.2668 -0.9677
   49MOL   H50227478   5.847   5.529   3.132 -2.4076 -1.3922  1.3189
   49MOL   H50327479   6.222   5.581   3.673  2.3847  0.0760  0.4022
   49MOL   H50427480   6.287   5.574   3.906 -0.1477  0.4121 -0.1902
   49MOL   H50527481   6.299   5.698   4.126 -1.0074  2.0555  0.8837
   49MOL   O50627482   5.626   5.492   3.279 -0.2049  0.1571  0.3220
   49MOL   C50727483   5.716   5.467   3.359 -0.0785  0.5636  0.4913
   49MOL   O50827484   5.840   5.513   3.332 -0.5168 -0.1394 -0.1105
   49MOL   C50927485   5.702   5.415   3.496 -0.2182  0.3022  0.0723
   49MOL   C51027486   5.570   5.406   3.548  0.2418  0.2444  0.5013
   49MOL   C51127487   5.552   5.353   3.674 -0.2133  0.4540  0.9384
   49MOL   C51227488   5.419   5.341   3.723 -0.1187  0.3797 -0.4556
   49MOL   C51327489   5.393   5.307   3.853 -0.7354  0.0401 -0.0821
   49MOL   C51427490   5.503   5.266   3.935 -0.0155  0.0055  0.3515
   49MOL   C51527491   5.473   5.219   4.074 -0.0686  0.1619  0.2897
   49MOL   O51627492   5.576   5.171   4.144 -0.1734 -0.6346 -0.2207
   49MOL   C51727493   5.579   5.138   4.285  1.2877  0.0592  0.0927
   49MOL   C51827494   5.706   5.047   4.305 -0.3630  0.1254 -0.0001
   49MOL   O51927495   5.362   5.224   4.123 -0.9660  1.1514 -0.4709
   49MOL   C52027496   5.639   5.258   3.885  0.7290 -0.3479 -0.7104
   49MOL   C52127497   5.660   5.312   3.761 -0.5673 -0.4983 -0.4537
   49MOL   C52227498   5.792   5.319   3.705 -0.4779 -0.0685 -0.0252
   49MOL   C52327499   5.812   5.387   3.577  0.3454 -0.1394  0.2808
   49MOL   H52427500   5.479   5.426   3.494  0.0928 -0.8865  0.3241
   49MOL   H52527501   5.333   5.373   3.667  1.1254  0.9381 -2.0726
   49MOL   H52627502   5.291   5.314   3.889 -1.3558  1.0088 -1.9619
   49MOL   H52727503   5.494   5.077   4.313  1.8528 -1.2832 -1.0593
   49MOL   H52827504   5.561   5.226   4.348 -0.5373  0.3481 -0.7796
   49MOL   H52927505   5.715   4.977   4.388 -0.6146  0.3964  0.2617
   49MOL   H53027506   5.710   4.992   4.212 -0.2464  1.5666 -0.8623
   49MOL   H53127507   5.714   5.228   3.956 -0.0218 -0.5979 -0.0146
   49MOL   H53227508   5.866   5.278   3.772 -3.7027 -2.5703  2.1734
   49MOL   H53327509   5.913   5.404   3.543 -0.3731  0.0612 -1.7979
   49MOL   O53427510   5.794   5.192   4.516  0.0183 -0.4322 -0.5005
   49MOL   C53527511   5.855   5.191   4.414 -0.6826 -0.6081 -0.4895
   49MOL   O53627512   5.823   5.119   4.310 -0.3074  0.2405  0.8619
   49MOL   C53727513   5.982   5.262   4.402 -0.6961 -0.7298 -0.5826
   49MOL   C53827514   6.050   5.313   4.512  0.0752 -0.2312  0.0946
   49MOL   C53927515   6.163   5.402   4.499  0.2831  0.2421  0.2019
   49MOL   C54027516   6.220   5.457   4.614  0.0275  0.0936 -0.1942
   49MOL   C54127517   6.334   5.539   4.600  0.1305 -0.8349 -0.0998
   49MOL   C54227518   6.384   5.575   4.476  0.3130 -0.2407 -0.2219
   49MOL   C54327519   6.504   5.663   4.460 -0.5939  0.4884 -0.6491
   49MOL   O54427520   6.529   5.700   4.338 -0.0249  0.5014  0.6191
   49MOL   C54527521   6.655   5.764   4.298  0.2074  0.5128 -0.3504
   49MOL   C54627522   6.635   5.881   4.205 -0.4179  1.2307  0.3703
   49MOL   O54727523   6.580   5.690   4.553  0.1267 -0.3740 -0.6485
   49MOL   C54827524   6.321   5.519   4.365  0.3149  0.6687  0.0452
   49MOL   C54927525   6.211   5.437   4.374  0.8481  0.2893  0.0944
   49MOL   C55027526   6.136   5.392   4.261  0.5067  0.4661  0.6851
   49MOL   C55127527   6.026   5.306   4.274  0.4688 -0.6859 -0.3107
   49MOL   H55227528   6.021   5.295   4.615  1.9602 -1.5586  0.4252
   49MOL   H55327529   6.193   5.432   4.716 -0.0869  1.0132  0.0061
   49MOL   H55427530   6.386   5.589   4.681 -2.0976 -0.8030  1.3415
   49MOL   H55527531   6.718   5.686   4.255  0.5692  0.3631  0.4343
   49MOL   H55627532   6.719   5.790   4.383 -0.0053  1.0760 -0.3638
   49MOL   H55727533   6.572   5.954   4.255 -1.0259  1.0159 -0.0726
   49MOL   H55827534   6.577   5.851   4.118 -2.2013  1.3006  1.5229
   49MOL   H55927535   6.358   5.548   4.267  0.7043 -0.1087 -0.0404
   49MOL   H56027536   6.168   5.411   4.160  0.9159 -0.5200  0.6277
   49MOL   H56127537   5.973   5.285   4.182  0.7784 -0.2436 -0.5920
   49MOL   H56227538   6.726   5.938   4.185 -1.6283  2.3709 -2.0033
   50MOL     O127539   5.212   2.266   0.927  0.0541 -0.1387  0.6081
   50MOL     C227540   5.285   2.193   0.996 -0.4673  0.3629 -0.0870
   50MOL     O327541   5.341   2.218   1.123  0.1496 -0.3008  0.3924
   50MOL     C427542   5.322   2.064   0.930 -0.8041  0.2756  0.7023
   50MOL     C527543   5.313   2.043   0.792  0.6367 -0.1770  0.1757
   50MOL     C627544   5.368   1.923   0.727  0.7300  0.8559  0.0537
   50MOL     C727545   5.373   1.903   0.589  1.2803 -0.5816  0.0791
   50MOL     C827546   5.437   1.790   0.534  0.3860 -0.2023  0.8447
   50MOL     C927547   5.504   1.698   0.614 -0.9842 -0.5696 -0.4967
   50MOL    C1027548   5.582   1.591   0.548  0.3934  0.1289  0.1242
   50MOL    O1127549   5.637   1.507   0.631  0.0533 -0.3707 -0.8658
   50MOL    C1227550   5.700   1.392   0.582  0.5271 -0.2139  0.2846
   50MOL    C1327551   5.599   1.288   0.574  0.1314  0.1825  0.6002
   50MOL    O1427552   5.607   1.589   0.426  0.1166  0.5770 -0.2596
   50MOL    C1527553   5.496   1.716   0.752 -0.0428  0.1456  0.0377
   50MOL    C1627554   5.429   1.825   0.809 -0.7633 -1.0780  0.0098
   50MOL    C1727555   5.433   1.840   0.951  0.4268 -0.3307  0.3938
   50MOL    C1827556   5.384   1.960   1.007 -0.3040  0.0946 -0.6273
   50MOL    H1927557   5.283   2.120   0.723 -1.5313  0.2254  1.5428
   50MOL    H2027558   5.319   1.969   0.523 -2.2478 -3.9176 -0.5632
   50MOL    H2127559   5.419   1.767   0.430 -1.4879 -2.4245  1.6083
   50MOL    H2227560   5.748   1.409   0.485 -0.4046  2.7310  0.2605
   50MOL    H2327561   5.768   1.361   0.661 -0.2837 -2.0766  0.2720
   50MOL    H2427562   5.646   1.190   0.573  1.8167  0.9377  2.6024
   50MOL    H2527563   5.524   1.289   0.653 -0.1278  0.7884  0.3534
   50MOL    H2627564   5.548   1.649   0.819 -0.3477  0.6183  0.7582
   50MOL    H2727565   5.483   1.767   1.013  1.1094 -0.5458 -0.3996
   50MOL    H2827566   5.378   1.977   1.114  0.1252  0.7215 -0.6970
   50MOL    H2927567   5.335   2.312   1.125  2.3478 -0.1170 -0.3607
   50MOL    O3027568   5.494   1.096   0.413 -0.6753  0.9343  0.6676
   50MOL    C3127569   5.475   1.213   0.379  0.0170  0.6425  0.9526
   50MOL    O3227570   5.523   1.314   0.458 -0.1275 -0.8527  0.2718
   50MOL    C3327571   5.377   1.253   0.274 -0.0331 -0.7343 -0.3113
   50MOL    C3427572   5.283   1.166   0.226 -0.1085 -0.7637  0.2648
   50MOL    C3527573   5.197   1.195   0.121  0.1642 -0.1300  0.0545
   50MOL    C3627574   5.098   1.100   0.081  0.8556  0.0925  0.1914
   50MOL    C3727575   5.007   1.131   8.231  0.8644  0.5206  0.3019
   50MOL    C3827576   5.003   1.260   8.172  0.8687 -1.2428  0.0311
   50MOL    C3927577   4.903   1.295   8.075 -0.2395 -0.2807  0.2215
   50MOL    O4027578   4.840   1.191   8.027 -0.0010 -0.6663  0.5315
   50MOL    C4127579   4.741   1.205   7.922 -0.3735  0.6673  0.2033
   50MOL    C4227580   4.815   1.237   7.789  0.3412 -0.1499 -0.1130
   50MOL    O4327581   4.889   1.409   8.042 -0.2982 -0.2160 -0.3672
   50MOL    C4427582   5.107   1.353   8.209 -0.4038 -0.0331  0.2184
   50MOL    C4527583   5.199   1.321   0.059 -0.8193  0.0078  0.8655
   50MOL    C4627584   5.297   1.414   0.099  0.7074  0.3412  0.7453
   50MOL    C4727585   5.378   1.382   0.212 -1.0549  0.5342 -0.4878
   50MOL    H4827586   5.273   1.071   0.277  0.8827 -0.3176  1.3250
   50MOL    H4927587   5.088   1.004   0.130 -0.7093 -0.2351 -0.7337
   50MOL    H5027588   4.935   1.053   8.212 -0.1560  1.6646 -0.6356
   50MOL    H5127589   4.672   1.285   7.949  0.2470  1.1606  0.3449
   50MOL    H5227590   4.687   1.110   7.917 -0.5412  0.8967 -3.5350
   50MOL    H5327591   4.821   1.346   7.796 -1.0891 -0.0128 -0.6961
   50MOL    H5427592   4.918   1.204   7.795  0.6053  0.4390 -1.2200
   50MOL    H5527593   5.111   1.450   8.161 -0.0180  0.0417  0.4007
   50MOL    H5627594   5.309   1.509   0.051 -1.1507  1.0262  1.5929
   50MOL    H5727595   5.447   1.454   0.252  0.4926 -2.2384  1.9906
   50MOL    O5827596   4.848   1.011   7.658 -0.7047 -0.1039  0.4036
   50MOL    C5927597   4.758   1.088   7.618 -0.3661 -0.6268 -0.9978
   50MOL    O6027598   4.735   1.207   7.679 -0.3117 -0.0671  0.0492
   50MOL    C6127599   4.662   1.047   7.512 -0.0993  0.4106  0.2313
   50MOL    C6227600   4.667   0.915   7.475 -0.3539  0.9373  0.0192
   50MOL    C6327601   4.589   0.869   7.373  0.2153  0.1944  1.0657
   50MOL    C6427602   4.590   0.730   7.342  0.3591  0.5948 -0.3298
   50MOL    C6527603   4.494   0.679   7.249  0.7807  0.0139  0.2967
   50MOL    C6627604   4.411   0.768   7.177 -0.7756  0.4482  0.6635
   50MOL    C6727605   4.330   0.719   7.061  0.0104 -0.0466 -0.4395
   50MOL    O6827606   4.348   0.590   7.045  0.2911  0.3868  0.2683
   50MOL    C6927607   4.297   0.525   6.927 -0.2292  0.1950 -0.1649
   50MOL    C7027608   4.307   0.375   6.947  0.1275  0.1298  0.1167
   50MOL    O7127609   4.266   0.787   6.985 -0.1254 -0.0957  0.6218
   50MOL    C7227610   4.414   0.904   7.206  0.7292 -0.0905 -0.2772
   50MOL    C7327611   4.501   0.955   7.307  1.0377 -0.1184 -0.0715
   50MOL    C7427612   4.490   1.090   7.348 -0.2441 -0.5735  0.0448
   50MOL    C7527613   4.572   1.137   7.452 -0.0473  0.3575  0.0177
   50MOL    H7627614   4.730   0.851   7.535 -0.5108 -0.6597 -1.5090
   50MOL    H7727615   4.647   0.661   7.403 -0.6296  1.5754  1.7553
   50MOL    H7827616   4.497   0.573   7.228 -1.7370 -0.2129  0.8686
   50MOL    H7927617   4.347   0.560   6.837 -1.8909  0.9278 -0.8280
   50MOL    H8027618   4.189   0.541   6.917 -0.2005  0.4011 -0.1538
   50MOL    H8127619   4.303   0.330   6.847 -1.9794 -0.1627  0.3056
   50MOL    H8227620   4.401   0.344   6.992 -0.0473 -0.1648  0.2820
   50MOL    H8327621   4.362   0.979   7.148 -0.2723 -0.0707  0.6305
   50MOL    H8427622   4.422   1.156   7.296  0.9063  0.7112  0.1245
   50MOL    H8527623   4.565   1.241   7.482  1.4115  0.1984  0.9217
   50MOL    O8627624   4.253   0.322   7.234  0.3397  0.4254  0.2931
   50MOL    C8727625   4.179   0.303   7.132 -0.2852  1.0296 -0.4541
   50MOL    O8827626   4.192   0.329   7.000  0.6267  0.8306 -0.0760
   50MOL    C8927627   4.042   0.256   7.157  0.2906 -0.1552  0.1677
   50MOL    C9027628   4.011   0.194   7.281  0.2183 -0.0854  0.5577
   50MOL    C9127629   3.890   0.130   7.309  0.3285 -0.0600 -0.1973
   50MOL    C9227630   3.870   0.057   7.431 -0.0749  1.2447  0.4520
   50MOL    C9327631   3.745   8.241   7.461  0.6232  0.1548  0.3475
   50MOL    C9427632   3.644   0.003   7.363  0.4680  0.2077 -0.4512
   50MOL    C9527633   3.520   8.171   7.380 -0.1841  0.5702 -0.2035
   50MOL    O9627634   3.524   8.088   7.490  0.1184 -0.5256  0.3471
   50MOL    C9727635   3.417   7.994   7.511  0.6333 -0.2562 -0.6889
   50MOL    C9827636   3.408   7.875   7.419 -0.5610 -0.2144  0.1937
   50MOL    O9927637   3.422   8.170   7.302 -0.4349  0.5242  0.2616
   50MOL   C10027638   3.667   0.078   7.250 -0.0397 -0.8207 -0.2099
   50MOL   C10127639   3.787   0.142   7.219  0.2710  0.2535 -0.1154
   50MOL   C10227640   3.806   0.216   7.100  0.9207  0.1734  0.2711
   50MOL   C10327641   3.935   0.261   7.063 -0.4384  0.2631  0.4338
   50MOL   H10427642   4.091   0.194   7.353 -0.2460 -0.2085  1.0836
   50MOL   H10527643   3.951   0.056   7.503 -1.8870 -1.1204  2.5928
   50MOL   H10627644   3.737   8.192   7.557  1.6017  0.1724  0.4398
   50MOL   H10727645   3.324   8.051   7.510 -0.9850 -2.7771  0.6309
   50MOL   H10827646   3.433   7.970   7.616  0.8836  1.1538 -0.3924
   50MOL   H10927647   3.358   7.901   7.325  1.5292 -0.1596 -0.9347
   50MOL   H11027648   3.507   7.848   7.384 -1.0163 -3.2140  1.1262
   50MOL   H11127649   3.583   0.095   7.185 -0.7499  1.1166  1.1681
   50MOL   H11227650   3.727   0.231   7.028  0.2646 -2.8609  0.2945
   50MOL   H11327651   3.950   0.300   6.964  0.1573  1.7592  1.1071
   50MOL   O11427652   3.147   7.826   7.503 -0.3048 -0.4508  1.1533
   50MOL   C11527653   3.237   7.742   7.527 -0.0905  0.5320 -0.4593
   50MOL   O11627654   3.362   7.752   7.479 -0.0206 -0.3921  0.6084
   50MOL   C11727655   3.216   7.625   7.614 -0.0019 -1.2602 -0.2492
   50MOL   C11827656   3.276   7.504   7.585  0.1905 -0.3666 -0.6835
   50MOL   C11927657   3.279   7.399   7.682  0.1325 -0.1410 -0.4549
   50MOL   C12027658   3.361   7.283   7.661 -0.9358 -0.6783 -0.2591
   50MOL   C12127659   3.345   7.175   7.744 -0.2722 -0.9242  0.2200
   50MOL   C12227660   3.263   7.174   7.856  0.3075 -0.8072 -0.6734
   50MOL   C12327661   3.267   7.057   7.945  0.3145 -0.0103 -0.4549
   50MOL   O12427662   3.231   7.094   8.070  0.3347  0.1833  0.5747
   50MOL   C12527663   3.212   6.991   8.166 -0.4203 -0.5159  0.2075
   50MOL   C12627664   3.063   6.974   8.189  0.1899  0.0251 -0.1652
   50MOL   O12727665   3.298   6.943   7.908 -0.6973  0.3395 -0.0231
   50MOL   C12827666   3.196   7.295   7.887  0.0623  0.1046  0.0044
   50MOL   C12927667   3.202   7.406   7.805  0.5989 -0.8131 -0.1973
   50MOL   C13027668   3.119   7.516   7.818  0.3315 -0.2200 -0.2240
   50MOL   C13127669   3.131   7.628   7.729  0.4243  0.4820  0.1493
   50MOL   H13227670   3.335   7.487   7.496  0.5065  0.3234 -0.6059
   50MOL   H13327671   3.435   7.282   7.583 -0.2012  1.2329  0.3830
   50MOL   H13427672   3.400   7.089   7.708 -1.0603 -1.6883  0.8199
   50MOL   H13527673   3.260   7.031   0.006  0.5164  0.3722 -0.6665
   50MOL   H13627674   3.265   6.900   8.139  1.7865  0.0824  2.3645
   50MOL   H13727675   3.008   7.068   8.190 -1.1550 -0.7365 -0.3968
   50MOL   H13827676   3.025   6.931   8.096 -0.7136  0.9420 -0.2191
   50MOL   H13927677   3.136   7.306   7.976  0.6684  0.2400  0.3995
   50MOL   H14027678   3.050   7.509   7.901 -1.2907  1.2436 -1.3980
   50MOL   H14127679   3.084   7.721   7.754 -0.9401 -0.1315 -0.0837
   50MOL   O14227680   2.835   6.995   0.108 -0.1756 -0.3213 -0.1812
   50MOL   C14327681   2.925   6.913   0.139 -0.2816 -0.5490  0.3328
   50MOL   O14427682   3.041   6.902   0.066 -0.1468 -0.1202  0.1339
   50MOL   C14527683   2.933   6.815   0.265  0.8066 -0.6197 -0.8350
   50MOL   C14627684   2.812   6.763   0.319 -0.1460 -0.1497  0.2094
   50MOL   C14727685   2.812   6.680   0.435 -0.0122  0.4398  0.1018
   50MOL   C14827686   2.697   6.624   0.494  0.1508  0.3284 -0.2470
   50MOL   C14927687   2.698   6.537   0.611 -0.2571  0.3649  0.5666
   50MOL   C15027688   2.823   6.488   0.649  0.2790  0.3896 -0.6886
   50MOL   C15127689   2.822   6.371   0.742  0.7412 -0.2226 -0.5130
   50MOL   O15227690   2.943   6.300   0.740  0.0387 -0.2399 -0.0503
   50MOL   C15327691   2.956   6.199   0.837  0.8430  0.9329  0.1911
   50MOL   C15427692   3.032   6.233   0.968  0.5758 -1.0244 -0.0192
   50MOL   O15527693   2.732   6.347   0.823  0.0672 -0.7956  0.3697
   50MOL   C15627694   2.939   6.544   0.590  0.4628 -0.1639  0.0263
   50MOL   C15727695   2.933   6.643   0.491  0.0488  0.9378  0.2211
   50MOL   C15827696   3.050   6.689   0.440  0.5104 -0.6153  0.0160
   50MOL   C15927697   3.052   6.775   0.326 -0.1564 -0.8654  0.3896
   50MOL   H16027698   2.718   6.785   0.270  0.3627 -0.6993 -1.0410
   50MOL   H16127699   2.600   6.658   0.459 -0.5048  0.0376  1.2696
   50MOL   H16227700   2.608   6.487   0.641 -0.8902 -0.0791 -2.0096
   50MOL   H16327701   3.006   6.126   0.774 -2.0845  0.7731 -2.0255
   50MOL   H16427702   2.857   6.158   0.859  0.5221  0.5455 -1.8680
   50MOL   H16527703   2.987   6.318   1.019 -0.5522 -0.4591 -1.9162
   50MOL   H16627704   3.028   6.153   1.041 -2.0732 -1.8474 -1.0291
   50MOL   H16727705   3.034   6.512   0.631 -0.9465 -2.4336  1.5817
   50MOL   H16827706   3.143   6.665   0.489  0.5981  1.9079  1.1342
   50MOL   H16927707   3.148   6.810   0.293 -0.9583  1.9306  0.8638
   50MOL   O17027708   3.127   6.473   0.866 -0.2313  0.7829 -0.2004
   50MOL   C17127709   3.200   6.377   0.885  0.4471  0.1101 -1.0114
   50MOL   O17227710   3.164   6.258   0.946 -0.3175  0.3045  0.3601
   50MOL   C17327711   3.344   6.396   0.843  0.0233 -0.0900 -0.5236
   50MOL   C17427712   3.375   6.476   0.733 -0.3469 -0.2542  0.0871
   50MOL   C17527713   3.509   6.486   0.701  1.1941 -1.1707  0.8379
   50MOL   C17627714   3.547   6.550   0.584  0.4419 -0.6114 -0.4478
   50MOL   C17727715   3.682   6.540   0.542  0.0854  0.0396  0.2997
   50MOL   C17827716   3.778   6.475   0.619  0.3100  0.3898  0.6756
   50MOL   C17927717   3.914   6.467   0.567  0.3319  0.1320  0.3933
   50MOL   O18027718   3.997   6.375   0.627 -0.2546 -0.3747 -0.1550
   50MOL   C18127719   4.129   6.358   0.581 -0.0148  0.0213  0.5723
   50MOL   C18227720   4.133   6.238   0.488  0.1012 -0.3766  0.6026
   50MOL   O18327721   3.948   6.543   0.474 -0.3960  0.0346 -0.2567
   50MOL   C18427722   3.741   6.418   0.735 -0.0156 -0.0247 -0.3654
   50MOL   C18527723   3.609   6.417   0.777 -0.1937  1.1932 -0.3021
   50MOL   C18627724   3.572   6.343   0.892 -0.5670  0.3051 -0.6938
   50MOL   C18727725   3.437   6.328   0.924  0.6904 -0.5938  0.1072
   50MOL   H18827726   3.289   6.511   0.678  0.9103  1.0647 -1.1052
   50MOL   H18927727   3.472   6.592   0.519 -1.0540 -2.0388  0.3293
   50MOL   H19027728   3.705   6.578   0.444  1.3911  0.8868  0.9150
   50MOL   H19127729   4.201   6.349   0.663  0.3318 -0.1558  0.2506
   50MOL   H19227730   4.158   6.450   0.530  0.5698 -0.8988 -0.8052
   50MOL   H19327731   4.231   6.194   0.468  1.1497  2.2101 -0.1491
   50MOL   H19427732   4.066   6.155   0.507 -0.0194 -0.1964  0.9649
   50MOL   H19527733   3.817   6.376   0.799 -0.7524 -0.4488  0.2530
   50MOL   H19627734   3.643   6.281   0.943  0.2095  0.5773 -1.4291
   50MOL   H19727735   3.416   6.261   1.006 -1.6330  0.0473  0.0758
   50MOL   O19827736   4.277   6.326   0.257 -0.3215 -0.6946  0.8109
   50MOL   C19927737   4.156   6.308   0.258 -0.2888 -0.2644  0.1993
   50MOL   O20027738   4.083   6.279   0.364 -0.3364 -1.0496  0.3675
   50MOL   C20127739   4.065   6.341   0.135 -0.7188 -0.1564 -0.4492
   50MOL   C20227740   4.116   6.338   0.000  0.4757 -0.4011  0.6479
   50MOL   C20327741   4.037   6.362   8.131  0.3787  0.0006 -0.1999
   50MOL   C20427742   4.084   6.332   7.997  0.4610  0.7043 -0.2968
   50MOL   C20527743   3.997   6.364   7.884 -1.0466  0.7606  0.1488
   50MOL   C20627744   3.863   6.397   7.908  0.1370  0.3819  0.6756
   50MOL   C20727745   3.760   6.412   7.802 -0.1264 -0.3130 -0.0463
   50MOL   O20827746   3.773   6.333   7.704  0.1717 -0.2544  0.2936
   50MOL   C20927747   3.673   6.335   7.597 -0.0007 -0.1782 -0.4207
   50MOL   C21027748   3.693   6.465   7.510 -0.0517  0.9669 -0.1096
   50MOL   O21127749   3.663   6.491   7.811  0.0546  0.1623 -0.4933
   50MOL   C21227750   3.818   6.414   8.038 -0.0768 -0.1398  0.0931
   50MOL   C21327751   3.902   6.394   8.149 -0.5193  0.4560 -0.1621
   50MOL   C21427752   3.849   6.400   0.028  0.0257 -0.0383  0.9772
   50MOL   C21527753   3.930   6.370   0.143 -0.3635 -0.2431 -0.0470
   50MOL   H21627754   4.212   6.291   8.241  0.5030 -0.2821  0.2878
   50MOL   H21727755   4.182   6.292   7.976 -0.2238 -1.1164 -0.1495
   50MOL   H21827756   4.035   6.358   7.783 -0.2128 -1.4428  0.5651
   50MOL   H21927757   3.578   6.337   7.651  2.2396 -0.9549  3.7584
   50MOL   H22027758   3.675   6.248   7.532  0.6682  0.4830 -1.3116
   50MOL   H22127759   3.592   6.476   7.471 -0.4884  0.8610  0.9897
   50MOL   H22227760   3.729   6.550   7.568 -0.6101  1.3926 -0.3805
   50MOL   H22327761   3.713   6.432   8.054  0.2227  1.1325  0.7622
   50MOL   H22427762   3.744   6.425   0.029 -0.2960 -1.0978 -1.2985
   50MOL   H22527763   3.884   6.365   0.240 -1.0067 -0.7639 -0.3769
   50MOL   O22627764   3.968   6.439   7.528  0.1938 -0.1787  0.5389
   50MOL   C22727765   3.916   6.427   7.423  0.0134 -0.1375 -0.1918
   50MOL   O22827766   3.784   6.438   7.403  0.5234  0.0940  0.0825
   50MOL   C22927767   3.992   6.423   7.292 -0.0581  0.5094 -0.5864
   50MOL   C23027768   3.915   6.426   7.169 -0.2495 -0.3495  0.2951
   50MOL   C23127769   3.988   6.447   7.048 -0.1246  0.8020  0.7229
   50MOL   C23227770   3.922   6.463   6.925 -0.1898 -0.2726  0.1252
   50MOL   C23327771   3.988   6.472   6.798 -0.0318  0.3265 -0.2486
   50MOL   C23427772   4.132   6.474   6.802  0.7470 -0.3225  0.0277
   50MOL   C23527773   4.213   6.470   6.668  0.7804 -0.0547 -0.3763
   50MOL   O23627774   4.345   6.464   6.686 -0.2644  0.5446  0.3446
   50MOL   C23727775   4.431   6.429   6.569  0.3546  0.7077  0.5229
   50MOL   C23827776   4.409   6.277   6.550  0.5359  0.1582 -0.0209
   50MOL   O23927777   4.159   6.470   6.561 -0.6667 -0.0780  0.2057
   50MOL   C24027778   4.205   6.462   6.925 -0.6202  0.7655 -0.1912
   50MOL   C24127779   4.132   6.449   7.052 -0.4585 -0.3083 -0.6442
   50MOL   C24227780   4.201   6.436   7.175  0.0537 -0.4270  0.2688
   50MOL   C24327781   4.131   6.431   7.297 -0.4363  0.1167 -0.4567
   50MOL   H24427782   3.807   6.433   7.171 -0.3657 -1.3959 -1.7060
   50MOL   H24527783   3.815   6.459   6.932 -0.1395  0.4880  1.5576
   50MOL   H24627784   3.936   6.463   6.704 -0.2903  1.0067 -0.1735
   50MOL   H24727785   4.530   6.465   6.596 -0.1579  3.3406 -0.9004
   50MOL   H24827786   4.401   6.481   6.478 -1.3396 -1.0821  0.0357
   50MOL   H24927787   4.380   6.212   6.632  2.4853 -0.8909 -0.1441
   50MOL   H25027788   4.321   6.267   6.486 -0.0846  0.2266  0.8047
   50MOL   H25127789   4.310   6.484   6.920 -0.1006 -1.4145  0.5517
   50MOL   H25227790   4.309   6.446   7.167 -0.2003  1.6807 -0.8852
   50MOL   H25327791   4.193   6.435   7.385  0.4945 -0.5808 -1.0739
   50MOL   O25427792   4.631   6.149   6.668  0.3861  0.6308 -0.1381
   50MOL   C25527793   4.627   6.168   6.547 -1.0145 -0.0184  0.6387
   50MOL   O25627794   4.524   6.229   6.481 -0.0092 -0.1073 -0.0404
   50MOL   C25727795   4.738   6.133   6.456 -0.4950  0.0196 -0.5627
   50MOL   C25827796   4.728   6.123   6.316 -0.6951  0.2809 -0.2018
   50MOL   C25927797   4.843   6.089   6.238 -0.0939  0.4677  0.4890
   50MOL   C26027798   4.839   6.096   6.099  0.3620  0.3611  0.4070
   50MOL   C26127799   4.954   6.060   6.024  0.0538  0.6792  0.6253
   50MOL   C26227800   5.078   6.034   6.082 -0.1848  0.4903  0.1087
   50MOL   C26327801   5.200   6.015   5.994  1.0936 -0.5746  0.2409
   50MOL   O26427802   5.318   5.993   6.054 -0.5902  0.4104  0.1651
   50MOL   C26527803   5.431   5.958   5.978 -0.7457 -0.5342  0.4290
   50MOL   C26627804   5.508   6.084   5.925  0.1157 -0.1839  0.0628
   50MOL   O26727805   5.192   6.004   5.871 -0.2800 -0.8196 -0.2815
   50MOL   C26827806   5.085   6.048   6.223 -0.2550  0.7975  0.3443
   50MOL   C26927807   4.969   6.070   6.306  0.0200  0.2817 -0.5287
   50MOL   C27027808   4.985   6.092   6.440 -0.2138 -0.0677 -0.0476
   50MOL   C27127809   4.867   6.121   6.515 -0.7946  0.3993  0.7547
   50MOL   H27227810   4.626   6.122   6.281 -0.8399  0.2218  0.2089
   50MOL   H27327811   4.761   6.142   6.041  1.0532  0.8234 -0.1757
   50MOL   H27427812   4.941   6.068   5.917 -0.0025  0.1285  0.5882
   50MOL   H27527813   5.404   5.897   5.892  0.3854 -0.5678  0.0983
   50MOL   H27627814   5.478   5.888   6.048 -2.6879 -1.5408  0.7708
   50MOL   H27727815   5.581   6.055   5.849 -1.2091 -0.4836 -1.1144
   50MOL   H27827816   5.450   6.169   5.889  0.2922 -0.1657 -0.1846
   50MOL   H27927817   5.183   6.035   6.267  0.0735 -1.9468 -1.0648
   50MOL   H28027818   5.080   6.072   6.488  1.0342  0.6781 -2.1679
   50MOL   H28127819   4.877   6.125   6.622  1.0826 -1.0134  0.6470
   50MOL   O28227820   5.772   6.038   5.992 -0.4418  0.6857 -0.9735
   50MOL   C28327821   5.699   6.098   6.072  0.7854  0.0919  0.2633
   50MOL   O28427822   5.572   6.140   6.042 -0.5110  0.2670 -0.2809
   50MOL   C28527823   5.733   6.131   6.212  0.4571 -0.0281 -0.2325
   50MOL   C28627824   5.650   6.227   6.281 -0.1100  0.3597  0.3003
   50MOL   C28727825   5.681   6.257   6.415  0.1705 -0.0695  0.4468
   50MOL   C28827826   5.622   6.365   6.482  0.3055  0.8189  0.2665
   50MOL   C28927827   5.656   6.392   6.614 -0.1119  0.0975  0.2960
   50MOL   C29027828   5.747   6.311   6.685 -0.1486 -0.8184 -0.4675
   50MOL   C29127829   5.779   6.357   6.816 -0.4722 -1.0667  0.7274
   50MOL   O29227830   5.844   6.268   6.895 -0.2431 -0.5136 -0.3716
   50MOL   C29327831   5.901   6.312   7.019  0.2083  0.4561  0.6758
   50MOL   C29427832   5.933   6.204   7.110  0.4304  0.7378 -0.3536
   50MOL   O29527833   5.751   6.469   6.857 -0.1639 -0.3714  0.2476
   50MOL   C29627834   5.804   6.202   6.618  0.2967  0.0398  0.0255
   50MOL   C29727835   5.779   6.177   6.488  0.8538 -0.2905  0.3232
   50MOL   C29827836   5.848   6.078   6.421  0.1619  0.4079 -0.0518
   50MOL   C29927837   5.838   6.066   6.283 -0.2536 -0.4225  0.0337
   50MOL   H30027838   5.573   6.283   6.232  0.2090  0.0427 -0.5816
   50MOL   H30127839   5.536   6.417   6.444  0.6846  1.8277  0.7665
   50MOL   H30227840   5.596   6.479   6.639  0.6258  0.1729  1.7945
   50MOL   H30327841   5.834   6.383   7.069  1.0546  2.2589 -0.6861
   50MOL   H30427842   5.986   6.374   6.995 -0.7380  0.6684 -2.3350
   50MOL   H30527843   6.020   6.155   7.067 -0.5192 -0.5625 -0.8414
   50MOL   H30627844   5.966   6.250   7.203  2.5177 -0.8987 -0.2479
   50MOL   H30727845   5.872   6.135   6.668  0.6518 -1.7232 -2.7380
   50MOL   H30827846   5.918   6.014   6.473 -0.8380  0.4049  1.3383
   50MOL   H30927847   5.897   5.992   6.230  2.0593  1.0300  0.4649
   50MOL   O31027848   5.681   6.271   7.227 -0.3864 -0.4721 -0.1404
   50MOL   C31127849   5.705   6.161   7.180  0.4524  0.3364  0.2797
   50MOL   O31227850   5.820   6.119   7.121  0.2012  0.0882 -0.2746
   50MOL   C31327851   5.611   6.050   7.182 -0.1000 -0.2053 -0.0656
   50MOL   C31427852   5.476   6.066   7.224  0.4614  0.0542 -0.3527
   50MOL   C31527853   5.386   5.962   7.212 -0.4170  0.3526 -0.5984
   50MOL   C31627854   5.257   5.979   7.262 -0.7094  0.0722  0.0815
   50MOL   C31727855   5.160   5.878   7.232  0.1586 -0.0728 -0.0278
   50MOL   C31827856   5.190   5.763   7.167 -0.0782  0.1347 -0.3285
   50MOL   C31927857   5.078   5.661   7.135 -0.7975 -0.0782 -0.2464
   50MOL   O32027858   5.105   5.565   7.046 -0.3558  0.2549 -0.2218
   50MOL   C32127859   5.016   5.462   7.012 -1.0244 -0.6357 -0.9925
   50MOL   C32227860   5.034   5.346   7.114 -0.4617  0.2204 -0.4968
   50MOL   O32327861   4.973   5.653   7.200  0.1866  0.3457 -0.6360
   50MOL   C32427862   5.319   5.746   7.119  0.5020  0.0668  0.3061
   50MOL   C32527863   5.419   5.847   7.140  0.1049  0.7235 -0.0223
   50MOL   C32627864   5.547   5.828   7.091 -0.1117 -0.2943 -0.9173
   50MOL   C32727865   5.643   5.927   7.123  0.4804 -0.9439 -0.3273
   50MOL   H32827866   5.450   6.144   7.294  0.0194 -0.9867  0.6562
   50MOL   H32927867   5.233   6.066   7.322  0.1644 -0.8341  1.7890
   50MOL   H33027868   5.059   5.902   7.261  0.5635  1.1529  0.3843
   50MOL   H33127869   5.050   5.431   6.913 -0.3261 -0.6565 -0.7489
   50MOL   H33227870   4.913   5.496   7.008 -0.6466  0.5949 -0.6818
   50MOL   H33327871   5.032   5.368   7.221  1.6590 -2.4299  0.1287
   50MOL   H33427872   4.941   5.289   7.115 -1.2968  1.5346 -1.0035
   50MOL   H33527873   5.339   5.654   7.066 -0.9853  0.2415 -0.5984
   50MOL   H33627874   5.586   5.743   7.038  2.6160 -0.4674  1.2296
   50MOL   H33727875   5.746   5.907   7.096  0.5960 -1.7477  0.6454
   50MOL   O33827876   5.307   5.343   7.205  0.3708 -0.5397  0.2234
   50MOL   C33927877   5.263   5.273   7.110  0.8185 -0.5634 -0.7201
   50MOL   O34027878   5.133   5.260   7.068 -0.1174 -0.3724 -0.0246
   50MOL   C34127879   5.351   5.205   7.011  0.2113  0.2996 -0.1098
   50MOL   C34227880   5.474   5.264   6.968  0.0802  0.1057 -0.1911
   50MOL   C34327881   5.540   5.197   6.865 -0.0564  0.2300  1.0001
   50MOL   C34427882   5.662   5.252   6.816 -0.4981  0.2129 -0.4410
   50MOL   C34527883   5.727   5.195   6.708 -0.4838  0.1942  0.6139
   50MOL   C34627884   5.675   5.080   6.642  0.7399  0.3413  0.1095
   50MOL   C34727885   5.752   5.021   6.525  0.0125  0.0679 -0.3328
   50MOL   O34827886   5.676   4.965   6.428 -0.2665 -0.1812 -0.1754
   50MOL   C34927887   5.740   4.913   6.321  0.5343  0.4605 -0.0701
   50MOL   C35027888   5.830   4.786   6.355  0.3605  0.0512  0.0085
   50MOL   O35127889   5.870   5.031   6.519 -0.0305 -0.2636 -0.1632
   50MOL   C35227890   5.552   5.022   6.688  0.0197  0.0910 -0.0281
   50MOL   C35327891   5.493   5.085   6.796  0.1815  0.3832  0.0939
   50MOL   C35427892   5.369   5.036   6.838 -1.0732 -0.3707 -0.0629
   50MOL   C35527893   5.297   5.094   6.942 -0.0454 -0.3649 -0.1782
   50MOL   H35627894   5.514   5.359   7.001  0.7273 -0.1796 -0.1533
   50MOL   H35727895   5.693   5.342   6.867  0.7114 -1.3136  1.5758
   50MOL   H35827896   5.815   5.247   6.673 -1.1033  0.8661  0.0350
   50MOL   H35927897   5.798   4.980   6.257  2.1725 -0.8253  0.0350
   50MOL   H36027898   5.659   4.886   6.253  0.9391 -2.0216  0.4005
   50MOL   H36127899   5.774   4.731   6.431 -1.3357 -0.7258 -1.7404
   50MOL   H36227900   5.818   4.724   6.266  1.2807  1.2348 -0.9754
   50MOL   H36327901   5.494   4.941   6.647  0.0811 -0.2920  0.6452
   50MOL   H36427902   5.318   4.958   6.782 -1.5663  1.6155 -2.4467
   50MOL   H36527903   5.209   5.044   6.980 -0.7867  3.0731  2.8405
   50MOL   O36627904   6.037   4.817   6.179  0.2456  0.4063 -0.2682
   50MOL   C36727905   6.050   4.836   6.298  0.2894 -0.0378 -0.1561
   50MOL   O36827906   5.969   4.802   6.391  0.2108  0.4303 -0.5404
   50MOL   C36927907   6.177   4.892   6.352  0.2571 -0.0000  0.0898
   50MOL   C37027908   6.200   4.928   6.492 -0.2634 -0.6554  0.4839
   50MOL   C37127909   6.325   4.987   6.537  0.3732  0.6236  0.7080
   50MOL   C37227910   6.341   5.035   6.669 -0.3214 -0.2856 -0.7557
   50MOL   C37327911   6.471   5.070   6.717  0.0829  0.5324 -0.3445
   50MOL   C37427912   6.580   5.076   6.625 -0.1429  0.4184 -0.1272
   50MOL   C37527913   6.720   5.088   6.673 -0.3924  0.0640  0.5071
   50MOL   O37627914   6.811   5.075   6.581 -0.2092  0.6446 -0.1229
   50MOL   C37727915   6.953   5.099   6.619 -0.3179 -0.2590 -0.0389
   50MOL   C37827916   7.030   5.171   6.505  0.1773 -0.2934 -0.0182
   50MOL   O37927917   6.743   5.126   6.790  0.4580 -0.1800 -0.3023
   50MOL   C38027918   6.561   5.043   6.489  0.9195 -0.2054  0.3584
   50MOL   C38127919   6.437   4.996   6.445 -0.2622  0.0100 -0.2911
   50MOL   C38227920   6.409   4.957   6.312  0.2872  0.8013  0.2378
   50MOL   C38327921   6.284   4.916   6.263  0.7720  0.4579  0.0673
   50MOL   H38427922   6.113   4.922   6.556 -1.0252 -1.5502 -0.6336
   50MOL   H38527923   6.258   5.031   6.738  1.5692 -1.5964  1.5363
   50MOL   H38627924   6.488   5.104   6.818 -1.4308 -2.2997  0.9415
   50MOL   H38727925   6.991   5.000   6.646 -0.4245 -0.3573 -0.2502
   50MOL   H38827926   6.961   5.171   6.701 -0.4708  0.6837 -0.8549
   50MOL   H38927927   6.956   5.216   6.438 -1.2121 -2.2630  0.1501
   50MOL   H39027928   7.092   5.256   6.534  2.0685 -1.5480 -0.3141
   50MOL   H39127929   6.641   5.041   6.416  1.6203 -0.5924  1.1324
   50MOL   H39227930   6.484   4.950   6.235 -0.2676  0.0636 -0.2438
   50MOL   H39327931   6.266   4.886   6.161  3.0305 -1.0131  0.0596
   50MOL   O39427932   6.947   4.979   6.345 -0.1407 -0.4027  0.2740
   50MOL   C39527933   7.069   4.987   6.362  0.7167  0.0501  1.3910
   50MOL   O39627934   7.120   5.082   6.442  0.1879  0.5906 -0.3378
   50MOL   C39727935   7.178   4.905   6.299 -1.2452 -0.1560 -1.0096
   50MOL   C39827936   7.149   4.807   6.202  0.2251 -0.2795 -0.7957
   50MOL   C39927937   7.247   4.712   6.169  0.6513 -0.2973  0.0595
   50MOL   C40027938   7.221   4.617   6.065 -0.1359 -0.0085  0.1170
   50MOL   C40127939   7.308   4.513   6.035  0.5595  0.1091  1.2946
   50MOL   C40227940   7.436   4.513   6.098  0.9204  0.0446  0.8196
   50MOL   C40327941   7.535   4.409   6.064  0.2530 -0.0516  0.3514
   50MOL   O40427942   7.621   4.387   6.167 -0.4727  0.0928 -0.3169
   50MOL   C40527943   7.715   4.287   6.168  0.5811  0.0013 -0.3881
   50MOL   C40627944   7.849   4.364   6.179  0.0853  0.3718 -0.6815
   50MOL   O40727945   7.534   4.339   5.961 -0.0716 -0.1546 -0.3331
   50MOL   C40827946   7.466   4.613   6.195 -0.5081 -0.0556 -0.7622
   50MOL   C40927947   7.370   4.707   6.235 -0.4541  0.0520 -0.5532
   50MOL   C41027948   7.404   4.808   6.327 -0.4392  0.8453  0.7126
   50MOL   C41127949   7.307   4.901   6.368 -0.1820  0.2207  0.4519
   50MOL   H41227950   7.055   4.816   6.149  0.9799  0.9699 -1.9686
   50MOL   H41327951   7.131   4.621   6.007 -0.3618 -1.6738  0.3179
   50MOL   H41427952   7.284   4.432   5.968 -2.1791  1.4181  0.6486
   50MOL   H41527953   7.716   4.224   6.078 -3.6970 -3.0425  1.5207
   50MOL   H41627954   7.705   4.210   6.245 -1.5242  0.9596  0.3055
   50MOL   H41727955   7.850   4.464   6.221 -1.2623 -0.3478  1.1543
   50MOL   H41827956   7.918   4.300   6.236  0.0107  0.5126 -0.4320
   50MOL   H41927957   7.567   4.623   6.233 -0.3264 -0.6649 -1.0826
   50MOL   H42027958   7.505   4.809   6.365 -0.0520 -0.7085 -0.2336
   50MOL   H42127959   7.336   4.975   6.442 -0.8092  2.0733 -1.1004
   50MOL   O42227960   8.091   4.454   6.129 -0.0084  0.1515 -0.3429
   50MOL   C42327961   8.021   4.426   6.033  0.7326 -0.5733 -0.0546
   50MOL   O42427962   7.896   4.392   6.049  0.1395  0.2241 -0.1584
   50MOL   C42527963   8.074   4.381   5.900 -0.1812 -0.3827  0.2795
   50MOL   C42627964   8.208   4.368   5.870 -0.0641 -0.0977  0.5858
   50MOL   C42727965   8.241   4.293   5.756 -0.7135 -0.3611 -0.3512
   50MOL   C42827966   0.131   4.275   5.727  0.0716 -0.7240  0.0397
   50MOL   C42927967   0.168   4.197   5.611 -0.2493  0.4096  0.1002
   50MOL   C43027968   0.075   4.140   5.520 -1.1493 -0.4814  0.1311
   50MOL   C43127969   0.115   4.036   5.416  0.6047  0.1113 -0.2880
   50MOL   O43227970   0.001   3.960   5.381 -0.3918  0.9584 -0.0379
   50MOL   C43327971   0.008   3.879   5.263 -0.1730  0.6443  0.0023
   50MOL   C43427972   8.140   3.794   5.234 -0.4959 -0.2719 -0.2685
   50MOL   O43527973   0.230   4.015   5.372 -0.4267 -0.0694 -0.1113
   50MOL   C43627974   8.190   4.165   5.550  0.1368  0.3253 -0.3487
   50MOL   C43727975   8.146   4.251   5.656  0.1763  0.3609 -0.6973
   50MOL   C43827976   8.009   4.278   5.678 -0.9767  0.9931  0.1147
   50MOL   C43927977   7.978   4.338   5.803  0.1967 -0.1462 -0.1095
   50MOL   H44027978   0.034   4.396   5.942  2.0733 -1.1799 -1.2004
   50MOL   H44127979   0.201   4.322   5.794 -2.9041 -0.3194  2.9900
   50MOL   H44227980   0.273   4.177   5.590 -0.2124  1.3750 -0.6740
   50MOL   H44327981   0.090   3.811   5.288 -2.3660 -2.4619 -0.9230
   50MOL   H44427982   0.025   3.932   5.169  1.9898  2.5932  1.4230
   50MOL   H44527983   8.154   3.720   5.155  1.7187 -1.1717  0.9381
   50MOL   H44627984   8.129   3.730   5.322  0.0345 -0.6710 -0.4933
   50MOL   H44727985   8.120   4.119   5.482 -0.8550 -1.0794  1.6080
   50MOL   H44827986   7.938   4.231   5.610  1.7870 -3.5648  0.2065
   50MOL   H44927987   7.873   4.348   5.827 -0.3270  1.2510 -2.8386
   50MOL   O45027988   8.069   3.981   5.036  0.1384 -0.0545  0.3819
   50MOL   C45127989   7.995   3.960   5.137 -0.8086 -0.5896 -0.6121
   50MOL   O45227990   8.018   3.872   5.234 -0.0830 -0.3096  0.2359
   50MOL   C45327991   7.881   4.048   5.178 -0.2470  0.2264 -0.7952
   50MOL   C45427992   7.842   4.059   5.315  0.2513 -0.3062 -0.2944
   50MOL   C45527993   7.741   4.152   5.349 -0.3513 -0.5958 -0.8182
   50MOL   C45627994   7.698   4.163   5.485 -0.4654 -0.2069  0.1946
   50MOL   C45727995   7.593   4.250   5.516 -0.2992  0.0724 -0.7869
   50MOL   C45827996   7.531   4.328   5.414  0.4952  0.3979  0.6866
   50MOL   C45927997   7.416   4.417   5.451  0.3617 -0.3537 -0.2946
   50MOL   O46027998   7.404   4.435   5.586  0.3948  0.2426  0.2007
   50MOL   C46127999   7.297   4.496   5.649 -0.9242 -0.0771  0.3287
   50MOL   C46228000   7.208   4.387   5.701  0.5480  0.5542 -0.0322
   50MOL   O46328001   7.334   4.457   5.366 -0.9474 -0.4209 -0.4685
   50MOL   C46428002   7.560   4.306   5.275 -0.3666 -0.7855 -0.2713
   50MOL   C46528003   7.670   4.220   5.241  0.8474 -0.0663  0.3475
   50MOL   C46628004   7.713   4.210   5.106 -0.3310 -0.1335  0.4380
   50MOL   C46728005   7.819   4.122   5.076  0.2799  0.0086  0.2390
   50MOL   H46828006   7.894   4.012   5.398 -2.9981 -1.0978  1.3731
   50MOL   H46928007   7.742   4.111   5.569 -0.1912  1.5501  1.1662
   50MOL   H47028008   7.563   4.250   5.620  0.4097  0.0540 -0.5772
   50MOL   H47128009   7.233   4.554   5.582 -0.3059 -0.6501 -0.7728
   50MOL   H47228010   7.325   4.563   5.730  1.6596  0.9486 -1.3407
   50MOL   H47328011   7.269   4.331   5.772  0.9444 -1.7271 -2.0828
   50MOL   H47428012   7.123   4.430   5.754  0.2636  0.9542 -0.7994
   50MOL   H47528013   7.508   4.365   5.202  1.3746  1.7253  0.4488
   50MOL   H47628014   7.652   4.257   5.030  0.0959  1.0363  0.8101
   50MOL   H47728015   7.847   4.114   4.972  0.9875  2.3003  0.2224
   50MOL   O47828016   7.090   4.138   5.732 -0.3464  0.0425  0.2193
   50MOL   C47928017   7.080   4.200   5.625 -0.2093 -0.8235 -0.9800
   50MOL   O48028018   7.152   4.307   5.592 -0.4205 -0.6014 -0.3970
   50MOL   C48128019   6.989   4.165   5.510 -0.5301 -0.5847 -0.2164
   50MOL   C48228020   7.012   4.214   5.382  0.1868  1.1233  0.0706
   50MOL   C48328021   6.936   4.170   5.277  0.4440  0.0530 -0.1877
   50MOL   C48428022   6.948   4.226   5.149  0.0753 -0.4828  0.2864
   50MOL   C48528023   6.877   4.173   5.041 -0.2214 -0.4096 -0.2616
   50MOL   C48628024   6.787   4.066   5.061  0.8343 -0.0865  0.1326
   50MOL   C48728025   6.723   4.011   4.940 -0.3863 -0.0768 -1.3215
   50MOL   O48828026   6.669   3.882   4.956  0.2634 -0.0003  0.3804
   50MOL   C48928027   6.617   3.815   4.846  0.3202 -0.3387 -0.1058
   50MOL   C49028028   6.485   3.759   4.897  0.7292  0.2511  0.9594
   50MOL   O49128029   6.714   4.073   4.833  0.0554 -0.0358  0.2929
   50MOL   C49228030   6.765   4.015   5.190  0.4875  0.2513 -0.5559
   50MOL   C49328031   6.835   4.073   5.298  0.2247 -0.8616 -0.2342
   50MOL   C49428032   6.819   4.019   5.428  0.1377  0.0370 -0.1285
   50MOL   C49528033   6.899   4.057   5.530  0.3283 -0.3485  0.4033
   50MOL   H49628034   7.093   4.286   5.374  2.4252 -1.0023  2.8322
   50MOL   H49728035   7.021   4.304   5.131  1.1765 -1.8434 -1.2650
   50MOL   H49828036   6.893   4.213   4.942 -1.5840 -0.2776 -0.4415
   50MOL   H49928037   6.683   3.738   4.806 -2.5246 -0.7675 -4.2535
   50MOL   H50028038   6.591   3.872   4.757 -0.6258 -0.5294  0.0455
   50MOL   H50128039   6.505   3.665   4.947  1.4351  0.3766  0.9184
   50MOL   H50228040   6.453   3.820   4.982  3.7991 -0.0571  2.4134
   50MOL   H50328041   6.704   3.928   5.210  1.4431 -0.4179 -0.5198
   50MOL   H50428042   6.746   3.939   5.435  0.2904 -0.2133 -1.3620
   50MOL   H50528043   6.906   4.011   5.627 -1.2742  1.3022  1.3346
   50MOL   O50628044   6.469   3.577   4.681  0.4635 -0.1860 -0.1291
   50MOL   C50728045   6.379   3.665   4.699  0.9389  0.5840  0.1530
   50MOL   O50828046   6.379   3.755   4.793  0.1563 -0.0156 -0.0928
   50MOL   C50928047   6.259   3.684   4.608  0.5990 -0.0071  0.2093
   50MOL   C51028048   6.169   3.797   4.605  0.8039  0.5817  0.3230
   50MOL   C51128049   6.061   3.805   4.510 -0.6632  0.2311 -0.5925
   50MOL   C51228050   5.977   3.918   4.500  0.8176 -0.6064 -0.0127
   50MOL   C51328051   5.867   3.920   4.409 -0.0151  0.2651 -0.6358
   50MOL   C51428052   5.850   3.816   4.319  0.3464  0.3162  0.0268
   50MOL   C51528053   5.741   3.829   4.214  0.1861 -0.2462 -0.3404
   50MOL   O51628054   5.746   3.731   4.128  0.4249  0.7374 -0.2014
   50MOL   C51728055   5.635   3.722   4.041 -0.4331  0.3977  0.3102
   50MOL   C51828056   5.507   3.674   4.110 -0.1298 -0.3883  0.2388
   50MOL   O51928057   5.653   3.911   4.213  0.2589 -0.4236 -0.6706
   50MOL   C52028058   5.935   3.703   4.329  0.9654  0.4799 -0.6278
   50MOL   C52128059   6.045   3.701   4.417  0.3469  0.0069  0.7963
   50MOL   C52228060   6.121   3.590   4.425 -0.0658  0.8657 -0.8329
   50MOL   C52328061   6.227   3.575   4.522  0.2630 -0.1789 -0.1319
   50MOL   H52428062   6.188   3.879   4.672  0.9113  0.7237  0.1180
   50MOL   H52528063   5.997   4.003   4.563 -2.5798 -0.6975  1.2833
   50MOL   H52628064   5.794   4.000   4.412 -1.3090 -0.8900 -0.3469
   50MOL   H52728065   5.661   3.644   3.969 -1.5655  1.7813 -1.6583
   50MOL   H52828066   5.622   3.809   3.976  2.2165  0.2821 -0.4145
   50MOL   H52928067   5.477   3.757   4.174  1.2665  0.1515  0.2082
   50MOL   H53028068   5.418   3.659   4.049 -0.7493  1.6868  0.5853
   50MOL   H53128069   5.916   3.613   4.273  1.3609  1.0108 -1.6140
   50MOL   H53228070   6.096   3.503   4.366  0.7688 -0.4920  0.7847
   50MOL   H53328071   6.272   3.478   4.536 -1.1050 -0.7665  0.2272
   50MOL   O53428072   5.502   3.418   4.008  0.7394 -0.0823  0.1419
   50MOL   C53528073   5.529   3.432   4.124  0.4079 -0.4576  0.6274
   50MOL   O53628074   5.523   3.555   4.189  0.8406 -0.3075 -0.7506
   50MOL   C53728075   5.560   3.316   4.220  0.7510  0.2912 -0.0084
   50MOL   C53828076   5.586   3.343   4.356  0.7252  0.7795  0.0276
   50MOL   C53928077   5.620   3.233   4.444  0.6883 -0.2282  0.9449
   50MOL   C54028078   5.653   3.265   4.574 -0.5433 -0.5784 -0.8021
   50MOL   C54128079   5.701   3.167   4.664 -0.0856 -0.1205 -0.3529
   50MOL   C54228080   5.698   3.029   4.623 -0.6614  0.0214  0.0954
   50MOL   C54328081   5.733   2.916   4.717 -0.5437 -0.1674  0.9516
   50MOL   O54428082   5.770   2.797   4.661  0.1328  0.3629 -0.0190
   50MOL   C54528083   5.811   2.690   4.739 -1.1738  0.0075 -0.1003
   50MOL   C54628084   5.950   2.697   4.784 -0.2276  0.3772  0.4286
   50MOL   O54728085   5.729   2.939   4.840 -0.2595  0.5571 -0.9621
   50MOL   C54828086   5.655   3.002   4.487 -1.0735  0.4389  0.0219
   50MOL   C54928087   5.621   3.104   4.396  0.6589  0.1645 -0.9956
   50MOL   C55028088   5.580   3.073   4.265  0.1572  0.1061  0.3685
   50MOL   C55128089   5.555   3.181   4.175  0.3505 -0.3950  0.4098
   50MOL   H55228090   5.579   3.447   4.383 -0.5576  0.1541  2.2525
   50MOL   H55328091   5.661   3.364   4.615 -1.0704 -0.8452 -0.0380
   50MOL   H55428092   5.735   3.194   4.763  1.5440 -0.4861 -0.8005
   50MOL   H55528093   5.789   2.605   4.675 -0.5038  0.4217 -0.8922
   50MOL   H55628094   5.741   2.675   4.821  2.2757  0.3071  3.0165
   50MOL   H55728095   5.956   2.777   4.858 -0.9077  0.0221  0.8696
   50MOL   H55828096   6.018   2.706   4.699  0.3283  0.0425  0.8364
   50MOL   H55928097   5.669   2.898   4.460  2.1044  0.5468  0.9918
   50MOL   H56028098   5.583   2.970   4.231  1.3881 -0.1834  1.3100
   50MOL   H56128099   5.518   3.164   4.075  0.8456  1.0034 -0.0139
   50MOL   H56228100   5.977   2.606   4.837  0.0384  0.9370  1.2648
   51MOL     O128101   3.579   7.924   4.094  0.6394  0.2760 -0.0152
   51MOL     C228102   3.493   7.879   4.016  0.0373  0.0691  0.2963
   51MOL     O328103   3.364   7.842   4.056  0.0953 -0.0198 -0.6317
   51MOL     C428104   3.524   7.822   3.879 -0.5377  0.0052  0.0824
   51MOL     C528105   3.660   7.794   3.851  0.1307 -0.5649  0.1060
   51MOL     C628106   3.695   7.755   3.718 -0.2391 -0.0905  1.1066
   51MOL     C728107   3.826   7.729   3.694 -0.2330 -0.1300  0.0882
   51MOL     C828108   3.867   7.690   3.568 -1.1460  0.0939 -0.4584
   51MOL     C928109   3.771   7.662   3.471  0.5096  0.4201 -0.2562
   51MOL    C1028110   3.808   7.608   3.335  0.4210 -0.1533  0.6776
   51MOL    O1128111   3.942   7.608   3.313  0.0185  0.3266 -0.4739
   51MOL    C1228112   3.994   7.588   3.188  0.0465 -0.0487  0.2534
   51MOL    C1328113   3.987   7.439   3.154  0.3943 -0.5247 -1.1679
   51MOL    O1428114   3.723   7.561   3.266 -0.1200 -0.2268 -0.2557
   51MOL    C1528115   3.634   7.683   3.497  0.2166  0.1008  0.5272
   51MOL    C1628116   3.596   7.736   3.623 -0.2983 -0.4911 -0.1689
   51MOL    C1728117   3.461   7.768   3.646  0.1070  0.4035  0.2408
   51MOL    C1828118   3.428   7.810   3.777 -0.3718 -0.1407  0.2688
   51MOL    H1928119   3.738   7.784   3.925 -1.6937  0.6331  2.2632
   51MOL    H2028120   3.898   7.739   3.774  0.0323 -1.5640  0.0440
   51MOL    H2128121   3.973   7.674   3.552 -1.5215 -0.1488 -2.8634
   51MOL    H2228122   3.940   7.634   3.106  0.4132  0.0996  0.0940
   51MOL    H2328123   4.093   7.633   3.188 -0.8927  2.1562  2.1743
   51MOL    H2428124   3.990   7.371   3.239 -2.6919 -0.0653 -0.6449
   51MOL    H2528125   3.890   7.420   3.109  0.2269 -1.9719 -0.2211
   51MOL    H2628126   3.558   7.656   3.425  1.0190  0.6465 -0.5313
   51MOL    H2728127   3.384   7.766   3.571  0.2725  0.9803  0.0513
   51MOL    H2828128   3.323   7.822   3.799 -0.1409  1.5398  0.4897
   51MOL    H2928129   3.350   7.850   4.149 -0.9502  0.6429 -0.8484
   51MOL    O3028130   3.964   7.441   2.875  0.1091 -0.1268  0.2302
   51MOL    C3128131   4.070   7.408   2.929 -0.0196 -0.1252  0.0314
   51MOL    O3228132   4.088   7.404   3.063 -0.0344 -0.1834 -0.2633
   51MOL    C3328133   4.182   7.343   2.851 -0.1071 -0.7368  0.3720
   51MOL    C3428134   4.167   7.317   2.709 -0.1660 -0.0540  0.2322
   51MOL    C3528135   4.278   7.263   2.639 -0.3191 -1.1455  0.3623
   51MOL    C3628136   4.279   7.236   2.502  0.5122  0.0427 -0.0394
   51MOL    C3728137   4.393   7.213   2.430  0.2001  0.0244 -0.3362
   51MOL    C3828138   4.517   7.199   2.498  0.0557  0.2058 -0.3935
   51MOL    C3928139   4.640   7.154   2.426  0.5168 -0.1858  0.2004
   51MOL    O4028140   4.617   7.089   2.319  0.1267 -0.2093 -0.3813
   51MOL    C4128141   4.721   7.032   2.240 -0.1530  0.3944 -0.0477
   51MOL    C4228142   4.695   6.881   2.197 -0.1352 -0.5856 -0.4077
   51MOL    O4328143   4.753   7.172   2.477 -0.2499 -0.0909  0.2630
   51MOL    C4428144   4.524   7.218   2.634 -0.1203 -0.3090 -0.8968
   51MOL    C4528145   4.405   7.250   2.704 -0.1320 -0.4490  0.3186
   51MOL    C4628146   4.420   7.275   2.840 -0.1086  0.8692 -0.1427
   51MOL    C4728147   4.306   7.312   2.918  0.7668 -0.0603  0.1746
   51MOL    H4828148   4.069   7.328   2.665 -0.6538  0.6409  1.4681
   51MOL    H4928149   4.191   7.239   2.440 -0.5941  0.6657  1.5290
   51MOL    H5028150   4.394   7.193   2.324 -2.8750 -1.4945 -0.1309
   51MOL    H5128151   4.819   7.049   2.283 -0.9120 -0.4116  2.0619
   51MOL    H5228152   4.734   7.095   2.152  0.8060  2.0966  1.2720
   51MOL    H5328153   4.790   6.852   2.153  0.3066 -0.1555  0.2608
   51MOL    H5428154   4.678   6.803   2.270  0.2176  0.7300  1.0990
   51MOL    H5528155   4.612   7.203   2.695 -0.9491  0.2070  0.4495
   51MOL    H5628156   4.514   7.249   2.885 -0.5958 -2.0172 -0.7024
   51MOL    H5728157   4.315   7.341   3.021 -1.5260  0.1584  0.3352
   51MOL    O5828158   4.427   6.904   2.196  0.4164 -0.0399 -0.0535
   51MOL    C5928159   4.481   6.897   2.084  0.6523 -0.1853  0.3281
   51MOL    O6028160   4.613   6.869   2.079  0.3875  0.1358 -0.2891
   51MOL    C6128161   4.423   6.906   1.954  0.5577 -0.0733  0.2806
   51MOL    C6228162   4.476   6.839   1.846  0.1892  0.4192  0.2922
   51MOL    C6328163   4.415   6.836   1.720 -0.4016 -0.2150 -0.0559
   51MOL    C6428164   4.466   6.763   1.613 -0.1092  0.3016  0.2706
   51MOL    C6528165   4.407   6.780   1.485  0.0506 -0.0215  0.3202
   51MOL    C6628166   4.285   6.853   1.473  0.2851 -0.6403  0.3250
   51MOL    C6728167   4.214   6.861   1.342 -0.1807  0.8440 -0.1926
   51MOL    O6828168   4.276   6.805   1.242  0.9575 -0.7898  0.2529
   51MOL    C6928169   4.223   6.783   1.112 -0.1222 -0.5539  0.7342
   51MOL    C7028170   4.268   6.902   1.032  0.4545  0.0364 -0.0447
   51MOL    O7128171   4.102   6.914   1.325  0.1020  0.2494  0.2243
   51MOL    C7228172   4.232   6.911   1.586  0.1952  0.5853 -0.0018
   51MOL    C7328173   4.296   6.907   1.711 -0.1541  0.2630  1.1002
   51MOL    C7428174   4.248   6.987   1.815  0.1988 -0.0205 -0.3214
   51MOL    C7528175   4.302   6.980   1.943  0.1389 -0.3126  0.0749
   51MOL    H7628176   4.570   6.787   1.849  0.6112  0.9455 -2.1963
   51MOL    H7728177   4.550   6.695   1.624 -0.3652 -0.7755 -3.7029
   51MOL    H7828178   4.451   6.734   1.397  1.2266  0.9191  0.3883
   51MOL    H7928179   4.115   6.766   1.108 -0.0840 -0.6806  0.3286
   51MOL    H8028180   4.269   6.691   1.078 -2.0720 -0.9676 -0.8590
   51MOL    H8128181   4.249   6.887   0.926  2.8217 -0.7065 -0.3921
   51MOL    H8228182   4.205   6.987   1.060 -0.3582 -0.7099  0.4009
   51MOL    H8328183   4.140   6.967   1.577 -1.0802 -1.4143  0.5220
   51MOL    H8428184   4.158   7.045   1.806 -0.5509 -1.1889 -0.4147
   51MOL    H8528185   4.251   7.022   2.029 -1.4076 -0.9306 -0.5154
   51MOL    O8628186   4.467   6.750   0.921 -0.1209  0.3251 -0.8350
   51MOL    C8728187   4.493   6.863   0.964  0.0913 -0.5030 -0.0108
   51MOL    O8828188   4.408   6.934   1.038 -0.2695  0.0349 -0.1843
   51MOL    C8928189   4.628   6.923   0.958 -0.7021  0.3948 -0.3983
   51MOL    C9028190   4.734   6.842   0.927 -0.1898 -0.1761  0.5008
   51MOL    C9128191   4.861   6.892   0.905  0.2286  0.3454  0.2772
   51MOL    C9228192   4.963   6.804   0.864 -0.4040  0.0643  0.2782
   51MOL    C9328193   5.090   6.860   0.837 -0.5968 -0.2169  0.1465
   51MOL    C9428194   5.123   6.991   0.865  0.2012  0.2565  0.9275
   51MOL    C9528195   5.256   7.049   0.856  0.0995  1.0372 -0.1844
   51MOL    O9628196   5.338   6.968   0.794 -0.0509  0.2868 -0.2961
   51MOL    C9728197   5.473   7.015   0.759  0.7327  0.0268 -0.2742
   51MOL    C9828198   5.475   7.058   0.613 -0.0815  0.4953 -0.3447
   51MOL    O9928199   5.291   7.163   0.890  0.1445  0.4146 -0.6481
   51MOL   C10028200   5.016   7.075   0.901  0.5978 -0.0556  0.4197
   51MOL   C10128201   4.886   7.031   0.921  0.8676 -0.3963  0.4678
   51MOL   C10228202   4.779   7.122   0.960  0.0785  0.1991 -0.1515
   51MOL   C10328203   4.655   7.061   0.989 -0.4856 -1.2261 -0.7760
   51MOL   H10428204   4.718   6.736   0.912 -1.0533 -0.2004  1.5592
   51MOL   H10528205   4.944   6.709   0.815  3.0566 -1.4186  1.6894
   51MOL   H10628206   5.166   6.793   0.799  1.0177  1.6101  0.0498
   51MOL   H10728207   5.536   6.927   0.774 -0.0297 -0.5229 -0.2195
   51MOL   H10828208   5.514   7.091   0.825  0.9711 -1.0649  0.8604
   51MOL   H10928209   5.575   7.098   0.599  1.3916 -2.3851  1.5443
   51MOL   H11028210   5.469   6.975   0.543  1.2423 -0.4195  0.5785
   51MOL   H11128211   5.032   7.181   0.914 -1.6982  0.2211  1.1636
   51MOL   H11228212   4.797   7.228   0.972 -0.3299  0.5442 -2.3867
   51MOL   H11328213   4.573   7.126   1.016 -0.0465 -0.7897 -0.4730
   51MOL   O11428214   5.501   7.234   0.414 -0.2317 -0.3327  0.1902
   51MOL   C11528215   5.397   7.235   0.479  0.5710  0.2392  0.9913
   51MOL   O11628216   5.388   7.166   0.591  0.2115 -0.1751  0.0334
   51MOL   C11728217   5.268   7.317   0.455 -0.6865  0.2099 -0.1178
   51MOL   C11828218   5.154   7.296   0.530 -0.8959  0.3558  0.2521
   51MOL   C11928219   5.037   7.360   0.501 -0.0250  0.2742  0.2691
   51MOL   C12028220   4.920   7.321   0.567  0.6008 -0.1942 -1.0073
   51MOL   C12128221   4.800   7.388   0.537  0.5447  0.0946  0.2826
   51MOL   C12228222   4.793   7.495   0.446  0.0841  0.4427 -0.0135
   51MOL   C12328223   4.671   7.577   0.424 -0.0172 -0.8651  0.2140
   51MOL   O12428224   4.563   7.535   0.490  0.0552  0.0288 -0.0583
   51MOL   C12528225   4.440   7.596   0.476  0.3854  0.0881 -0.4539
   51MOL   C12628226   4.430   7.723   0.555 -0.0348 -0.5197  0.7032
   51MOL   O12728227   4.670   7.670   0.349  0.3262 -0.1616 -0.1609
   51MOL   C12828228   4.910   7.526   0.376  0.6635 -1.1341 -0.7097
   51MOL   C12928229   5.034   7.463   0.403  0.1670  0.1730  0.3281
   51MOL   C13028230   5.153   7.488   0.336  1.3518  0.0555 -0.0215
   51MOL   C13128231   5.265   7.410   0.352 -0.0749  0.4106  0.4914
   51MOL   H13228232   5.171   7.230   0.614  0.9961 -0.0077 -0.3999
   51MOL   H13328233   4.928   7.241   0.639  0.9391  1.6473  1.0849
   51MOL   H13428234   4.712   7.358   0.590  1.3181  0.1157  1.5998
   51MOL   H13528235   4.353   7.535   0.500 -0.1529  1.4874  1.3027
   51MOL   H13628236   4.435   7.622   0.371 -0.8514 -2.0112 -0.9414
   51MOL   H13728237   4.527   7.768   0.576 -0.1414 -0.7402  1.6790
   51MOL   H13828238   4.386   7.806   0.499 -0.1101 -0.8995  0.2016
   51MOL   H13928239   4.913   7.602   0.300  1.7213 -0.9656 -0.5033
   51MOL   H14028240   5.159   7.578   0.277  3.7527  0.9924  1.5779
   51MOL   H14128241   5.358   7.432   0.302  0.2197 -0.3915  0.6733
   51MOL   O14228242   4.410   7.919   0.748 -0.5336  0.1177  0.1355
   51MOL   C14328243   4.342   7.817   0.763  0.3166  1.2579 -0.2052
   51MOL   O14428244   4.344   7.709   0.671  0.4768  0.4446 -0.0166
   51MOL   C14528245   4.250   7.793   0.872  0.5374  0.2038 -0.4792
   51MOL   C14628246   4.183   7.672   0.895  0.2567 -0.0521  0.2128
   51MOL   C14728247   4.112   7.651   1.013  0.5437  0.2672 -0.8065
   51MOL   C14828248   4.054   7.528   1.038  0.2958 -0.4272  0.6949
   51MOL   C14928249   3.972   7.507   1.147 -0.0790 -0.4508 -0.2576
   51MOL   C15028250   3.970   7.601   1.257  0.1328 -0.3203  0.1539
   51MOL   C15128251   3.917   7.565   1.392  0.1549  0.3891 -0.2537
   51MOL   O15228252   3.894   7.433   1.407  0.1653  0.1467 -0.1177
   51MOL   C15328253   3.850   7.360   1.522 -0.1307  0.2614  0.2667
   51MOL   C15428254   3.926   7.237   1.531 -0.0217  0.0390  0.3730
   51MOL   O15528255   3.899   7.642   1.480 -0.1733  0.2299  0.1835
   51MOL   C15628256   4.028   7.732   1.236  0.0034  0.1109 -0.4709
   51MOL   C15728257   4.096   7.749   1.111 -0.5051  0.1565  0.0828
   51MOL   C15828258   4.160   7.873   1.092 -0.7725 -0.2566  0.0446
   51MOL   C15928259   4.231   7.897   0.969 -0.4404  0.9674  0.3120
   51MOL   H16028260   4.191   7.592   0.822 -0.3012  0.6114 -0.5821
   51MOL   H16128261   4.059   7.441   0.975 -2.2291 -1.1092  1.3860
   51MOL   H16228262   3.923   7.412   1.160 -1.7542  0.2618 -1.2174
   51MOL   H16328263   3.743   7.339   1.516  0.1922 -2.1375  2.2438
   51MOL   H16428264   3.868   7.424   1.608 -0.3713  1.9988 -0.9596
   51MOL   H16528265   3.891   7.161   1.462  0.1418 -1.5001  1.9388
   51MOL   H16628266   4.030   7.261   1.507 -0.0646  0.3041  0.4487
   51MOL   H16728267   4.022   7.816   1.303  0.8023 -1.5834  1.7768
   51MOL   H16828268   4.168   7.946   1.170  1.2936 -1.7399  1.2823
   51MOL   H16928269   4.278   7.994   0.962  0.5157  0.5570  0.9139
   51MOL   O17028270   4.040   7.316   1.769 -0.3555  0.1961 -0.1091
   51MOL   C17128271   3.957   7.220   1.766  0.2224 -1.3144 -0.9037
   51MOL   O17228272   3.896   7.179   1.660  1.2102  0.2845  0.4695
   51MOL   C17328273   3.923   7.138   1.883 -0.5867 -0.5423 -0.1363
   51MOL   C17428274   3.991   7.144   2.005 -0.0515 -0.1778  0.6273
   51MOL   C17528275   3.969   7.049   2.102 -0.4553 -0.0802 -0.0286
   51MOL   C17628276   4.052   7.053   2.217  0.2175 -0.1073 -0.3236
   51MOL   C17728277   4.028   6.956   2.320  0.7319  0.5609  0.0798
   51MOL   C17828278   3.922   6.868   2.316  0.1284  0.1084 -0.5165
   51MOL   C17928279   3.902   6.771   2.430 -1.0171  0.0863  0.6827
   51MOL   O18028280   3.791   6.702   2.418 -0.0376  0.0353  0.4725
   51MOL   C18128281   3.752   6.608   2.521  0.5318  0.5601 -0.5248
   51MOL   C18228282   3.711   6.667   2.653 -0.1863 -0.0122  0.2233
   51MOL   O18328283   3.973   6.760   2.529  0.1602  0.4456  0.7363
   51MOL   C18428284   3.845   6.855   2.192  0.7405 -0.4910 -1.1306
   51MOL   C18528285   3.870   6.948   2.094  0.2766 -0.1626  0.4213
   51MOL   C18628286   3.795   6.950   1.976  0.5187  0.1781  0.2106
   51MOL   C18728287   3.823   7.033   1.868 -0.3986  0.2279 -0.2736
   51MOL   H18828288   4.065   7.221   2.016  0.9922 -1.0020 -0.4909
   51MOL   H18928289   4.135   7.120   2.234 -0.7540  0.4840  2.3660
   51MOL   H19028290   4.079   6.968   2.414 -0.4574  1.4505  0.6391
   51MOL   H19128291   3.831   6.535   2.537  0.1381  0.8873  3.2403
   51MOL   H19228292   3.674   6.548   2.474  0.9596 -0.4995  0.1003
   51MOL   H19328293   3.799   6.679   2.716  0.1425 -0.5514 -0.1352
   51MOL   H19428294   3.642   6.751   2.640 -1.4663 -1.1593 -0.4755
   51MOL   H19528295   3.759   6.789   2.195  1.5326 -1.4691  1.1372
   51MOL   H19628296   3.722   6.872   1.961 -0.0782  0.7339  0.2483
   51MOL   H19728297   3.763   7.015   1.781  1.7692 -2.4495 -1.3008
   51MOL   O19828298   3.606   6.692   2.909 -0.4287 -0.0170  0.0662
   51MOL   C19928299   3.591   6.593   2.845  0.0909  0.2129  0.1086
   51MOL   O20028300   3.640   6.574   2.725  0.5780  0.7380 -0.0391
   51MOL   C20128301   3.506   6.484   2.899 -0.7500  0.0202 -0.1485
   51MOL   C20228302   3.437   6.500   3.021  0.5588 -0.0986  0.3982
   51MOL   C20328303   3.352   6.405   3.069  0.5304  0.2120 -0.2952
   51MOL   C20428304   3.275   6.422   3.186 -0.0113  0.5361 -0.2927
   51MOL   C20528305   3.187   6.326   3.233  0.0109 -0.4708 -0.0769
   51MOL   C20628306   3.157   6.213   3.146 -0.7842 -0.2695 -0.0408
   51MOL   C20728307   3.047   6.122   3.189  0.2834  0.6779 -0.0408
   51MOL   O20828308   3.038   6.009   3.123  0.1878 -0.0839 -0.3945
   51MOL   C20928309   2.930   5.922   3.149 -0.1705  0.0870 -1.1621
   51MOL   C21028310   2.876   5.831   3.030  0.9566  0.0467 -0.2215
   51MOL   O21128311   2.964   6.156   3.278 -0.2244 -0.1630  0.2734
   51MOL   C21228312   3.233   6.200   3.027  0.3807 -0.7406 -0.4717
   51MOL   C21328313   3.332   6.287   2.992  0.6525 -0.0353  0.2937
   51MOL   C21428314   3.416   6.252   2.884 -0.9820  0.5592 -0.0524
   51MOL   C21528315   3.493   6.358   2.835 -0.4363  0.3379 -0.3577
   51MOL   H21628316   3.448   6.590   3.080 -0.3936 -0.6291  1.3886
   51MOL   H21728317   3.291   6.512   3.245  0.2096  1.3305 -1.5402
   51MOL   H21828318   3.124   6.339   3.319  0.0870  0.3644 -0.1365
   51MOL   H21928319   2.846   5.983   3.184  0.2044  0.8660 -1.6041
   51MOL   H22028320   2.937   5.850   3.230 -0.3271  1.0084 -0.3230
   51MOL   H22128321   2.956   5.785   2.971  0.8601 -1.4569  0.7964
   51MOL   H22228322   2.813   5.749   3.064  1.3179 -0.3572 -0.5199
   51MOL   H22328323   3.216   6.112   2.967  0.8525  0.7257 -2.8039
   51MOL   H22428324   3.409   6.164   2.822 -0.0331 -0.6513  1.5396
   51MOL   H22528325   3.539   6.349   2.738  0.6306  2.2612 -0.0635
   51MOL   O22628326   2.967   5.977   2.828 -0.0770 -0.3142 -0.1816
   51MOL   C22728327   2.846   5.978   2.847  0.0285  0.0718 -0.7166
   51MOL   O22828328   2.792   5.914   2.951  0.5313 -0.2148 -0.3479
   51MOL   C22928329   2.752   6.066   2.779 -0.3969 -0.4479  0.3814
   51MOL   C23028330   2.612   6.066   2.807  0.5476 -0.0510  0.5232
   51MOL   C23128331   2.521   6.166   2.765  0.0413  0.4521  0.5217
   51MOL   C23228332   2.381   6.166   2.797  0.4122  0.5058  0.4805
   51MOL   C23328333   2.301   6.273   2.761 -0.6039  0.7755  0.2389
   51MOL   C23428334   2.347   6.368   2.668  0.4782  0.2231 -0.1769
   51MOL   C23528335   2.265   6.480   2.620 -0.9755 -0.8946  0.3665
   51MOL   O23628336   2.142   6.482   2.666  0.4457 -0.1134  0.0555
   51MOL   C23728337   2.063   6.597   2.674 -0.1812  0.3420  0.0650
   51MOL   C23828338   2.094   6.665   2.811 -0.6912  0.2386 -0.4555
   51MOL   O23928339   2.310   6.570   2.555 -0.4897 -0.7412 -0.0649
   51MOL   C24028340   2.483   6.365   2.625  0.2415  0.3310  0.2185
   51MOL   C24128341   2.570   6.272   2.679 -0.7245  0.2185 -0.2339
   51MOL   C24228342   2.710   6.278   2.660 -0.2021 -0.1398 -0.1236
   51MOL   C24328343   2.797   6.177   2.705 -0.0210 -0.1220  0.8476
   51MOL   H24428344   2.576   5.990   2.875 -0.9351  1.3717  1.3690
   51MOL   H24528345   2.342   6.093   2.865 -1.1253 -0.6277 -1.5565
   51MOL   H24628346   2.195   6.283   2.778 -0.6283  0.8997  0.0216
   51MOL   H24728347   1.955   6.583   2.672 -0.1438 -0.1891  1.3609
   51MOL   H24828348   2.071   6.673   2.596 -2.2474 -1.6543 -2.1880
   51MOL   H24928349   2.006   6.717   2.849 -1.6013 -1.6894  0.1079
   51MOL   H25028350   2.118   6.593   2.889 -1.8758 -0.3705 -0.6492
   51MOL   H25128351   2.523   6.449   2.570  0.2813 -0.3379 -0.7938
   51MOL   H25228352   2.772   6.352   2.611 -0.8936  2.3290  2.5540
   51MOL   H25328353   2.901   6.194   2.683 -0.6313 -1.1715 -3.1425
   51MOL   O25428354   2.128   6.902   2.950 -0.3171  0.8718  0.2255
   51MOL   C25528355   2.187   6.879   2.846 -0.2526  0.1352 -0.1768
   51MOL   O25628356   2.191   6.761   2.783 -0.0980  0.3859 -0.1482
   51MOL   C25728357   2.261   6.984   2.775 -0.1579  0.6120 -0.1000
   51MOL   C25828358   2.238   7.117   2.809 -0.0213 -0.4751  0.1465
   51MOL   C25928359   2.322   7.206   2.747  0.5187 -0.8197 -0.0178
   51MOL   C26028360   2.310   7.343   2.782 -0.0016 -0.6121  0.0935
   51MOL   C26128361   2.386   7.446   2.721  0.0754  0.4785 -0.7092
   51MOL   C26228362   2.484   7.406   2.627  0.1597  0.0579 -0.4958
   51MOL   C26328363   2.583   7.519   2.588 -0.7062 -0.3809  0.0227
   51MOL   O26428364   2.692   7.466   2.524  0.2573 -0.4953 -0.3433
   51MOL   C26528365   2.800   7.542   2.474 -0.3682  0.2561 -0.1250
   51MOL   C26628366   2.906   7.548   2.581 -0.6235 -0.2214 -0.0034
   51MOL   O26728367   2.571   7.643   2.599 -0.4824 -0.1139 -0.4417
   51MOL   C26828368   2.495   7.275   2.581 -0.7046  0.2353  0.6452
   51MOL   C26928369   2.414   7.175   2.644  0.2626 -0.5143 -0.2678
   51MOL   C27028370   2.433   7.046   2.605  1.0878  0.5242 -0.8500
   51MOL   C27128371   2.357   6.945   2.675  0.3568 -0.5044 -0.3604
   51MOL   H27228372   2.162   7.146   2.879  2.1346 -1.7509  3.1076
   51MOL   H27328373   2.241   7.370   2.861  1.8949  2.3406  0.8081
   51MOL   H27428374   2.384   7.549   2.752  0.7610  0.2686  0.0845
   51MOL   H27528375   2.782   7.648   2.456  0.8046  1.0034  2.8517
   51MOL   H27628376   2.838   7.507   2.378  2.0206 -1.7046  1.4991
   51MOL   H27728377   2.948   7.450   2.603 -0.5006 -0.3540 -0.8118
   51MOL   H27828378   3.001   7.591   2.547 -0.5144 -0.9067 -0.5635
   51MOL   H27928379   2.563   7.256   2.499 -0.3522  1.2825  0.6865
   51MOL   H28028380   2.506   7.023   2.529 -0.7641 -1.6789 -2.0305
   51MOL   H28128381   2.362   6.842   2.642  0.5643 -0.9759  1.1005
   51MOL   O28228382   2.917   7.812   2.622  0.5573  0.0294 -0.3290
   51MOL   C28328383   2.889   7.739   2.717  0.4670 -0.5473 -0.6227
   51MOL   O28428384   2.875   7.610   2.703 -0.3575 -0.5513 -0.5341
   51MOL   C28528385   2.892   7.782   2.864 -0.3003  0.0143 -0.7229
   51MOL   C28628386   2.870   7.688   2.969  0.3460  0.3439  0.1178
   51MOL   C28728387   2.875   7.733   3.103 -0.2636 -0.2933 -0.0229
   51MOL   C28828388   2.861   7.640   3.213 -0.1569  0.0530 -0.1875
   51MOL   C28928389   2.867   7.682   3.349  0.4467 -0.2098  0.4015
   51MOL   C29028390   2.880   7.821   3.380  0.7018  0.6958  1.1356
   51MOL   C29128391   2.882   7.862   3.521  0.3091  0.6533  0.0021
   51MOL   O29228392   2.944   7.982   3.531  0.9457  0.3035  0.3930
   51MOL   C29328393   2.966   8.027   3.668 -0.0588 -0.4234 -0.0265
   51MOL   C29428394   3.106   7.983   3.709  0.7695 -0.2601 -0.1439
   51MOL   O29528395   2.838   7.789   3.611  0.0730 -0.5028  0.1830
   51MOL   C29628396   2.903   7.910   3.271 -0.8527 -0.0633 -0.2072
   51MOL   C29728397   2.901   7.868   3.134  0.1273 -1.2809 -0.6185
   51MOL   C29828398   2.920   7.962   3.030 -0.7128 -0.2536 -1.2196
   51MOL   C29928399   2.917   7.916   2.893 -0.0068  0.2177 -0.4468
   51MOL   H30028400   2.840   7.586   2.953  2.6377 -0.5999  1.4944
   51MOL   H30128401   2.836   7.536   3.199  1.3348 -0.3045 -0.2141
   51MOL   H30228402   2.857   7.605   3.423 -0.5861 -0.5205 -0.0525
   51MOL   H30328403   2.891   7.998   3.742 -1.1610 -0.6494 -1.2066
   51MOL   H30428404   2.965   8.136   3.667 -2.4449 -0.4031 -0.4266
   51MOL   H30528405   3.114   7.874   3.708 -1.6507 -0.4752  0.7858
   51MOL   H30628406   3.178   8.020   3.636 -2.6731  3.0938 -2.0083
   51MOL   H30728407   2.915   8.014   3.295  1.4823 -0.1511 -0.8276
   51MOL   H30828408   2.926   8.068   3.049 -0.6666 -0.3973 -0.4225
   51MOL   H30928409   2.932   7.987   2.813 -0.9934  1.8828  0.8227
   51MOL   O31028410   2.998   7.929   3.965 -0.3882  0.0576  0.8628
   51MOL   C31128411   3.091   8.010   3.951 -0.0018 -0.4518 -0.7682
   51MOL   O31228412   3.137   8.047   3.833  0.1145  0.4412  1.0294
   51MOL   C31328413   3.149   8.070   4.067  0.3822  0.3123 -0.9100
   51MOL   C31428414   3.241   8.175   4.060  0.3322 -0.5552  0.1142
   51MOL   C31528415   3.303   8.226   4.171 -0.0198 -0.4002  0.2513
   51MOL   C31628416   3.409   0.074   4.163  0.2351  0.1920  0.6820
   51MOL   C31728417   3.471   0.120   4.277 -0.9196  0.2390 -0.1903
   51MOL   C31828418   3.435   0.065   4.408 -0.9909 -0.3740  0.0710
   51MOL   C31928419   3.493   0.123   4.538  0.0983 -0.6687  0.1905
   51MOL   O32028420   3.591   0.202   4.514  0.0869 -0.2410 -0.2545
   51MOL   C32128421   3.672   0.257   4.624 -0.2837 -0.3973 -0.1398
   51MOL   C32228422   3.638   0.397   4.673  0.2611  0.9418  1.0735
   51MOL   O32328423   3.448   0.088   4.646 -0.3982 -0.2117  0.3107
   51MOL   C32428424   3.337   8.217   4.418  0.7846  0.7006 -0.4608
   51MOL   C32528425   3.276   8.174   4.302  0.2129  0.1435  0.0708
   51MOL   C32628426   3.181   8.073   4.311  0.6158 -0.2455  0.0563
   51MOL   C32728427   3.121   8.018   4.197  0.2380  0.2736  0.8819
   51MOL   H32828428   3.270   8.220   3.966 -0.8091 -0.5705 -0.2533
   51MOL   H32928429   3.438   0.114   4.067 -3.7810 -0.5501 -0.9419
   51MOL   H33028430   3.556   0.188   4.272 -0.3421 -0.4726 -0.1653
   51MOL   H33128431   3.779   0.262   4.606  0.0834 -0.2988  1.8648
   51MOL   H33228432   3.682   0.177   4.698  0.6765  1.6860  2.0337
   51MOL   H33328433   3.737   0.442   4.684  0.6878  0.1129  0.6454
   51MOL   H33428434   3.590   0.454   4.593 -0.3201 -2.4865 -1.1156
   51MOL   H33528435   3.308   8.158   4.504  0.7919  2.6289  0.8993
   51MOL   H33628436   3.149   8.033   4.406  1.0114  0.3440  0.4429
   51MOL   H33728437   3.056   7.932   4.209  1.3578 -0.6443  0.4963
   51MOL   O33828438   3.364   0.387   4.722  0.0834 -0.5413  0.2059
   51MOL   C33928439   3.443   0.419   4.808 -0.0470  0.7116 -0.6093
   51MOL   O34028440   3.574   0.410   4.801 -0.5432  0.5236 -0.6402
   51MOL   C34128441   3.408   0.475   4.942 -0.3949 -0.2172 -1.0798
   51MOL   C34228442   3.310   0.407   5.013  0.3105  0.2595  0.1392
   51MOL   C34328443   3.274   0.450   5.137  0.5388  0.3380 -0.6425
   51MOL   C34428444   3.192   0.364   5.214  0.2459  0.2224 -0.0869
   51MOL   C34528445   3.153   0.399   5.346 -0.5918  0.0600 -0.1152
   51MOL   C34628446   3.206   0.518   5.408  0.0478  0.4996  0.5859
   51MOL   C34728447   3.168   0.553   5.549 -0.1064 -0.7824 -0.0663
   51MOL   O34828448   3.105   0.448   5.613  0.1264  0.4378 -0.4275
   51MOL   C34928449   3.030   0.476   5.733  0.0229 -0.1157  0.1427
   51MOL   C35028450   3.122   0.486   5.853 -1.2846 -0.0370 -0.3829
   51MOL   O35128451   3.175   0.669   5.599 -0.1589  0.0925 -0.2409
   51MOL   C35228452   3.283   0.604   5.335 -0.3604 -0.8233  1.0310
   51MOL   C35328453   3.329   0.567   5.203  0.4408  0.1575 -0.3641
   51MOL   C35428454   3.426   0.641   5.122 -0.6108 -0.3596  0.3924
   51MOL   C35528455   3.461   0.594   4.999 -0.1909 -0.0033  0.4999
   51MOL   H35628456   3.277   0.314   4.969  1.1701  0.5757 -1.2136
   51MOL   H35728457   3.158   0.269   5.174  1.1330  0.0670 -0.4887
   51MOL   H35828458   3.079   0.339   5.397 -2.1024  0.6284 -1.6194
   51MOL   H35928459   2.970   0.386   5.744 -0.4147 -0.4058 -3.7588
   51MOL   H36028460   2.966   0.563   5.719 -1.5272 -1.4484 -1.4123
   51MOL   H36128461   3.078   0.424   5.932 -0.7171  0.6997  0.5262
   51MOL   H36228462   3.221   0.445   5.833 -2.1476 -3.3437  1.7091
   51MOL   H36328463   3.316   0.694   5.385 -1.4418 -1.3669  2.7356
   51MOL   H36428464   3.469   0.734   5.157 -1.3845  0.3756 -0.5917
   51MOL   H36528465   3.532   0.649   4.939  0.3462 -1.5673 -0.3096
   51MOL   O36628466   3.214   0.568   6.098 -0.5952 -0.1991  0.0255
   51MOL   C36728467   3.165   0.655   6.021 -0.3353 -0.2923 -0.1758
   51MOL   O36828468   3.116   0.624   5.899 -0.1610 -0.4640  0.0058
   51MOL   C36928469   3.164   0.797   6.047  0.6670  0.1217 -0.3883
   51MOL   C37028470   3.187   0.850   6.182 -0.1648  0.3055  0.5776
   51MOL   C37128471   3.196   0.985   6.199 -0.2122 -0.3465  0.2225
   51MOL   C37228472   3.225   1.036   6.329  0.6502 -0.5829 -0.3922
   51MOL   C37328473   3.240   1.172   6.355  0.2597 -0.0064  0.4961
   51MOL   C37428474   3.221   1.265   6.243 -0.4452 -0.0385  0.4519
   51MOL   C37528475   3.246   1.404   6.265 -0.1498  0.0986 -0.5141
   51MOL   O37628476   3.236   1.483   6.156  0.8817  0.1934  0.1988
   51MOL   C37728477   3.299   1.612   6.174  0.2731  0.1575 -0.2250
   51MOL   C37828478   3.207   1.712   6.249  0.1820 -0.9510 -0.7068
   51MOL   O37928479   3.288   1.446   6.374  0.3851  0.1732  0.2881
   51MOL   C38028480   3.203   1.212   6.115  0.0364 -0.0869  0.3990
   51MOL   C38128481   3.180   1.074   6.092  0.3763 -0.5322 -0.2469
   51MOL   C38228482   3.159   1.028   5.960  0.7313 -0.1837 -0.0334
   51MOL   C38328483   3.156   0.889   5.940  0.0352 -0.2828  0.5684
   51MOL   H38428484   3.203   0.772   6.256 -0.0954 -1.1466 -0.9408
   51MOL   H38528485   3.242   0.968   6.412 -1.1604  0.5716  0.9852
   51MOL   H38628486   3.264   1.215   6.451  0.6275 -1.1392  0.9114
   51MOL   H38728487   3.317   1.641   6.071  2.4827 -0.3236 -0.0028
   51MOL   H38828488   3.399   1.607   6.216  0.9418  1.2578 -1.6265
   51MOL   H38928489   3.203   1.699   6.357 -0.3489 -2.0144 -0.8467
   51MOL   H39028490   3.236   1.816   6.237 -0.7828 -0.7950 -1.7651
   51MOL   H39128491   3.202   1.283   6.034  3.3456  0.6797  0.9720
   51MOL   H39228492   3.146   1.093   5.875 -1.5274 -2.6786 -1.6910
   51MOL   H39328493   3.143   0.861   5.836  2.0588  1.4464 -0.1834
   51MOL   O39428494   3.128   1.814   6.022  0.2571  0.6784  0.1218
   51MOL   C39528495   3.044   1.746   6.083 -0.3578 -0.1487  0.2890
   51MOL   O39628496   3.069   1.705   6.205  0.2690 -0.3589  0.0322
   51MOL   C39728497   2.917   1.699   6.026  0.1987 -0.2220 -0.0634
   51MOL   C39828498   2.806   1.661   6.103  0.3870  0.5669 -0.1610
   51MOL   C39928499   2.689   1.604   6.050  0.4079 -0.4743  1.1565
   51MOL   C40028500   2.583   1.568   6.136 -0.3971 -0.4919  0.4707
   51MOL   C40128501   2.458   1.534   6.081 -0.5359 -0.0820  0.1852
   51MOL   C40228502   2.436   1.521   5.940  0.2607  0.3481  1.1512
   51MOL   C40328503   2.304   1.476   5.885 -0.1840  0.4615  0.1589
   51MOL   O40428504   2.217   1.439   5.975  0.3572 -0.0168 -0.1487
   51MOL   C40528505   2.078   1.413   5.940 -0.4433  0.0215 -0.0009
   51MOL   C40628506   2.014   1.551   5.902 -0.0920 -0.1673 -0.1032
   51MOL   O40728507   2.275   1.470   5.763  0.4848 -0.1899  0.3808
   51MOL   C40828508   2.545   1.555   5.853 -0.0808  0.5635  0.1539
   51MOL   C40928509   2.671   1.595   5.908  0.2687  0.4354 -0.3581
   51MOL   C41028510   2.778   1.648   5.828  0.8041 -0.2758  0.2683
   51MOL   C41128511   2.901   1.696   5.881  0.6992 -0.0053  0.3759
   51MOL   H41228512   2.804   1.686   6.208 -2.3423 -0.3911  0.0731
   51MOL   H41328513   2.591   1.588   6.242 -0.2092 -2.6775  0.8811
   51MOL   H41428514   2.368   1.532   6.141  0.8622 -0.3255  2.3160
   51MOL   H41528515   2.029   1.369   6.026 -1.7090  2.6001  0.6646
   51MOL   H41628516   2.065   1.345   5.856  1.2537  1.5638 -1.5870
   51MOL   H41728517   2.045   1.600   5.810 -0.3682 -0.5149 -0.3849
   51MOL   H41828518   1.906   1.534   5.896  0.1748 -1.3243 -1.9605
   51MOL   H41928519   2.527   1.554   5.746  0.9052  0.7095 -0.0219
   51MOL   H42028520   2.777   1.625   5.722 -2.5710  1.7915 -0.2341
   51MOL   H42128521   2.990   1.724   5.826 -1.0417 -1.2436 -3.1999
   51MOL   O42228522   1.972   1.823   5.906  0.4792 -0.4071  0.1446
   51MOL   C42328523   2.033   1.770   6.003 -0.6622 -1.2932 -0.3750
   51MOL   O42428524   2.042   1.641   6.012  0.2583 -0.4435 -0.7807
   51MOL   C42528525   2.112   1.840   6.104  0.2252 -0.9213 -0.0928
   51MOL   C42628526   2.128   1.983   6.093 -0.0953  0.2847 -0.4940
   51MOL   C42728527   2.212   2.057   6.178 -0.1292 -0.2808  0.2967
   51MOL   C42828528   2.228   2.194   6.160  0.1598  0.4063 -0.2822
   51MOL   C42928529   2.304   2.266   6.257  0.2014 -0.2349 -0.0514
   51MOL   C43028530   2.360   2.204   6.373 -0.7653 -0.0172 -0.1170
   51MOL   C43128531   2.434   2.285   6.474 -0.4337 -0.7498 -0.3940
   51MOL   O43228532   2.417   2.420   6.467  0.2787  0.0810  0.4253
   51MOL   C43328533   2.448   2.501   6.578  0.5153 -0.0618 -0.2925
   51MOL   C43428534   2.600   2.534   6.598  0.0568 -0.4227  0.6869
   51MOL   O43528535   2.499   2.240   6.569  0.5892 -0.1464  0.0126
   51MOL   C43628536   2.345   2.063   6.387  0.3271  0.0218  0.0652
   51MOL   C43728537   2.281   1.989   6.286  0.0656  0.0854 -0.3248
   51MOL   C43828538   2.264   1.848   6.295  0.3481  0.2093  0.2940
   51MOL   C43928539   2.183   1.774   6.207 -0.3137 -0.5262  0.1420
   51MOL   H44028540   2.072   2.029   6.013  0.6626  0.8737 -0.6894
   51MOL   H44128541   2.192   2.235   6.067  1.3216  0.4311 -0.7237
   51MOL   H44228542   2.326   2.371   6.246  3.8742 -0.8381  1.0812
   51MOL   H44328543   2.417   2.455   6.672 -0.7891 -0.3836 -0.8624
   51MOL   H44428544   2.394   2.595   6.571  0.2202 -0.0863  1.3332
   51MOL   H44528545   2.598   2.604   6.681  1.1347  0.9790 -0.4263
   51MOL   H44628546   2.663   2.452   6.632 -0.0311 -0.3820  0.9437
   51MOL   H44728547   2.378   2.013   6.477 -1.6267 -1.0064  0.2389
   51MOL   H44828548   2.318   1.796   6.373 -0.3925  1.1792  1.4830
   51MOL   H44928549   2.173   1.667   6.218 -1.7429 -0.3002  1.3782
   51MOL   O45028550   2.557   2.788   6.514 -0.0406 -0.0690  0.0447
   51MOL   C45128551   2.632   2.710   6.449 -0.5758 -0.5607 -0.0997
   51MOL   O45228552   2.651   2.587   6.478  0.2331  0.8261  0.2080
   51MOL   C45328553   2.703   2.747   6.325 -0.6707 -0.1440 -0.4082
   51MOL   C45428554   2.662   2.861   6.246 -0.8025  0.2622 -0.0506
   51MOL   C45528555   2.727   2.889   6.123  0.1295  0.2535  0.5252
   51MOL   C45628556   2.689   2.993   6.039  0.0228  0.6125  0.1421
   51MOL   C45728557   2.760   3.025   5.923 -0.1582  0.3715  0.3804
   51MOL   C45828558   2.874   2.948   5.888  0.4121  0.1344 -0.3564
   51MOL   C45928559   2.948   2.975   5.765 -1.1498  0.2159  0.9928
   51MOL   O46028560   2.905   3.085   5.704  0.1297  0.6014 -0.0387
   51MOL   C46128561   2.957   3.128   5.580  0.2542 -0.0005  0.3243
   51MOL   C46228562   3.025   3.264   5.593  0.6040 -0.0092 -0.1556
   51MOL   O46328563   3.051   2.913   5.727  0.1221  0.6700  0.2596
   51MOL   C46428564   2.914   2.844   5.972 -0.6346 -0.2962  0.2386
   51MOL   C46528565   2.837   2.811   6.087 -0.3344  0.3261 -0.0587
   51MOL   C46628566   2.882   2.705   6.164  0.2810  0.6533  0.0131
   51MOL   C46728567   2.818   2.677   6.285 -0.8408 -0.5067  0.1126
   51MOL   H46828568   2.573   2.917   6.271 -0.3150  1.3011 -0.6018
   51MOL   H46928569   2.598   3.049   6.057 -2.3716 -2.4464 -1.8948
   51MOL   H47028570   2.723   3.109   5.867 -2.0324 -0.0718  0.9444
   51MOL   H47128571   2.874   3.128   5.510  2.7451  0.7962 -2.7464
   51MOL   H47228572   3.021   3.054   5.532  1.0805  1.0519 -0.2009
   51MOL   H47328573   2.953   3.346   5.590 -0.5500 -1.0257 -0.1844
   51MOL   H47428574   3.079   3.262   5.687  1.2498 -1.5110 -0.5493
   51MOL   H47528575   3.007   2.792   5.954  0.8148  2.0068  0.8928
   51MOL   H47628576   2.958   2.641   6.121 -2.0044 -2.6003  0.6007
   51MOL   H47728577   2.864   2.603   6.348 -0.5403 -1.6088 -1.3853
   51MOL   O47828578   3.087   3.461   5.419 -0.0027  0.5689  0.1025
   51MOL   C47928579   3.136   3.349   5.400  0.3124 -0.2664 -0.5503
   51MOL   O48028580   3.123   3.254   5.486  0.3050  0.5627  0.1926
   51MOL   C48128581   3.215   3.300   5.272  0.6698 -0.3006 -0.4798
   51MOL   C48228582   3.282   3.180   5.272  0.2001  0.1861  0.3104
   51MOL   C48328583   3.360   3.136   5.164 -0.1580  0.2381 -0.1737
   51MOL   C48428584   3.446   3.023   5.176  0.2405  0.8380 -0.4351
   51MOL   C48528585   3.524   2.988   5.064 -0.2188  0.0414 -0.5377
   51MOL   C48628586   3.511   3.056   4.938  0.0733 -0.1199 -0.7980
   51MOL   C48728587   3.580   3.003   4.819  0.4269  0.1141 -0.0001
   51MOL   O48828588   3.685   2.927   4.861  0.0899  0.2504 -0.5186
   51MOL   C48928589   3.749   2.840   4.774  0.0781  0.2530  0.0613
   51MOL   C49028590   3.679   2.698   4.763 -0.5221  0.9552 -0.4539
   51MOL   O49128591   3.553   3.028   4.701  0.5088  0.1753 -0.4532
   51MOL   C49228592   3.417   3.162   4.932  0.5313  0.2908  0.0847
   51MOL   C49328593   3.349   3.208   5.041  0.5147 -0.2588  0.3304
   51MOL   C49428594   3.275   3.324   5.043 -0.1010 -0.2449  0.1220
   51MOL   C49528595   3.211   3.378   5.154  0.2432 -0.0788 -0.6072
   51MOL   H49628596   3.272   3.123   5.364 -1.7274  2.5874  1.6492
   51MOL   H49728597   3.454   2.963   5.265  1.4313 -0.6853 -1.5343
   51MOL   H49828598   3.584   2.899   5.074 -0.7110 -0.1677  0.6732
   51MOL   H49928599   3.850   2.835   4.815  0.0301 -0.8443  0.0634
   51MOL   H50028600   3.751   2.889   4.677 -0.2774 -1.2193 -0.7094
   51MOL   H50128601   3.572   2.714   4.759 -0.7355 -0.3974 -0.4762
   51MOL   H50228602   3.701   2.648   4.669  1.8665  0.9606  0.0527
   51MOL   H50328603   3.416   3.209   4.835  0.6290  0.0282 -0.0456
   51MOL   H50428604   3.269   3.376   4.949  1.2660 -1.0239 -0.4184
   51MOL   H50528605   3.167   3.477   5.157 -0.4193 -0.3952  1.9756
   51MOL   O50628606   3.541   2.647   4.997  0.9320  0.1239 -0.0583
   51MOL   C50728607   3.652   2.603   4.984  1.3373 -0.1614  0.5328
   51MOL   O50828608   3.719   2.608   4.866 -0.1284 -0.3085  0.0614
   51MOL   C50928609   3.728   2.532   5.090  0.1063 -0.7501 -0.4820
   51MOL   C51028610   3.849   2.461   5.068 -0.1125 -0.1618  0.5093
   51MOL   C51128611   3.910   2.382   5.171  0.4759 -1.3401  0.7027
   51MOL   C51228612   4.017   2.298   5.140  0.7132  0.6476  0.3634
   51MOL   C51328613   4.082   2.220   5.237 -0.0282  0.2264 -0.1143
   51MOL   C51428614   4.047   2.238   5.372 -0.1983 -0.2336  0.6028
   51MOL   C51528615   4.130   2.174   5.475  0.9929  0.0971  0.7364
   51MOL   O51628616   4.228   2.091   5.422  0.8597  0.0393 -0.0828
   51MOL   C51728617   4.310   2.018   5.509 -0.4047  0.2434 -0.0184
   51MOL   C51828618   4.266   1.874   5.502 -0.3437 -0.5741  0.3361
   51MOL   O51928619   4.103   2.195   5.593 -0.0862  0.1190  0.1333
   51MOL   C52028620   3.933   2.315   5.400  0.1498  0.4614  0.4385
   51MOL   C52128621   3.861   2.393   5.307 -0.4697  0.9366 -0.0422
   51MOL   C52228622   3.753   2.481   5.336  0.1952  0.2783  0.1044
   51MOL   C52328623   3.686   2.542   5.227  0.8736  1.0751 -0.7089
   51MOL   H52428624   3.905   2.464   4.976  2.9234  2.2457  2.3478
   51MOL   H52528625   4.037   2.283   5.035 -0.8823 -0.8428  0.2544
   51MOL   H52628626   4.164   2.159   5.204 -0.5761 -0.4180 -0.3057
   51MOL   H52728627   4.322   2.054   5.611  0.0112  0.0576 -0.0014
   51MOL   H52828628   4.407   2.028   5.461 -0.8319  0.8708 -0.7685
   51MOL   H52928629   4.183   1.882   5.573 -0.1265  1.3950  0.4026
   51MOL   H53028630   4.221   1.841   5.408 -1.2033 -0.3639  0.6699
   51MOL   H53128631   3.916   2.331   5.505  1.0280  1.0725  0.4925
   51MOL   H53228632   3.719   2.501   5.437 -1.0682  0.8629 -0.4248
   51MOL   H53328633   3.591   2.591   5.245  0.7855  0.8350 -0.5073
   51MOL   O53428634   4.498   1.808   5.381  0.3617  0.2534 -0.3761
   51MOL   C53528635   4.464   1.754   5.492  0.4190 -0.9632  0.5754
   51MOL   O53628636   4.353   1.779   5.561  0.2343  0.4177 -0.0432
   51MOL   C53728637   4.537   1.638   5.554 -0.3621 -0.0938  0.1917
   51MOL   C53828638   4.664   1.611   5.512 -0.2322  0.2132 -0.1839
   51MOL   C53928639   4.732   1.503   5.575 -0.0675 -0.4760  0.3551
   51MOL   C54028640   4.858   1.457   5.529 -0.3364  0.5071 -0.7697
   51MOL   C54128641   4.914   1.337   5.578  0.1540 -0.8117  0.4248
   51MOL   C54228642   4.840   1.264   5.680 -0.5421 -0.0963  0.0765
   51MOL   C54328643   4.902   1.140   5.733 -0.1168 -0.5789  0.0874
   51MOL   O54428644   4.823   1.055   5.796 -0.7827 -0.6333 -0.2115
   51MOL   C54528645   4.883   0.928   5.828 -0.7753  0.3129  0.4080
   51MOL   C54628646   4.797   0.837   5.913 -0.1467  1.1718 -0.5402
   51MOL   O54728647   5.023   1.121   5.711 -0.7084  0.1379 -0.3908
   51MOL   C54828648   4.720   1.312   5.735  0.0560  0.0079  0.6952
   51MOL   C54928649   4.665   1.425   5.674 -0.5641  0.4242 -0.3974
   51MOL   C55028650   4.535   1.457   5.715 -0.3037 -0.9625  0.3276
   51MOL   C55128651   4.474   1.566   5.660 -0.2211  0.3010  0.0984
   51MOL   H55228652   4.702   1.669   5.429  1.7681  0.0716  0.6188
   51MOL   H55328653   4.906   1.523   5.458  0.0817  0.2871 -0.6946
   51MOL   H55428654   5.006   1.298   5.539  1.4581  1.3930  1.2242
   51MOL   H55528655   4.982   0.931   5.874  0.5221 -3.5266 -1.9612
   51MOL   H55628656   4.885   0.882   5.730 -2.6410 -0.2166  0.5872
   51MOL   H55728657   4.702   0.810   5.867 -0.2779  1.7804 -0.6284
   51MOL   H55828658   4.783   0.885   6.010  2.1516  1.3613 -0.2575
   51MOL   H55928659   4.668   1.259   5.813 -2.6036  1.6071  0.0905
   51MOL   H56028660   4.481   1.398   5.788 -4.0310  1.4058 -0.3722
   51MOL   H56128661   4.371   1.591   5.682 -0.1089  2.9413 -2.0244
   51MOL   H56228662   4.840   0.740   5.935  0.5267  1.3213 -1.1714
   52MOL     O128663   2.689   4.660   3.901 -0.0240  0.4965  0.1924
   52MOL     C228664   2.569   4.657   3.939 -0.0057  0.3166 -0.3232
   52MOL     O328665   2.515   4.769   3.973 -0.3037 -0.3424 -0.0053
   52MOL     C428666   2.488   4.531   3.966  0.1224 -0.1406  0.3751
   52MOL     C528667   2.351   4.542   4.007 -0.5610  0.3309 -0.1555
   52MOL     C628668   2.281   4.428   4.032  0.0256  0.2653 -0.8881
   52MOL     C728669   2.145   4.432   4.072  0.3503  0.0197  0.3599
   52MOL     C828670   2.072   4.313   4.087  0.1232  0.0080  0.2032
   52MOL     C928671   2.133   4.188   4.069 -0.2006 -0.1637  0.2312
   52MOL    C1028672   2.053   4.065   4.075  0.2191  0.0401  0.0694
   52MOL    O1128673   1.953   4.080   4.163 -0.0721  0.3942 -0.3148
   52MOL    C1228674   1.852   3.980   4.168 -0.3223 -0.1890 -0.0607
   52MOL    C1328675   1.899   3.857   4.247 -0.2617  0.0155 -0.0341
   52MOL    O1428676   2.062   3.969   3.992  0.0822 -1.0187 -0.1397
   52MOL    C1528677   2.270   4.182   4.032 -0.0553  0.2786 -0.0115
   52MOL    C1628678   2.343   4.304   4.019  0.5101  0.6846  0.4314
   52MOL    C1728679   2.480   4.298   3.982 -0.2934  0.1423 -0.4714
   52MOL    C1828680   2.553   4.413   3.954  0.6843  0.7076  0.4853
   52MOL    H1928681   2.308   4.640   4.021 -0.0899  0.2123  2.2239
   52MOL    H2028682   2.101   4.531   4.078 -1.8219 -0.6800 -2.8704
   52MOL    H2128683   1.965   4.320   4.100  0.0152 -0.4982 -0.3843
   52MOL    H2228684   1.765   4.028   4.212  1.0766  0.9338  1.5486
   52MOL    H2328685   1.814   3.957   4.068 -1.5387 -3.1004  1.0134
   52MOL    H2428686   1.851   3.768   4.207  0.0368 -1.5742  3.0638
   52MOL    H2528687   2.006   3.839   4.248 -0.0047  1.2915 -1.7182
   52MOL    H2628688   2.316   4.085   4.022 -0.8739  0.0272 -1.5860
   52MOL    H2728689   2.533   4.208   3.954  1.4380  0.4293  1.7566
   52MOL    H2828690   2.659   4.398   3.944  0.7160  1.4966 -0.3918
   52MOL    H2928691   2.569   4.847   3.977 -0.6693  0.0166 -1.8680
   52MOL    O3028692   1.758   3.676   4.415 -0.0217 -0.0973 -0.3336
   52MOL    C3128693   1.794   3.783   4.456 -0.1242 -0.3413  0.4143
   52MOL    O3228694   1.861   3.872   4.386 -0.5457  0.4369 -1.1171
   52MOL    C3328695   1.771   3.827   4.594 -0.2087 -0.1594 -0.6059
   52MOL    C3428696   1.838   3.933   4.653 -0.4922 -0.1628  0.9400
   52MOL    C3528697   1.801   3.976   4.780 -0.3468  0.9355 -0.3528
   52MOL    C3628698   1.866   4.085   4.833 -0.3464 -0.5037 -0.2333
   52MOL    C3728699   1.843   4.128   4.959  0.6684  0.1087 -0.4692
   52MOL    C3828700   1.743   4.067   5.040 -0.1165  0.1704  0.0791
   52MOL    C3928701   1.699   4.104   5.179 -0.3594  0.0728 -0.8222
   52MOL    O4028702   1.793   4.185   5.233 -0.2534 -0.0270 -0.2624
   52MOL    C4128703   1.771   4.242   5.365 -1.1439  0.1428  0.2468
   52MOL    C4228704   1.788   4.127   5.465  0.3658  0.3207  0.0983
   52MOL    O4328705   1.595   4.068   5.226 -0.4714 -0.4612  0.6418
   52MOL    C4428706   1.670   3.953   4.988  0.1740  0.7891  0.0485
   52MOL    C4528707   1.706   3.905   4.858  0.5174  0.0560 -0.1184
   52MOL    C4628708   1.637   3.799   4.796 -0.6568  0.0456 -0.7997
   52MOL    C4728709   1.673   3.754   4.668  0.6226  0.2607 -0.4260
   52MOL    H4828710   1.912   3.997   4.606 -0.3536  0.8841  2.5435
   52MOL    H4928711   1.934   4.149   4.779  0.5651 -0.0665  1.3973
   52MOL    H5028712   1.901   4.217   4.978  0.8979  0.0239 -0.7710
   52MOL    H5128713   1.682   4.304   5.363 -0.2272  1.4826  0.0008
   52MOL    H5228714   1.850   4.316   5.380 -0.4062 -0.6270  0.2430
   52MOL    H5328715   1.696   4.070   5.471 -0.0279  0.8458 -0.7908
   52MOL    H5428716   1.851   4.044   5.434 -0.4951 -0.1775 -0.3128
   52MOL    H5528717   1.588   3.902   5.036 -1.1635  0.4686 -2.4984
   52MOL    H5628718   1.560   3.741   4.843  0.2927 -0.3476  0.3097
   52MOL    H5728719   1.622   3.669   4.626 -0.5318  1.0232 -0.5924
   52MOL    O5828720   2.040   4.216   5.558 -0.3600  0.3368 -0.1162
   52MOL    C5928721   1.948   4.194   5.639 -0.2800 -0.2995 -0.1670
   52MOL    O6028722   1.822   4.159   5.597 -0.0354  0.3758  0.3353
   52MOL    C6128723   1.965   4.195   5.783 -0.5017  0.0352 -0.4174
   52MOL    C6228724   1.855   4.198   5.872 -0.1885 -1.0283  0.4153
   52MOL    C6328725   1.874   4.211   6.010 -0.5343 -0.7344  0.1604
   52MOL    C6428726   1.770   4.228   6.103  0.2362 -0.1821  0.0274
   52MOL    C6528727   1.802   4.241   6.242  0.5372 -0.0762 -0.0737
   52MOL    C6628728   1.929   4.251   6.288 -0.1342 -0.3714  0.2657
   52MOL    C6728729   1.968   4.295   6.428  0.4445  0.1028  0.2516
   52MOL    O6828730   1.861   4.302   6.508  0.4320 -0.2875  0.3896
   52MOL    C6928731   1.878   4.332   6.646 -0.9144  0.4898 -0.0336
   52MOL    C7028732   1.894   4.191   6.712 -0.5092  0.2036  0.0540
   52MOL    O7128733   2.084   4.305   6.467  0.1108 -0.8000 -0.0733
   52MOL    C7228734   2.029   4.234   6.200 -0.2069  0.7346 -0.5003
   52MOL    C7328735   2.006   4.212   6.063 -0.6644  0.3776 -0.3621
   52MOL    C7428736   2.115   4.199   5.979 -0.6128  0.6191  0.2069
   52MOL    C7528737   2.094   4.199   5.838 -0.7871 -0.3489 -0.6118
   52MOL    H7628738   1.754   4.198   5.832 -0.1732  0.4219  0.3557
   52MOL    H7728739   1.665   4.232   6.076  0.4550  1.1615 -0.6476
   52MOL    H7828740   1.723   4.236   6.316 -0.1898  0.4573 -0.8144
   52MOL    H7928741   1.790   4.381   6.686 -0.4809  1.3290 -0.0911
   52MOL    H8028742   1.965   4.398   6.655  0.6116 -1.6503  1.4459
   52MOL    H8128743   1.900   4.207   6.820  3.1824 -0.8979  0.1024
   52MOL    H8228744   1.804   4.137   6.681 -0.1009 -0.2409 -0.3694
   52MOL    H8328745   2.127   4.265   6.234  0.7387  0.0479 -2.5152
   52MOL    H8428746   2.216   4.195   6.017 -0.5595 -2.1280 -0.0823
   52MOL    H8528747   2.187   4.206   5.784 -0.9941  2.9797 -0.5948
   52MOL    O8628748   1.932   3.949   6.823  0.1002  0.4290 -0.5170
   52MOL    C8728749   2.007   3.987   6.735 -0.3035 -0.1014  0.4357
   52MOL    O8828750   2.007   4.108   6.677  0.3828 -0.2244 -0.0400
   52MOL    C8928751   2.133   3.907   6.688 -0.1641  0.2018  0.0004
   52MOL    C9028752   2.252   3.962   6.642 -0.0769  0.5757 -0.0962
   52MOL    C9128753   2.370   3.885   6.622  0.9394 -0.5119 -0.8151
   52MOL    C9228754   2.487   3.946   6.578  0.5416 -0.1491 -0.0344
   52MOL    C9328755   2.602   3.876   6.551 -0.7024 -0.8891  0.3787
   52MOL    C9428756   2.609   3.738   6.581 -0.3839  0.6140 -0.7504
   52MOL    C9528757   2.736   3.666   6.574  0.3681 -1.0211  0.6815
   52MOL    O9628758   2.719   3.533   6.577  0.4120 -0.1697 -0.3646
   52MOL    C9728759   2.829   3.450   6.597  0.4102  1.2353 -0.2262
   52MOL    C9828760   2.842   3.420   6.750  0.0160  0.2353 -0.2424
   52MOL    O9928761   2.838   3.730   6.555 -0.0398 -0.0335 -0.0408
   52MOL   C10028762   2.488   3.673   6.622 -0.2219  0.7576  0.5192
   52MOL   C10128763   2.367   3.744   6.635  0.2044  0.1780 -0.4010
   52MOL   C10228764   2.247   3.684   6.670 -0.1005 -0.8696  0.0480
   52MOL   C10328765   2.132   3.762   6.694  0.5438 -0.0357  0.3173
   52MOL   H10428766   2.258   4.069   6.627  0.0860  0.3479 -1.7827
   52MOL   H10528767   2.500   4.053   6.579 -1.1204  0.0970 -1.9075
   52MOL   H10628768   2.696   3.922   6.525 -0.8967 -1.2250 -0.9738
   52MOL   H10728769   2.925   3.500   6.581  1.0761  0.1481  0.3027
   52MOL   H10828770   2.828   3.366   6.528  1.8916  1.7211 -0.8559
   52MOL   H10928771   2.907   3.334   6.765 -0.5572 -0.1744 -0.0993
   52MOL   H11028772   2.878   3.509   6.801 -1.4962  0.2045  0.9123
   52MOL   H11128773   2.478   3.569   6.650  1.0856  0.7463  0.9660
   52MOL   H11228774   2.229   3.578   6.680 -4.1442 -0.2603  0.3463
   52MOL   H11328775   2.050   3.702   6.732  0.7902 -1.3584 -1.1893
   52MOL   O11428776   2.642   3.228   6.678 -0.2147 -0.1223  0.3203
   52MOL   C11528777   2.623   3.313   6.763 -0.1229  0.2472  0.8116
   52MOL   O11628778   2.718   3.395   6.811  0.0893  0.3792  0.3953
   52MOL   C11728779   2.494   3.335   6.837 -0.4901  0.8171  0.2733
   52MOL   C11828780   2.385   3.253   6.802 -0.2234  0.8381  0.1361
   52MOL   C11928781   2.259   3.290   6.857 -0.4081  0.3385  0.5730
   52MOL   C12028782   2.147   3.212   6.825  0.3182  0.3396 -0.2983
   52MOL   C12128783   2.020   3.243   6.886  0.4470 -0.5108  0.3420
   52MOL   C12228784   2.008   3.361   6.969  0.1433 -0.0132  0.4313
   52MOL   C12328785   1.877   3.396   7.036  1.1822  0.0344 -0.2928
   52MOL   O12428786   1.877   3.488   7.133 -0.1583  0.0737 -0.3609
   52MOL   C12528787   1.761   3.563   7.157  0.2942 -0.5812  0.6768
   52MOL   C12628788   1.756   3.682   7.058 -0.2066 -0.5326  0.0703
   52MOL   O12728789   1.769   3.343   6.997 -0.7984  0.0938  0.3891
   52MOL   C12828790   2.124   3.438   6.993  0.1117 -0.1785 -0.2181
   52MOL   C12928791   2.246   3.398   6.946 -0.9537 -0.8381  0.2266
   52MOL   C13028792   2.359   3.475   6.986 -0.0171  1.0083 -0.0158
   52MOL   C13128793   2.483   3.442   6.931 -0.5949 -0.8228 -0.3743
   52MOL   H13228794   2.382   3.170   6.733  0.3639  1.0839 -0.1902
   52MOL   H13328795   2.147   3.124   6.762  0.1283  0.6863 -0.7863
   52MOL   H13428796   1.930   3.184   6.872 -0.2671  1.5292 -5.1438
   52MOL   H13528797   1.757   3.580   7.265 -0.0892 -2.9465  1.0632
   52MOL   H13628798   1.668   3.508   7.142  2.0607 -3.3165 -0.6965
   52MOL   H13728799   1.753   3.644   6.956 -0.3574 -0.0746 -0.0972
   52MOL   H13828800   1.671   3.744   7.087  0.4797 -0.5297  2.1520
   52MOL   H13928801   2.118   3.514   7.069 -0.6371  1.2230 -1.6505
   52MOL   H14028802   2.342   3.555   7.056 -1.4778  0.5724  0.1413
   52MOL   H14128803   2.570   3.495   6.968 -0.5430 -0.4311 -1.0572
   52MOL   O14228804   1.813   3.883   7.254  0.1854 -0.0632  0.1822
   52MOL   C14328805   1.896   3.845   7.167 -0.3832  1.0336 -1.0459
   52MOL   O14428806   1.882   3.742   7.075 -0.2294  0.0804  0.1782
   52MOL   C14528807   2.033   3.898   7.166  0.0051  0.3551  0.9218
   52MOL   C14628808   2.132   3.848   7.080 -0.9253 -0.0235 -0.2624
   52MOL   C14728809   2.255   3.921   7.064 -0.2160 -0.4734 -0.0643
   52MOL   C14828810   2.356   3.876   6.978  0.1309  0.3037  0.1106
   52MOL   C14928811   2.474   3.942   6.969 -0.5256 -0.5486 -0.0579
   52MOL   C15028812   2.504   4.063   7.037 -0.0784 -0.3683  0.0347
   52MOL   C15128813   2.633   4.129   7.005 -0.1647  0.5280  0.8479
   52MOL   O15228814   2.638   4.248   7.067  0.1872  0.3380 -0.0561
   52MOL   C15328815   2.737   4.340   7.025  0.2518 -0.6544  0.3337
   52MOL   C15428816   2.744   4.464   7.112 -0.0426 -0.2082  0.4303
   52MOL   O15528817   2.727   4.087   6.933 -0.2040  0.4597 -0.2023
   52MOL   C15628818   2.400   4.117   7.122  0.0784 -0.8777 -0.5050
   52MOL   C15728819   2.279   4.042   7.140  0.3313  0.1541 -0.4600
   52MOL   C15828820   2.180   4.088   7.231  0.7480 -0.0252 -0.3695
   52MOL   C15928821   2.061   4.012   7.248  0.1450 -0.3605 -0.5057
   52MOL   H16028822   2.125   3.760   7.019 -0.6669 -0.6399  0.5962
   52MOL   H16128823   2.333   3.795   6.910  0.9099  1.0092 -1.0173
   52MOL   H16228824   2.545   3.885   6.910  0.2018  0.5339 -0.2289
   52MOL   H16328825   2.724   4.375   6.923  0.7838 -0.6259  0.2730
   52MOL   H16428826   2.837   4.297   7.019 -0.0904 -1.1436 -2.1340
   52MOL   H16528827   2.759   4.419   7.210 -3.1802  1.3710  1.7095
   52MOL   H16628828   2.820   4.537   7.085  0.9653 -1.3610  0.1085
   52MOL   H16728829   2.408   4.209   7.177  2.6795 -0.6002 -1.2846
   52MOL   H16828830   2.196   4.187   7.271 -2.7096  1.1975 -1.7963
   52MOL   H16928831   1.988   4.054   7.316  1.1945 -2.1568  1.7866
   52MOL   O17028832   2.666   4.700   7.012 -0.7346 -0.0405  0.7728
   52MOL   C17128833   2.580   4.629   7.061  0.2578 -0.7080  0.1469
   52MOL   O17228834   2.610   4.509   7.112 -1.1389 -0.2164 -0.9954
   52MOL   C17328835   2.436   4.655   7.056 -0.3607 -0.3695 -0.2291
   52MOL   C17428836   2.341   4.556   7.025 -0.4686 -0.1564  0.1655
   52MOL   C17528837   2.207   4.589   7.016  0.0735 -0.2213  0.0127
   52MOL   C17628838   2.117   4.487   6.990  0.5010  0.3842 -0.4923
   52MOL   C17728839   1.985   4.514   6.971  0.1531  0.1677 -0.4387
   52MOL   C17828840   1.937   4.651   6.967 -0.5508 -0.7315 -0.3670
   52MOL   C17928841   1.791   4.681   6.949  0.4169 -0.4314 -0.0267
   52MOL   O18028842   1.721   4.585   6.905 -0.1318 -0.3777 -0.4229
   52MOL   C18128843   1.587   4.588   6.895 -0.4499 -0.2808 -0.4917
   52MOL   C18228844   1.544   4.456   6.962 -0.2048  0.1739 -0.1907
   52MOL   O18328845   1.741   4.790   6.981 -0.5810  0.6271  0.2193
   52MOL   C18428846   2.028   4.758   6.991 -0.5713  0.6433  0.1429
   52MOL   C18528847   2.161   4.724   7.020  0.0288 -0.3194 -0.4398
   52MOL   C18628848   2.253   4.824   7.054 -0.1846  0.0890  0.0046
   52MOL   C18728849   2.387   4.785   7.072  0.0768  0.4137 -0.8222
   52MOL   H18828850   2.372   4.453   7.010 -0.1413 -0.1487  0.7857
   52MOL   H18928851   2.165   4.390   6.990  1.3926  0.8077  0.8381
   52MOL   H19028852   1.920   4.429   6.958  0.2391  0.0469 -0.0696
   52MOL   H19128853   1.554   4.591   6.791  0.6109 -1.4544 -0.8603
   52MOL   H19228854   1.540   4.670   6.950  2.1827 -0.3580  1.9651
   52MOL   H19328855   1.623   4.432   7.032 -2.1818  0.4957  2.2222
   52MOL   H19428856   1.460   4.459   7.032 -0.5167 -1.4812 -0.4708
   52MOL   H19528857   2.001   4.861   7.012 -1.4492  0.6229 -0.8563
   52MOL   H19628858   2.219   4.926   7.065 -1.5737 -0.5762  2.3941
   52MOL   H19728859   2.457   4.866   7.088  1.2268 -0.5862 -0.7364
   52MOL   O19828860   1.302   4.415   6.840  0.6678  0.3757 -0.0890
   52MOL   C19928861   1.403   4.351   6.801  0.2147 -0.5926 -0.5441
   52MOL   O20028862   1.530   4.359   6.858 -0.5280  0.2552  0.2151
   52MOL   C20128863   1.401   4.261   6.681  0.2977 -0.1853  1.0838
   52MOL   C20228864   1.501   4.166   6.659 -0.1016  0.1185 -0.6037
   52MOL   C20328865   1.516   4.095   6.535 -0.4516 -0.3668  0.5927
   52MOL   C20428866   1.623   4.007   6.505  1.0889  0.1664 -0.5090
   52MOL   C20528867   1.644   3.952   6.376  0.1613 -0.0736  0.1307
   52MOL   C20628868   1.540   3.976   6.277  0.2803 -0.2693  0.0175
   52MOL   C20728869   1.558   3.927   6.137 -0.3540 -0.6372 -0.4065
   52MOL   O20828870   1.663   3.839   6.125 -0.5485 -0.2681 -0.0026
   52MOL   C20928871   1.725   3.809   6.004  0.2639  0.1317  0.7465
   52MOL   C21028872   1.882   3.814   6.029  0.1600 -0.0094 -0.1817
   52MOL   O21128873   1.493   3.965   6.044 -0.5716  0.1816 -0.7386
   52MOL   C21228874   1.427   4.058   6.307 -0.3504 -0.5835 -0.8029
   52MOL   C21328875   1.416   4.124   6.434 -0.2042 -0.1170 -0.0371
   52MOL   C21428876   1.314   4.218   6.451 -0.9740  0.4345  0.5951
   52MOL   C21528877   1.310   4.278   6.581  0.5132  0.7415  0.4005
   52MOL   H21628878   1.574   4.148   6.737 -3.3267 -2.8560  1.8892
   52MOL   H21728879   1.703   3.987   6.574  1.7991  0.5334 -1.2165
   52MOL   H21828880   1.736   3.899   6.357 -0.0557 -0.2046 -0.5764
   52MOL   H21928881   1.689   3.879   5.928  1.6660  1.5867  1.4056
   52MOL   H22028882   1.693   3.715   5.959 -2.9846  1.7091 -0.3761
   52MOL   H22128883   1.936   3.818   5.934  0.2616  0.1714 -0.1181
   52MOL   H22228884   1.905   3.911   6.074 -1.0765  1.1657 -1.9778
   52MOL   H22328885   1.354   4.086   6.234 -0.3261 -0.8395 -0.9250
   52MOL   H22428886   1.237   4.225   6.375 -0.6834 -0.2670  0.2270
   52MOL   H22528887   1.235   4.354   6.595  0.2953  0.4984  0.5479
   52MOL   O22628888   1.956   3.562   5.934 -0.1222 -0.0575  0.1987
   52MOL   C22728889   1.936   3.581   6.053  0.5206  0.5745  0.1687
   52MOL   O22828890   1.920   3.703   6.110 -0.2530 -0.3043  0.0927
   52MOL   C22928891   1.937   3.472   6.152  0.0757 -0.2070 -0.3794
   52MOL   C23028892   1.892   3.491   6.287 -0.5058  0.1053  0.4295
   52MOL   C23128893   1.887   3.386   6.382 -0.9147 -0.1152  0.0449
   52MOL   C23228894   1.825   3.405   6.508 -0.7002  0.5906 -0.4182
   52MOL   C23328895   1.813   3.305   6.601  0.1409  0.0134  0.8980
   52MOL   C23428896   1.863   3.174   6.573  0.0455 -0.7389 -0.4855
   52MOL   C23528897   1.849   3.059   6.655  0.0042  0.4591 -0.0827
   52MOL   O23628898   1.738   3.062   6.727  0.1544  0.1821  0.0597
   52MOL   C23728899   1.695   2.963   6.818 -0.2824  0.4505  0.1090
   52MOL   C23828900   1.579   3.027   6.899  0.2067 -0.1772  0.1457
   52MOL   O23928901   1.929   2.965   6.663  0.3642  0.4100  1.0565
   52MOL   C24028902   1.934   3.151   6.449 -0.0330 -0.1633  0.9855
   52MOL   C24128903   1.937   3.259   6.357  0.5816  0.1259  0.0257
   52MOL   C24228904   1.999   3.244   6.231  0.4212 -0.9506 -0.5545
   52MOL   C24328905   1.988   3.343   6.129  0.1296  0.6296 -0.3318
   52MOL   H24428906   1.858   3.590   6.313  2.1487  1.2573 -0.3189
   52MOL   H24528907   1.783   3.503   6.525 -1.2823  0.1118  0.9079
   52MOL   H24628908   1.758   3.323   6.692  1.3035 -2.8193  2.2461
   52MOL   H24728909   1.769   2.943   6.896 -0.1728  1.3821  0.2572
   52MOL   H24828910   1.645   2.876   6.776 -0.7044  1.2844 -1.1546
   52MOL   H24928911   1.606   3.028   7.004  0.5345 -0.3479  0.0629
   52MOL   H25028912   1.566   3.128   6.860 -0.7584  0.2338  1.4958
   52MOL   H25128913   1.980   3.057   6.421 -0.3610  0.2844 -1.1612
   52MOL   H25228914   2.025   3.141   6.216  0.0817 -1.1448  0.1905
   52MOL   H25328915   2.018   3.313   6.029  2.1929  0.3308  0.3578
   52MOL   O25428916   1.415   3.062   6.691  0.3508  0.1308 -0.4626
   52MOL   C25528917   1.391   2.965   6.766  0.1109 -0.4801  0.8678
   52MOL   O25628918   1.457   2.952   6.880 -0.5334  0.0783  0.1786
   52MOL   C25728919   1.280   2.865   6.752 -1.0743  0.0919 -0.0925
   52MOL   C25828920   1.203   2.851   6.637  0.0852  0.7367  0.9332
   52MOL   C25928921   1.081   2.774   6.634  0.2741  0.1905 -1.3604
   52MOL   C26028922   0.995   2.763   6.524 -0.0407 -0.6876  0.3652
   52MOL   C26128923   0.875   2.680   6.529  0.3509 -0.6048 -0.2623
   52MOL   C26228924   0.855   2.599   6.644  0.3536  0.0323  0.3020
   52MOL   C26328925   0.742   2.504   6.650 -0.3789 -0.3741  0.7602
   52MOL   O26428926   0.741   2.441   6.772  0.3624 -0.9408  0.0522
   52MOL   C26528927   0.666   2.322   6.791  0.3121  0.0300  0.2266
   52MOL   C26628928   0.758   2.207   6.759 -0.0135 -0.0402  0.3515
   52MOL   O26728929   0.677   2.462   6.554  0.4908  0.7301  0.4145
   52MOL   C26828930   0.933   2.624   6.757 -0.0601 -0.1469 -0.1351
   52MOL   C26928931   1.049   2.702   6.751  0.3958  0.5548  0.4606
   52MOL   C27028932   1.120   2.724   6.873  0.2270  0.5184 -0.1823
   52MOL   C27128933   1.244   2.790   6.862 -0.1758 -0.0072 -0.4560
   52MOL   H27228934   1.235   2.904   6.549  1.0419  0.6609  1.2349
   52MOL   H27328935   1.016   2.815   6.431 -2.3571 -0.2225  0.0499
   52MOL   H27428936   0.809   2.654   6.448 -0.8003 -0.4995  0.6134
   52MOL   H27528937   0.577   2.300   6.733  0.7013 -3.1176  0.7223
   52MOL   H27628938   0.641   2.322   6.897  0.9213 -0.3410  0.3725
   52MOL   H27728939   0.704   2.113   6.771 -2.4534  0.8654 -2.7225
   52MOL   H27828940   0.782   2.217   6.653 -0.6895  1.7644  0.3453
   52MOL   H27928941   0.908   2.576   6.850 -0.3930  0.5899  0.1604
   52MOL   H28028942   1.089   2.670   6.961 -2.6170  1.3641 -0.6211
   52MOL   H28128943   1.300   2.789   6.954  0.0418  0.8775 -0.5721
   52MOL   O28228944   0.821   2.062   6.994  0.4632 -0.1109  0.4500
   52MOL   C28328945   0.892   2.154   6.951 -0.5463  0.1000  0.2563
   52MOL   O28428946   0.880   2.218   6.830  0.0901 -0.0213 -0.0479
   52MOL   C28528947   1.020   2.201   7.014 -0.3587  0.1872  0.2496
   52MOL   C28628948   1.115   2.294   6.954  0.9599 -0.0136  0.0333
   52MOL   C28728949   1.226   2.339   7.022  0.2174  0.2672 -0.1368
   52MOL   C28828950   1.321   2.421   6.958  0.5564  0.4535 -0.0555
   52MOL   C28928951   1.445   2.445   7.024 -0.1259 -1.0079 -0.3508
   52MOL   C29028952   1.469   2.396   7.158  0.3730  0.2113 -0.4298
   52MOL   C29128953   1.595   2.424   7.240 -0.3318 -0.5247  0.0121
   52MOL   O29228954   1.591   2.398   7.372 -0.3755  0.4203 -0.1590
   52MOL   C29328955   1.707   2.376   7.439 -0.2458 -0.0725 -0.2415
   52MOL   C29428956   1.704   2.225   7.458 -0.5172  0.7903  0.0102
   52MOL   O29528957   1.689   2.467   7.181  0.0860 -0.3809  0.0871
   52MOL   C29628958   1.364   2.332   7.225  0.3668  0.2720  0.0910
   52MOL   C29728959   1.249   2.295   7.154  0.5846  0.3899 -1.0261
   52MOL   C29828960   1.168   2.197   7.212  0.8772  0.1334  0.2865
   52MOL   C29928961   1.046   2.166   7.149  0.6527 -0.1198  1.0259
   52MOL   H30028962   1.103   2.324   6.851  0.2182  0.1811  0.1735
   52MOL   H30128963   1.305   2.446   6.854 -0.9361 -0.5180 -0.0725
   52MOL   H30228964   1.526   2.495   6.974  0.4895 -2.1054 -0.4759
   52MOL   H30328965   1.705   2.428   7.536  0.9561  0.6605 -0.5959
   52MOL   H30428966   1.793   2.412   7.382  0.9190 -2.7805 -0.2530
   52MOL   H30528967   1.805   2.201   7.490 -0.2651  0.5991 -0.9194
   52MOL   H30628968   1.628   2.199   7.531 -0.2017  0.5574  0.2542
   52MOL   H30728969   1.377   2.301   7.328 -1.0203 -0.7089 -0.0064
   52MOL   H30828970   1.209   2.146   7.298  0.5611  0.1016  0.4177
   52MOL   H30928971   0.981   2.090   7.191 -0.2367 -0.6363 -1.2077
   52MOL   O31028972   1.828   1.997   7.361  0.1934 -0.1609  0.5490
   52MOL   C31128973   1.743   2.053   7.291 -0.8057 -0.1658 -0.0501
   52MOL   O31228974   1.661   2.150   7.342 -0.1242 -0.2267 -0.2509
   52MOL   C31328975   1.717   2.011   7.153 -0.3136  0.3423 -0.1589
   52MOL   C31428976   1.620   2.077   7.070 -0.7500 -0.2263 -0.5783
   52MOL   C31528977   1.604   2.043   6.940  0.1700 -0.0074  0.6062
   52MOL   C31628978   1.513   2.118   6.857  0.5736  0.0251 -0.4335
   52MOL   C31728979   1.498   2.087   6.720 -0.1612  0.5518 -0.5251
   52MOL   C31828980   1.572   1.977   6.666  0.3825 -0.2544 -0.0489
   52MOL   C31928981   1.541   1.937   6.526  0.0383 -0.2869 -0.0777
   52MOL   O32028982   1.600   1.827   6.485  0.5272 -0.6188  0.3156
   52MOL   C32128983   1.586   1.773   6.356  0.5963 -0.4171  0.0040
   52MOL   C32228984   1.706   1.694   6.316  0.2575 -0.7183  0.0891
   52MOL   O32328985   1.456   1.990   6.454 -0.2327 -0.6043  0.6964
   52MOL   C32428986   1.654   1.898   6.751  0.1450 -0.5057  1.0338
   52MOL   C32528987   1.668   1.932   6.884 -0.4212  0.5895 -0.6864
   52MOL   C32628988   1.758   1.855   6.963 -0.0728  0.2267  0.4011
   52MOL   C32728989   1.785   1.903   7.097 -0.0319 -0.4703  0.3773
   52MOL   H32828990   1.562   2.154   7.118  1.2291 -0.4851  2.3652
   52MOL   H32928991   1.463   2.202   6.903  1.1455  2.3234 -3.8306
   52MOL   H33028992   1.431   2.148   6.661 -1.9583  0.5538  1.4461
   52MOL   H33128993   1.573   1.850   6.280  2.3278  1.5343  1.6312
   52MOL   H33228994   1.498   1.709   6.352 -0.0767  0.5462 -0.6456
   52MOL   H33328995   1.793   1.758   6.303 -0.9662  1.0865  0.6818
   52MOL   H33428996   1.734   1.630   6.400 -0.2186  1.3600  1.8495
   52MOL   H33528997   1.700   1.809   6.710 -1.0293 -1.1058  0.9997
   52MOL   H33628998   1.810   1.773   6.916 -1.7983 -0.3687 -0.5165
   52MOL   H33728999   1.867   1.849   7.141  0.4545  0.1080  0.1935
   52MOL   O33829000   1.734   1.768   6.053  0.1862  0.4491 -0.5343
   52MOL   C33929001   1.686   1.657   6.076  0.5020  0.6480  0.3830
   52MOL   O34029002   1.675   1.612   6.202  0.1988  0.2378  0.2306
   52MOL   C34129003   1.637   1.564   5.973  0.2224  0.4045 -0.0972
   52MOL   C34229004   1.669   1.588   5.838  0.1834  0.1887 -0.1205
   52MOL   C34329005   1.641   1.495   5.738  0.0685 -0.4050 -0.0352
   52MOL   C34429006   1.674   1.524   5.608 -0.5126  0.2918  0.8023
   52MOL   C34529007   1.654   1.423   5.511 -0.1706 -1.1508 -0.4957
   52MOL   C34629008   1.590   1.298   5.545 -0.0882 -0.4323 -0.3856
   52MOL   C34729009   1.585   1.193   5.444 -0.0610 -0.7303 -0.1292
   52MOL   O34829010   1.544   1.069   5.500  0.0441  0.7155  0.4559
   52MOL   C34929011   1.530   0.950   5.424  0.2105  0.3288 -0.0663
   52MOL   C35029012   1.580   0.835   5.519 -0.6717  0.0146 -0.4325
   52MOL   O35129013   1.594   1.217   5.323 -0.1316 -0.2006  0.6374
   52MOL   C35229014   1.551   1.272   5.677 -0.3589  0.0120  0.2310
   52MOL   C35329015   1.576   1.373   5.771  0.0601  0.2976 -0.3715
   52MOL   C35429016   1.533   1.352   5.903 -0.4539  0.2273 -0.4342
   52MOL   C35529017   1.565   1.443   6.002  0.7605  0.1384  0.1271
   52MOL   H35629018   1.719   1.682   5.819  1.3352 -0.2843  0.5392
   52MOL   H35729019   1.732   1.612   5.585 -0.3688 -0.0982 -0.3357
   52MOL   H35829020   1.697   1.448   5.415  0.3596 -3.1159 -0.7830
   52MOL   H35929021   1.595   0.951   5.337 -1.1736  0.7613 -1.1056
   52MOL   H36029022   1.429   0.943   5.383 -0.0922  1.7776  0.4228
   52MOL   H36129023   1.494   0.797   5.574 -2.0742  2.0453 -1.1760
   52MOL   H36229024   1.619   0.748   5.466  1.4447  0.6259  0.1012
   52MOL   H36329025   1.493   1.191   5.719 -1.4436  0.7709  0.2351
   52MOL   H36429026   1.490   1.261   5.940  0.2354  0.9753  2.3616
   52MOL   H36529027   1.543   1.422   6.106 -1.5185  0.3122 -0.2994
   52MOL   O36629028   1.558   0.921   5.786 -0.2522 -0.1021 -0.4256
   52MOL   C36729029   1.671   0.917   5.729  0.2383  0.1682 -0.4960
   52MOL   O36829030   1.692   0.872   5.600 -0.1971 -0.9621 -0.6323
   52MOL   C36929031   1.789   0.969   5.798 -0.1379 -0.6228  0.1567
   52MOL   C37029032   1.921   0.930   5.760 -0.0015 -0.0528  0.1280
   52MOL   C37129033   2.032   0.974   5.835  0.1328 -0.5998  0.2510
   52MOL   C37229034   2.166   0.927   5.816 -0.5264  0.3102  0.2841
   52MOL   C37329035   2.270   0.972   5.904 -0.2137 -0.4128  0.1576
   52MOL   C37429036   2.243   1.062   6.011  0.4515 -0.2331 -0.4573
   52MOL   C37529037   2.351   1.110   6.098 -0.3851 -0.2738 -0.2760
   52MOL   O37629038   2.315   1.135   6.219 -0.4805  0.1712  0.0734
   52MOL   C37729039   2.404   1.148   6.333 -0.6253  0.5543  0.1841
   52MOL   C37829040   2.458   1.295   6.329  0.6478  0.0458 -0.3525
   52MOL   O37929041   2.471   1.103   6.063 -0.4803 -0.0993  0.7261
   52MOL   C38029042   2.115   1.103   6.031  0.6794  0.3991 -0.4859
   52MOL   C38129043   2.009   1.061   5.948 -0.0353  0.2137  0.2003
   52MOL   C38229044   1.881   1.113   5.974 -0.5559 -0.4683 -0.1767
   52MOL   C38329045   1.766   1.064   5.906  0.0356 -0.4605  0.5783
   52MOL   H38429046   1.929   0.862   5.676 -0.3981 -0.2009  0.2069
   52MOL   H38529047   2.193   0.870   5.728 -0.4341 -0.7366  0.9775
   52MOL   H38629048   2.370   0.943   5.874  0.2749  0.5663  0.8477
   52MOL   H38729049   2.490   1.085   6.315  1.7002  3.7467 -0.3178
   52MOL   H38829050   2.364   1.122   6.431  0.5152 -1.1965  0.1985
   52MOL   H38929051   2.565   1.282   6.345  0.3223 -1.4703  0.6665
   52MOL   H39029052   2.459   1.348   6.233  1.7056  0.4860 -0.0995
   52MOL   H39129053   2.085   1.163   6.116  0.2408 -0.8454  0.2568
   52MOL   H39229054   1.872   1.186   6.053  1.5147 -0.6184  0.2041
   52MOL   H39329055   1.667   1.102   5.926  0.5458  1.3961 -0.3941
   52MOL   O39429056   2.192   1.384   6.330 -0.4575 -0.3352  0.2572
   52MOL   C39529057   2.269   1.414   6.423 -0.4817  0.6328  0.0682
   52MOL   O39629058   2.404   1.382   6.427  0.3780 -0.2676 -0.1643
   52MOL   C39729059   2.221   1.468   6.551  0.4258  0.7025  0.1171
   52MOL   C39829060   2.083   1.465   6.579  0.2452 -0.0989  0.2534
   52MOL   C39929061   2.024   1.499   6.702  0.0313 -0.0476 -0.2338
   52MOL   C40029062   1.888   1.474   6.735  0.2894 -0.2996  0.1709
   52MOL   C40129063   1.841   1.502   6.867 -0.4685  0.1686  0.1350
   52MOL   C40229064   1.927   1.554   6.967 -0.0063 -0.1433  0.0841
   52MOL   C40329065   1.889   1.571   7.110  0.3726  0.5281  0.0860
   52MOL   O40429066   1.755   1.569   7.124  0.3371  0.0578  0.8931
   52MOL   C40529067   1.690   1.606   7.243 -0.8231  0.0353 -0.0948
   52MOL   C40629068   1.632   1.479   7.299  0.2316  0.7954 -0.6984
   52MOL   O40729069   1.970   1.585   7.199  0.1065  0.2005  0.3435
   52MOL   C40829070   2.059   1.581   6.932 -0.2461  0.4646 -0.6382
   52MOL   C40929071   2.108   1.553   6.804 -0.6483 -0.9027 -0.5427
   52MOL   C41029072   2.248   1.566   6.773 -0.3658  0.6357 -0.0400
   52MOL   C41129073   2.307   1.522   6.654 -0.4609 -0.3749  0.1559
   52MOL   H41229074   2.010   1.448   6.500 -0.1550  0.0712  0.5830
   52MOL   H41329075   1.827   1.427   6.659 -0.3145  1.7169 -0.6113
   52MOL   H41429076   1.735   1.490   6.885 -1.0933 -0.3140 -3.5391
   52MOL   H41529077   1.621   1.688   7.226  0.5295  0.8951 -1.5228
   52MOL   H41629078   1.763   1.647   7.312  3.5520 -1.5159 -3.5876
   52MOL   H41729079   1.669   1.387   7.253 -1.4262  1.5739 -3.7321
   52MOL   H41829080   1.652   1.465   7.405 -2.5441  1.8553 -0.0049
   52MOL   H41929081   2.118   1.620   7.014 -3.0135 -1.0890  2.2272
   52MOL   H42029082   2.310   1.612   6.849  0.2173 -1.3712  0.7456
   52MOL   H42129083   2.415   1.522   6.649 -0.4783  1.1666 -0.3284
   52MOL   O42229084   1.454   1.310   7.430  0.1570 -0.4672  0.5188
   52MOL   C42329085   1.409   1.401   7.370 -0.0138 -0.2073 -0.0741
   52MOL   O42429086   1.488   1.476   7.285 -0.7040 -0.9142  0.2236
   52MOL   C42529087   1.263   1.426   7.368  0.0712  0.2689 -0.0721
   52MOL   C42629088   1.174   1.334   7.429  0.1770  0.3805 -1.0523
   52MOL   C42729089   1.032   1.360   7.432  0.3700 -0.4239  0.0104
   52MOL   C42829090   0.942   1.275   7.495  0.5846 -0.5319 -0.2356
   52MOL   C42929091   0.804   1.279   7.477  0.0090  0.4842  0.0431
   52MOL   C43029092   0.752   1.383   7.405  0.5893  0.4346  0.8258
   52MOL   C43129093   0.608   1.397   7.398 -0.2714 -0.4896  0.5618
   52MOL   O43229094   0.548   1.287   7.441 -0.0340  0.3025  0.0951
   52MOL   C43329095   0.418   1.258   7.413 -0.1523  0.2995 -0.9909
   52MOL   C43429096   0.336   1.265   7.538 -0.2006  0.2359  0.2659
   52MOL   O43529097   0.544   1.495   7.354 -0.7294  0.0336 -0.9149
   52MOL   C43629098   0.842   1.479   7.346  0.1902 -0.0971 -0.2255
   52MOL   C43729099   0.982   1.469   7.360  0.3896  0.8502 -0.1391
   52MOL   C43829100   1.073   1.552   7.300 -0.8741  0.1089 -0.2576
   52MOL   C43929101   1.211   1.541   7.297 -0.6645 -0.8942  0.0962
   52MOL   H44029102   1.209   1.254   7.492 -1.4915  0.3832 -0.0910
   52MOL   H44129103   0.985   1.197   7.557  1.1788 -0.0336 -0.0251
   52MOL   H44229104   0.746   1.204   7.530  0.3317  0.5945  0.5595
   52MOL   H44329105   0.408   1.155   7.376  1.7504  0.0384 -0.7836
   52MOL   H44429106   0.375   1.320   7.334 -1.2490 -1.5863 -1.9196
   52MOL   H44529107   0.262   1.186   7.525 -1.1967  1.7620 -4.4461
   52MOL   H44629108   0.401   1.237   7.621 -0.3838 -1.5762 -0.1755
   52MOL   H44729109   0.808   1.567   7.293 -1.1130  1.9530  3.7533
   52MOL   H44829110   1.038   1.639   7.246 -1.5092  0.7219  1.1122
   52MOL   H44929111   1.276   1.607   7.242 -1.1509 -0.0620  0.5114
   52MOL   O45029112   0.095   1.284   7.660 -0.3702 -0.7268 -0.5235
   52MOL   C45129113   0.160   1.385   7.630  0.3470 -0.1609 -0.5061
   52MOL   O45229114   0.273   1.389   7.556  0.1969  0.3087 -0.7918
   52MOL   C45329115   0.115   1.519   7.674  0.0001  0.1913  1.0215
   52MOL   C45429116   0.181   1.639   7.627  0.3076  0.3329 -0.3586
   52MOL   C45529117   0.138   1.765   7.664 -0.3141 -0.1913  0.3412
   52MOL   C45629118   0.193   1.884   7.608 -0.5272  1.1439  1.0812
   52MOL   C45729119   0.140   2.013   7.635 -0.2556 -0.3022  0.1741
   52MOL   C45829120   0.026   2.025   7.720  0.4608  0.2276 -0.4012
   52MOL   C45929121   8.203   2.151   7.730  0.6133  0.1640 -0.9755
   52MOL   O46029122   0.013   2.245   7.660  0.6433 -0.3831 -0.2071
   52MOL   C46129123   8.203   2.377   7.642  0.4002  0.6242  0.7686
   52MOL   C46229124   0.001   2.428   7.508  0.4221  0.8093 -0.1518
   52MOL   O46329125   8.097   2.164   7.790  0.2715  0.0158 -0.9506
   52MOL   C46429126   8.228   1.908   7.783 -0.0618 -0.1568 -0.1551
   52MOL   C46529127   0.034   1.776   7.759  0.1585 -0.7332 -0.5458
   52MOL   C46629128   8.216   1.668   7.808  0.1907 -0.1455  0.0733
   52MOL   C46729129   0.007   1.534   7.759 -0.1319 -0.3324  0.1227
   52MOL   H46829130   0.266   1.624   7.562 -0.6038  1.1695 -1.7800
   52MOL   H46929131   0.277   1.869   7.543 -0.5253 -0.3980  1.4330
   52MOL   H47029132   0.178   2.097   7.577 -0.6977 -0.2169  0.0083
   52MOL   H47129133   8.222   2.448   7.723 -1.0262 -0.9787  2.5514
   52MOL   H47229134   8.094   2.376   7.639  0.3583  1.3488  1.8942
   52MOL   H47329135   8.216   2.368   7.424 -1.2925 -0.5847  1.4708
   52MOL   H47429136   8.192   2.519   7.491 -0.8376  0.3533  1.5606
   52MOL   H47529137   8.140   1.915   7.846  0.1653 -0.2764  0.1763
   52MOL   H47629138   8.149   1.678   7.892  1.7951  1.3022  1.2169
   52MOL   H47729139   8.204   1.450   7.801 -0.3303 -0.6632 -0.7868
   52MOL   O47829140   0.155   2.599   7.675  0.1093 -0.0333 -0.1597
   52MOL   C47929141   0.204   2.545   7.578 -0.0542 -0.5332  0.2281
   52MOL   O48029142   0.141   2.458   7.494  0.3560 -0.3685 -0.7693
   52MOL   C48129143   0.345   2.575   7.526 -0.1826 -0.2420 -0.3852
   52MOL   C48229144   0.388   2.528   7.405 -0.1257  0.3615 -0.2521
   52MOL   C48329145   0.521   2.557   7.370 -0.6169  0.3359  0.7756
   52MOL   C48429146   0.568   2.512   7.247  0.6248  0.0466  0.0697
   52MOL   C48529147   0.702   2.525   7.211  0.4791 -1.1890 -0.1468
   52MOL   C48629148   0.796   2.586   7.302  0.2430  0.2014 -0.5864
   52MOL   C48729149   0.938   2.606   7.257  0.8260 -0.0695 -0.0841
   52MOL   O48829150   1.006   2.705   7.320 -0.2866 -0.4359  0.2277
   52MOL   C48929151   1.129   2.754   7.281 -0.1183  0.0634 -0.4332
   52MOL   C49029152   1.236   2.734   7.390 -0.0371  0.4531  0.2107
   52MOL   O49129153   0.987   2.535   7.166 -0.4386  0.4015 -0.2205
   52MOL   C49229154   0.748   2.645   7.421 -0.7717 -0.1926  0.3705
   52MOL   C49329155   0.607   2.624   7.455  0.1821 -0.2524 -0.0723
   52MOL   C49429156   0.558   2.677   7.574  0.1123  0.1180  0.3795
   52MOL   C49529157   0.424   2.649   7.613 -0.3249  0.2761 -0.4492
   52MOL   H49629158   0.327   2.472   7.336 -1.2204  0.1354  0.8899
   52MOL   H49729159   0.492   2.465   7.186 -0.6367  0.0907  1.6031
   52MOL   H49829160   0.741   2.489   7.117  1.0655 -1.0426  0.0375
   52MOL   H49929161   1.115   2.858   7.252 -2.3046  0.0933  0.6433
   52MOL   H50029162   1.157   2.712   7.185 -1.2570  1.7099 -1.5062
   52MOL   H50129163   1.216   2.797   7.477 -0.5257  1.3850 -0.5633
   52MOL   H50229164   1.247   2.632   7.426 -2.1687  0.6510  1.4974
   52MOL   H50329165   0.821   2.701   7.478 -0.4165  0.5764 -0.8003
   52MOL   H50429166   0.611   2.730   7.652 -0.0892  0.0095  0.5926
   52MOL   H50529167   0.386   2.706   7.697 -1.0493  1.5194 -1.5998
   52MOL   O50629168   1.344   2.982   7.415  0.4518  0.2082 -0.0022
   52MOL   C50729169   1.411   2.893   7.360 -0.0854  0.1042  0.2182
   52MOL   O50829170   1.367   2.771   7.339  0.7206 -0.1329 -0.2910
   52MOL   C50929171   1.548   2.911   7.300 -0.0919  0.7613  0.7159
   52MOL   C51029172   1.625   3.024   7.329 -0.3589  0.5719 -0.5669
   52MOL   C51129173   1.759   3.040   7.288 -0.4806  0.3837  0.2654
   52MOL   C51229174   1.830   3.156   7.325 -0.9832 -0.5606 -0.0573
   52MOL   C51329175   1.961   3.169   7.289  0.6493  0.1330 -0.0313
   52MOL   C51429176   2.022   3.067   7.214  0.3602 -0.7752 -0.0577
   52MOL   C51529177   2.168   3.086   7.176  0.4556 -0.2754  0.9422
   52MOL   O51629178   2.201   3.001   7.079 -0.5660 -0.0878 -0.3958
   52MOL   C51729179   2.342   3.007   7.034 -0.5512 -0.1506 -0.1563
   52MOL   C51829180   2.434   2.914   7.115 -0.3385 -0.1680 -0.4768
   52MOL   O51929181   2.246   3.166   7.225  0.4845 -0.1003  0.3990
   52MOL   C52029182   1.951   2.947   7.184  0.5220 -0.2760  0.1859
   52MOL   C52129183   1.817   2.934   7.217  0.5099 -0.5323 -0.3624
   52MOL   C52229184   1.742   2.815   7.177  0.0357  0.0577 -0.7974
   52MOL   C52329185   1.605   2.808   7.225 -0.0298  0.3548 -0.0516
   52MOL   H52429186   1.583   3.098   7.395 -0.8666 -1.8854  1.9631
   52MOL   H52529187   1.784   3.235   7.382  0.4945  1.4912 -1.6370
   52MOL   H52629188   2.009   3.265   7.298 -0.4928  0.6626  0.5117
   52MOL   H52729189   2.385   3.107   7.037 -1.2663  0.1664 -0.1904
   52MOL   H52829190   2.335   2.979   6.929 -2.1197  2.2075 -0.7205
   52MOL   H52929191   2.541   2.927   7.095 -0.3472 -0.6391 -0.8391
   52MOL   H53029192   2.423   2.919   7.223 -0.2646 -1.6311 -0.3946
   52MOL   H53129193   1.999   2.863   7.137  0.5842 -0.6528  0.9234
   52MOL   H53229194   1.788   2.728   7.133 -2.9889 -2.9812  1.7655
   52MOL   H53329195   1.551   2.720   7.192 -1.4148  1.3589 -0.4908
   52MOL   O53429196   2.617   2.735   7.007 -0.1277 -0.2272 -0.2143
   52MOL   C53529197   2.497   2.702   7.019 -0.2759 -0.1067  0.2421
   52MOL   O53629198   2.405   2.787   7.065  0.2409  0.5353 -0.5018
   52MOL   C53729199   2.441   2.566   6.976 -0.1138 -0.4122  0.3396
   52MOL   C53829200   2.515   2.445   6.979  0.1180  0.2873  0.6856
   52MOL   C53929201   2.456   2.324   6.931 -0.5296 -0.3847  0.1809
   52MOL   C54029202   2.531   2.207   6.943  0.1990  1.2798  0.0785
   52MOL   C54129203   2.473   2.087   6.891  0.8116 -0.1932 -0.5826
   52MOL   C54229204   2.349   2.090   6.817 -0.5805  0.1626  0.1128
   52MOL   C54329205   2.301   1.963   6.750  0.1618 -0.4003 -0.1323
   52MOL   O54429206   2.180   1.987   6.703 -0.2942  0.4613 -0.0434
   52MOL   C54529207   2.113   1.871   6.654 -0.8794 -0.4488  0.8995
   52MOL   C54629208   2.021   1.916   6.550  1.0645 -0.1594 -0.2686
   52MOL   O54729209   2.365   1.860   6.745  0.1906  0.0231 -0.4193
   52MOL   C54829210   2.278   2.208   6.824  0.7009 -0.0708 -0.3760
   52MOL   C54929211   2.326   2.326   6.885 -0.4076 -0.0294  0.5319
   52MOL   C55029212   2.251   2.440   6.890 -0.0187  0.2132  0.4419
   52MOL   C55129213   2.303   2.562   6.936  0.0093 -0.0840  0.1058
   52MOL   H55229214   2.618   2.450   7.009  0.6887  0.3675 -1.2093
   52MOL   H55329215   2.629   2.201   6.988  0.1945 -3.1352 -0.2717
   52MOL   H55429216   2.527   1.994   6.893  0.7439 -0.2166  0.3355
   52MOL   H55529217   2.058   1.821   6.733 -3.4623  1.9648  0.6918
   52MOL   H55629218   2.185   1.802   6.609 -0.3430  2.0534 -2.2666
   52MOL   H55729219   2.068   1.989   6.484 -0.5457 -0.0511 -1.3166
   52MOL   H55829220   1.941   1.971   6.599  1.0851  1.5647 -2.1010
   52MOL   H55929221   2.180   2.214   6.778  0.7184  3.1659 -0.0822
   52MOL   H56029222   2.147   2.439   6.860  0.3369 -0.4585 -0.8152
   52MOL   H56129223   2.236   2.647   6.933 -1.2142 -0.9399  2.2143
   52MOL   H56229224   1.980   1.828   6.499 -0.6012  1.7442 -2.3316
   53MOL     O129225   5.086   7.745   5.596 -0.2548 -0.6120  0.6246
   53MOL     C229226   5.168   7.813   5.661 -0.4588  0.7398  0.2424
   53MOL     O329227   5.178   7.950   5.650  0.1421  0.4425 -0.1034
   53MOL     C429228   5.260   7.746   5.762  0.2242  0.1813  0.5833
   53MOL     C529229   5.235   7.613   5.793  0.2515 -0.9924 -0.0912
   53MOL     C629230   5.326   7.538   5.868 -0.1728  0.3094 -0.5994
   53MOL     C729231   5.294   7.403   5.898 -0.0202 -0.2983 -1.1641
   53MOL     C829232   5.386   7.317   5.956 -0.4941 -0.5085 -0.2026
   53MOL     C929233   5.515   7.373   5.997 -0.0241  0.0997 -0.2068
   53MOL    C1029234   5.626   7.291   6.037 -0.1002  0.0038 -0.0266
   53MOL    O1129235   5.585   7.172   6.076  0.6287 -0.0306 -0.0766
   53MOL    C1229236   5.666   7.063   6.089 -0.6057 -0.3267 -0.1723
   53MOL    C1329237   5.738   7.047   6.226  0.1660  0.6207  0.0792
   53MOL    O1429238   5.746   7.330   6.040  0.3397 -0.5894  0.7677
   53MOL    C1529239   5.533   7.513   5.982  0.8070  0.1231  0.2463
   53MOL    C1629240   5.437   7.598   5.923  0.8794  0.4564 -1.0460
   53MOL    C1729241   5.454   7.739   5.911 -0.4220 -0.7173  0.2839
   53MOL    C1829242   5.362   7.813   5.830 -0.1437 -0.1231  0.1764
   53MOL    H1929243   5.159   7.553   5.747 -0.2436 -0.1552 -0.3743
   53MOL    H2029244   5.211   7.360   5.843 -0.5053  1.1930 -1.6251
   53MOL    H2129245   5.363   7.211   5.951  1.3500 -0.8740 -1.4380
   53MOL    H2229246   5.605   6.977   6.061 -0.3563 -0.3637 -0.6050
   53MOL    H2329247   5.739   7.067   6.008 -0.1642  0.6554  0.2685
   53MOL    H2429248   5.704   7.135   6.280 -1.0047 -0.0813  0.5009
   53MOL    H2529249   5.695   6.962   6.279  1.3142  0.4850  0.7972
   53MOL    H2629250   5.623   7.560   6.018  0.7570  1.4492 -1.2738
   53MOL    H2729251   5.536   7.796   5.953  0.0437 -2.9428  2.5232
   53MOL    H2829252   5.393   7.914   5.805 -0.4721 -0.1885 -0.5140
   53MOL    H2929253   5.099   7.984   5.611 -2.0793 -0.5957  3.2414
   53MOL    O3029254   5.951   7.151   6.368 -0.1970  0.1846 -0.2148
   53MOL    C3129255   5.970   7.097   6.258  0.0021  0.0806  0.2041
   53MOL    O3229256   5.872   7.025   6.199 -0.1806  0.1744  0.4012
   53MOL    C3329257   6.102   7.081   6.193  0.1798  0.2560 -0.3074
   53MOL    C3429258   6.098   7.062   6.054  0.3250 -0.5617  0.4719
   53MOL    C3529259   6.208   7.022   5.979 -0.2989  0.1463  0.2262
   53MOL    C3629260   6.191   6.988   5.843 -0.2165 -0.1373 -0.1948
   53MOL    C3729261   6.305   6.935   5.783  0.2020  0.1384  0.0288
   53MOL    C3829262   6.430   6.931   5.843  0.2086 -0.7319 -0.1006
   53MOL    C3929263   6.551   6.878   5.774 -0.4092 -0.3825 -0.1421
   53MOL    O4029264   6.525   6.818   5.658  0.1590 -0.5506 -0.2741
   53MOL    C4129265   6.630   6.745   5.592 -0.3716 -0.3783 -0.5782
   53MOL    C4229266   6.570   6.680   5.472  0.7793  0.2457 -0.0082
   53MOL    O4329267   6.668   6.897   5.807  0.4332 -0.2977  0.4964
   53MOL    C4429268   6.441   6.977   5.976 -0.4372 -0.3954 -0.0352
   53MOL    C4529269   6.334   7.011   6.048 -1.1469 -0.5001  0.4497
   53MOL    C4629270   6.344   7.051   6.182  0.6570 -0.9277 -0.4894
   53MOL    C4729271   6.229   7.082   6.255  0.2589 -0.4430  0.1502
   53MOL    H4829272   6.007   7.069   5.996  1.8284 -0.5661 -1.9958
   53MOL    H4929273   6.098   7.001   5.790 -0.1409  0.4763 -0.1738
   53MOL    H5029274   6.293   6.887   5.687  1.7612  0.2567 -0.2451
   53MOL    H5129275   6.672   6.669   5.658  1.2364 -0.2451 -1.4215
   53MOL    H5229276   6.701   6.820   5.556  1.5035 -1.8613 -0.0464
   53MOL    H5329277   6.602   6.575   5.479  2.0535  0.5034 -1.7136
   53MOL    H5429278   6.462   6.692   5.474  0.5458 -1.7238  0.3537
   53MOL    H5529279   6.535   6.966   6.028  0.2870 -1.8552 -1.6032
   53MOL    H5629280   6.439   7.044   6.232  0.5748  0.7582 -0.0577
   53MOL    H5729281   6.233   7.109   6.359 -0.3101  2.3345 -0.5071
   53MOL    O5829282   6.480   6.582   5.224  0.0569 -0.3796 -0.7065
   53MOL    C5929283   6.556   6.678   5.231 -0.0048  0.3048  0.9027
   53MOL    O6029284   6.608   6.729   5.346  0.2445 -0.9262  0.1260
   53MOL    C6129285   6.608   6.744   5.113 -0.2189  0.2700 -0.7616
   53MOL    C6229286   6.602   6.677   4.989 -0.3586 -0.1334  0.0741
   53MOL    C6329287   6.649   6.732   4.871  0.0890  0.0950 -0.3106
   53MOL    C6429288   6.647   6.666   4.750 -0.3288 -0.0467  0.6093
   53MOL    C6529289   6.697   6.728   4.637 -0.0686 -0.3838 -0.3486
   53MOL    C6629290   6.737   6.863   4.644  0.2425 -0.6820 -0.1045
   53MOL    C6729291   6.796   6.948   4.534  0.6839  0.0187  1.1138
   53MOL    O6829292   6.799   6.871   4.427  0.5845  0.2658 -0.0986
   53MOL    C6929293   6.863   6.910   4.298  0.2442 -0.6312 -0.2992
   53MOL    C7029294   6.766   6.973   4.194  0.1466 -0.3459 -0.6873
   53MOL    O7129295   6.845   7.058   4.540 -0.3524  0.0254  0.2565
   53MOL    C7229296   6.751   6.922   4.774  0.0395 -0.0260 -0.6758
   53MOL    C7329297   6.705   6.862   4.888 -0.8326 -0.2334  0.4063
   53MOL    C7429298   6.723   6.933   5.009 -0.1414 -0.5362 -0.4307
   53MOL    C7529299   6.662   6.873   5.121 -0.5018  0.4599  0.4624
   53MOL    H7629300   6.551   6.581   4.994 -0.2207 -0.1571  1.2045
   53MOL    H7729301   6.618   6.562   4.746 -0.3405 -0.0428  0.5875
   53MOL    H7829302   6.694   6.675   4.543  0.7253  1.9686 -1.7340
   53MOL    H7929303   6.911   6.819   4.261  1.9475 -0.3772  1.2181
   53MOL    H8029304   6.949   6.971   4.323  0.5811 -0.1068 -2.6641
   53MOL    H8129305   6.823   6.963   4.102  0.4617 -1.5054 -0.3712
   53MOL    H8229306   6.677   6.914   4.175 -1.3880  1.4333  0.7954
   53MOL    H8329307   6.784   7.025   4.778 -1.7397  0.5996 -1.2486
   53MOL    H8429308   6.773   7.029   5.005  2.6237 -1.8727  0.4510
   53MOL    H8529309   6.663   6.925   5.215  2.3366 -0.3971  0.9325
   53MOL    O8629310   6.908   7.197   4.142  0.1014  0.0960 -0.0563
   53MOL    C8729311   6.797   7.210   4.193  0.1683  0.6045  0.1902
   53MOL    O8829312   6.729   7.110   4.227 -0.3844  0.5671 -0.1680
   53MOL    C8929313   6.744   7.343   4.222  0.2346  0.0536  0.3589
   53MOL    C9029314   6.835   7.444   4.238  0.0700 -1.2063 -0.0383
   53MOL    C9129315   6.792   7.574   4.270  0.2468 -0.4383  0.4156
   53MOL    C9229316   6.880   7.682   4.303 -0.0956  0.7021  0.1496
   53MOL    C9329317   6.835   7.809   4.342  0.1696  0.3999 -0.7341
   53MOL    C9429318   6.704   7.844   4.318 -0.4835  0.1602 -0.4434
   53MOL    C9529319   6.670   7.981   4.368  0.5476 -0.2864 -0.5082
   53MOL    O9629320   6.535   8.004   4.366  0.1175 -0.1312 -0.0647
   53MOL    C9729321   6.483   8.134   4.353  0.1052  0.7447 -0.2723
   53MOL    C9829322   6.338   8.104   4.308  0.5303  0.3428 -0.2221
   53MOL    O9929323   6.755   8.075   4.391  0.5596 -0.2062 -0.0587
   53MOL   C10029324   6.612   7.740   4.276 -0.3872  0.4957 -0.3054
   53MOL   C10129325   6.653   7.604   4.263  0.4149  0.5130  0.0481
   53MOL   C10229326   6.560   7.500   4.244 -0.3473 -0.1136 -0.3023
   53MOL   C10329327   6.603   7.367   4.233  0.2885 -0.0842  0.1336
   53MOL   H10429328   6.940   7.417   4.242 -0.0715 -1.5222  3.0823
   53MOL   H10529329   6.985   7.661   4.315 -0.0536  1.5588  1.3899
   53MOL   H10629330   6.903   7.888   4.370  0.5534 -0.5238  0.9955
   53MOL   H10729331   6.538   8.194   4.280  0.8632  1.0390  0.5338
   53MOL   H10829332   6.497   8.174   4.454  1.8093 -1.4286  0.3988
   53MOL   H10929333   6.293   8.200   4.285 -1.3106 -0.3624  0.3661
   53MOL   H11029334   6.347   8.036   4.224 -0.0685 -2.1442  1.6646
   53MOL   H11129335   6.505   7.753   4.279 -0.5104 -0.7716  0.9888
   53MOL   H11229336   6.456   7.511   4.216 -1.0060 -0.7328  1.7420
   53MOL   H11329337   6.532   7.286   4.231  0.0942  0.0501  1.2409
   53MOL   O11429338   6.063   8.085   4.309 -0.2043 -0.1193 -0.2415
   53MOL   C11529339   6.136   8.049   4.403  0.6997 -0.5934 -1.3261
   53MOL   O11629340   6.265   8.032   4.405 -0.4515  0.1047  0.1773
   53MOL   C11729341   6.077   8.008   4.539  0.3590  0.2877 -0.6981
   53MOL   C11829342   6.154   7.963   4.652 -0.7758  0.1039 -0.2562
   53MOL   C11929343   6.087   7.937   4.777  0.3510 -0.1168  0.6196
   53MOL   C12029344   6.166   7.900   4.893  0.2794  0.3697 -0.1058
   53MOL   C12129345   6.107   7.870   5.017  0.4941 -0.0771 -0.3217
   53MOL   C12229346   5.961   7.875   5.025 -0.2682 -0.4253 -0.2511
   53MOL   C12329347   5.893   7.848   5.153  0.0401  0.3533  0.3909
   53MOL   O12429348   5.761   7.818   5.135 -0.2985 -0.6401  0.0635
   53MOL   C12529349   5.676   7.834   5.249 -0.0677  0.2161 -0.3714
   53MOL   C12629350   5.678   7.708   5.340 -0.5821  0.6694 -0.5687
   53MOL   O12729351   5.954   7.843   5.263  0.5842 -0.0880 -0.2407
   53MOL   C12829352   5.886   7.900   4.909 -0.3009  0.2672  0.0846
   53MOL   C12929353   5.952   7.944   4.791 -0.1664  0.2416  0.3161
   53MOL   C13029354   5.878   7.998   4.682  1.0492 -0.6140  0.0951
   53MOL   C13129355   5.941   8.033   4.558 -0.1122  0.0921  0.1686
   53MOL   H13229356   6.257   7.937   4.637 -0.8523 -0.1370 -0.3567
   53MOL   H13329357   6.273   7.904   4.883  0.2530  0.0184 -0.5601
   53MOL   H13429358   6.164   7.845   5.105 -0.3561  0.4859  0.3913
   53MOL   H13529359   5.570   7.845   5.225  0.5360 -0.7559 -3.7359
   53MOL   H13629360   5.697   7.928   5.300 -1.8557  0.8353 -0.7399
   53MOL   H13729361   5.771   7.694   5.397 -0.4947 -4.7556 -1.7742
   53MOL   H13829362   5.608   7.707   5.424  0.5800 -0.1415  0.4202
   53MOL   H13929363   5.779   7.887   4.907 -0.2284 -0.1665 -1.3053
   53MOL   H14029364   5.771   8.013   4.685  1.2717  1.2283 -0.6154
   53MOL   H14129365   5.875   8.061   4.478 -0.1497 -0.9617 -0.1791
   53MOL   O14229366   5.661   7.453   5.425 -0.6058 -0.1463 -0.3463
   53MOL   C14329367   5.637   7.470   5.307 -0.3566 -0.1538 -0.1337
   53MOL   O14429368   5.650   7.598   5.250 -0.3317  0.9245  0.0792
   53MOL   C14529369   5.580   7.369   5.218  0.0345  0.6500 -0.7047
   53MOL   C14629370   5.545   7.406   5.086 -0.0527 -0.4280  0.1286
   53MOL   C14729371   5.506   7.306   4.999 -1.2464 -0.1932 -0.1772
   53MOL   C14829372   5.470   7.341   4.869  0.7783 -0.6737  0.1257
   53MOL   C14929373   5.431   7.240   4.776  0.5393  0.2079  0.1886
   53MOL   C15029374   5.428   7.105   4.816  0.4248  0.8747 -0.8177
   53MOL   C15129375   5.378   6.998   4.719  0.4634 -0.7819  0.5755
   53MOL   O15229376   5.329   7.050   4.604 -0.5697 -0.1365  0.1563
   53MOL   C15329377   5.247   6.967   4.523  0.5592  0.6544  0.1216
   53MOL   C15429378   5.103   7.001   4.548 -0.3037 -0.0791  0.0911
   53MOL   O15529379   5.386   6.878   4.743  0.1037 -0.3388  0.2318
   53MOL   C15629380   5.445   7.075   4.953 -1.1114  0.1378  0.1623
   53MOL   C15729381   5.487   7.172   5.043 -0.5744 -0.3722 -0.7993
   53MOL   C15829382   5.518   7.130   5.174  0.3167  0.8039  0.0636
   53MOL   C15929383   5.561   7.232   5.262  0.0258  0.2071  0.2483
   53MOL   H16029384   5.556   7.508   5.053  1.3186 -0.4153  0.5815
   53MOL   H16129385   5.487   7.446   4.848 -0.9496 -0.5776 -0.8196
   53MOL   H16229386   5.405   7.265   4.675  3.2198 -1.7231 -1.0511
   53MOL   H16329387   5.275   6.862   4.539  0.6736  0.2622 -2.4056
   53MOL   H16429388   5.274   6.975   4.417 -0.0961  0.8368 -0.0340
   53MOL   H16529389   5.088   7.106   4.523  0.9713  0.7517  2.5710
   53MOL   H16629390   5.041   6.938   4.485 -1.2584 -0.2002  1.1271
   53MOL   H16729391   5.426   6.972   4.981  3.2492 -1.0257 -0.7339
   53MOL   H16829392   5.515   7.026   5.204 -1.8650  0.5311 -1.0396
   53MOL   H16929393   5.583   7.208   5.365  1.1633  1.6142  0.3556
   53MOL   O17029394   4.868   7.113   4.637 -0.7596 -0.3683  0.2813
   53MOL   C17129395   4.945   7.060   4.721 -0.2860 -0.8887 -0.1129
   53MOL   O17229396   5.057   6.989   4.684  0.1929  0.1024  0.2038
   53MOL   C17329397   4.911   7.049   4.868 -0.2269  0.5559 -0.5481
   53MOL   C17429398   4.789   7.095   4.924 -0.5934 -0.5786  0.8499
   53MOL   C17529399   4.769   7.104   5.060 -0.0611 -1.0051 -0.6007
   53MOL   C17629400   4.657   7.173   5.119 -0.0895  0.2247  0.1629
   53MOL   C17729401   4.643   7.183   5.262 -0.7250 -1.0341 -0.2090
   53MOL   C17829402   4.738   7.124   5.344 -0.2546 -0.1333 -0.4236
   53MOL   C17929403   4.718   7.139   5.497 -0.1861  0.1183  0.3544
   53MOL   O18029404   4.833   7.119   5.565  0.0082  0.5982 -0.7051
   53MOL   C18129405   4.832   7.158   5.700 -0.2006  1.1124  0.2144
   53MOL   C18229406   4.782   7.035   5.777 -0.4118 -0.1200  0.0503
   53MOL   O18329407   4.614   7.188   5.541  0.4724 -0.3768 -0.2381
   53MOL   C18429408   4.849   7.059   5.287 -0.3648  0.2044 -0.6336
   53MOL   C18529409   4.869   7.048   5.153  0.1145 -0.1722  0.6313
   53MOL   C18629410   4.983   6.988   5.099  0.4926  0.6906 -0.0331
   53MOL   C18729411   5.005   6.996   4.963 -0.5294  0.2021  1.0100
   53MOL   H18829412   4.728   7.142   4.849  2.1684  0.8438 -0.5812
   53MOL   H18929413   4.585   7.193   5.041  0.8186 -3.0394 -1.5831
   53MOL   H19029414   4.550   7.225   5.299  0.5540  1.1144  0.6556
   53MOL   H19129415   4.783   7.253   5.720  1.8621  2.0745  0.8474
   53MOL   H19229416   4.932   7.187   5.733 -0.4802  0.5071  1.6653
   53MOL   H19329417   4.728   7.070   5.866 -0.4402 -0.9666  0.3725
   53MOL   H19429418   4.717   6.966   5.724  0.3653 -1.5888  0.9488
   53MOL   H19529419   4.931   7.025   5.348  1.5053  0.8161 -2.7411
   53MOL   H19629420   5.053   6.931   5.159  0.0023 -0.7426 -0.7895
   53MOL   H19729421   5.094   6.951   4.922 -0.7015  0.1654  0.6742
   53MOL   O19829422   4.907   6.820   5.657 -0.2680  0.4215  0.3529
   53MOL   C19929423   4.952   6.867   5.764  0.1805  0.3315 -0.1018
   53MOL   O20029424   4.898   6.974   5.817 -0.1405 -0.3838 -0.0259
   53MOL   C20129425   5.070   6.818   5.834  0.1389 -0.0627  0.3115
   53MOL   C20229426   5.129   6.910   5.927 -0.5584 -0.1122 -0.1652
   53MOL   C20329427   5.221   6.865   6.021  0.2168  1.0769 -0.3474
   53MOL   C20429428   5.277   6.959   6.109  0.2026  0.0317 -1.2025
   53MOL   C20529429   5.373   6.920   6.206 -0.5428 -0.1277 -0.7645
   53MOL   C20629430   5.416   6.784   6.210  0.5232  0.3308  0.2163
   53MOL   C20729431   5.525   6.738   6.298 -0.8071  1.0297 -0.2348
   53MOL   O20829432   5.525   6.802   6.416  0.1973  0.3409 -0.4776
   53MOL   C20929433   5.616   6.775   6.520  0.8083  0.7232  0.3218
   53MOL   C21029434   5.744   6.853   6.503  0.3164 -0.0962  0.4296
   53MOL   O21129435   5.608   6.644   6.274  0.4558 -0.1231 -0.2557
   53MOL   C21229436   5.363   6.691   6.116  0.4003 -0.0130  0.0677
   53MOL   C21329437   5.266   6.732   6.018  0.2010  0.8663 -0.2532
   53MOL   C21429438   5.209   6.644   5.922  0.5070 -0.6623 -0.7580
   53MOL   C21529439   5.107   6.686   5.836 -0.6538  0.5097 -0.3834
   53MOL   H21629440   5.102   7.014   5.916  0.5734  0.4019  1.6005
   53MOL   H21729441   5.246   7.062   6.099  0.2453  0.0938 -0.6998
   53MOL   H21829442   5.423   6.997   6.264  1.5923 -0.9279 -1.4776
   53MOL   H21929443   5.641   6.669   6.515 -0.3314  0.4528  0.2582
   53MOL   H22029444   5.575   6.797   6.619 -0.0818 -0.0459  0.1261
   53MOL   H22129445   5.733   6.959   6.477  2.5746 -0.0123 -0.2733
   53MOL   H22229446   5.794   6.854   6.599  2.8739 -1.1905 -0.8624
   53MOL   H22329447   5.396   6.588   6.124  2.0279  0.4184 -0.8223
   53MOL   H22429448   5.249   6.544   5.905  0.8393 -0.3141 -2.0779
   53MOL   H22529449   5.066   6.615   5.765 -0.4581 -1.9952  1.9059
   53MOL   O22629450   5.885   6.629   6.575 -0.2010  0.1384  0.5476
   53MOL   C22729451   5.888   6.670   6.457  0.6468 -0.7096 -1.1643
   53MOL   O22829452   5.822   6.777   6.417  0.6428 -0.4389  0.8482
   53MOL   C22929453   5.952   6.600   6.344 -0.2972 -0.2914  0.2942
   53MOL   C23029454   5.991   6.670   6.228 -0.4257  0.0758  0.4945
   53MOL   C23129455   6.050   6.603   6.123 -0.0310 -0.7136  0.2378
   53MOL   C23229456   6.087   6.677   6.007 -0.1390  0.0747 -0.2496
   53MOL   C23329457   6.150   6.612   5.903  0.4221  0.0775 -0.3458
   53MOL   C23429458   6.161   6.474   5.911 -0.5177  0.4461 -0.3528
   53MOL   C23529459   6.214   6.403   5.784  0.4099 -0.4851  0.0722
   53MOL   O23629460   6.261   6.484   5.692  0.1782 -0.4975  0.1781
   53MOL   C23729461   6.321   6.433   5.574 -0.2492  0.2151  0.1036
   53MOL   C23829462   6.453   6.347   5.604  0.3909  0.1090  0.5252
   53MOL   O23929463   6.219   6.281   5.774  0.1596  0.1182  0.2575
   53MOL   C24029464   6.121   6.398   6.020 -1.2837  0.2718 -0.8062
   53MOL   C24129465   6.071   6.463   6.133  0.2732  0.3121  0.2530
   53MOL   C24229466   6.041   6.389   6.249  0.0632 -0.6636 -1.1672
   53MOL   C24329467   5.976   6.459   6.351  0.4892  0.3310  0.1695
   53MOL   H24429468   5.976   6.777   6.221 -0.2190  0.0954  0.3434
   53MOL   H24529469   6.068   6.782   5.990  1.7561  0.1886 -1.7850
   53MOL   H24629470   6.185   6.677   5.824  3.4479  0.7063  1.4295
   53MOL   H24729471   6.354   6.504   5.498 -0.1518 -1.9274 -1.9485
   53MOL   H24829472   6.253   6.374   5.512  0.3315  1.2265 -1.5333
   53MOL   H24929473   6.422   6.250   5.642 -0.5404  0.1914 -0.0049
   53MOL   H25029474   6.512   6.328   5.515 -0.1716 -3.6552  0.8849
   53MOL   H25129475   6.135   6.291   6.015  0.4482  0.2661  2.4896
   53MOL   H25229476   6.061   6.283   6.260 -0.7754 -0.5546  2.1918
   53MOL   H25329477   5.943   6.414   6.443 -0.3187  1.0630  0.2457
   53MOL   O25429478   6.659   6.223   5.742  0.0651 -0.4701  0.0836
   53MOL   C25529479   6.618   6.334   5.778 -0.3547  0.3849 -0.0561
   53MOL   O25629480   6.527   6.409   5.707  0.2664  0.1532 -0.5748
   53MOL   C25729481   6.663   6.397   5.900 -0.2007  0.5167  0.3063
   53MOL   C25829482   6.594   6.508   5.948 -0.4211 -0.4802  0.1339
   53MOL   C25929483   6.647   6.577   6.058  0.2481  0.0993  0.4408
   53MOL   C26029484   6.571   6.690   6.107 -0.5837  0.1426 -0.2613
   53MOL   C26129485   6.628   6.777   6.204  0.1912  0.2049 -0.1316
   53MOL   C26229486   6.754   6.743   6.257  0.1495  0.1837 -0.1268
   53MOL   C26329487   6.817   6.838   6.348  0.7060 -0.1381  0.2165
   53MOL   O26429488   6.925   6.792   6.405 -0.8512  0.1149 -0.0320
   53MOL   C26529489   7.007   6.874   6.485 -0.1291 -0.5349 -1.7161
   53MOL   C26629490   6.948   6.919   6.623  0.8760  0.1853  0.2863
   53MOL   O26729491   6.770   6.953   6.359  0.0941 -0.2823 -0.7857
   53MOL   C26829492   6.817   6.621   6.225  0.0197  0.5605  0.5700
   53MOL   C26929493   6.769   6.541   6.117 -0.7408  0.6956 -0.3401
   53MOL   C27029494   6.831   6.421   6.077 -0.9894 -0.1708 -0.2406
   53MOL   C27129495   6.778   6.346   5.969  0.8916 -0.2581  0.3332
   53MOL   H27229496   6.502   6.550   5.910  0.6016  2.5069  0.8514
   53MOL   H27329497   6.473   6.718   6.071 -1.0104 -0.2613  0.5779
   53MOL   H27429498   6.580   6.868   6.237  0.4748 -0.3020  1.7132
   53MOL   H27529499   7.025   6.970   6.438  1.3015  0.0390 -0.0808
   53MOL   H27629500   7.107   6.831   6.496 -0.2990 -1.0729 -2.2540
   53MOL   H27729501   6.896   7.014   6.608 -0.5398 -0.4895  0.8246
   53MOL   H27829502   6.869   6.848   6.648  2.1677 -1.3219  0.2017
   53MOL   H27929503   6.910   6.592   6.271  0.6154  1.2541 -0.1743
   53MOL   H28029504   6.923   6.382   6.117 -1.4689 -0.8865  0.1887
   53MOL   H28129505   6.821   6.250   5.946  1.6317 -0.4880  2.5541
   53MOL   O28229506   6.952   7.039   6.865  0.2294 -0.1108  0.1702
   53MOL   C28329507   7.043   6.959   6.837  0.3805 -0.5509  0.4228
   53MOL   O28429508   7.048   6.892   6.719 -1.0967  0.3654 -0.0344
   53MOL   C28529509   7.156   6.927   6.929 -0.8638  0.1828 -0.0647
   53MOL   C28629510   7.273   6.874   6.879 -0.0390 -0.2991  0.2910
   53MOL   C28729511   7.378   6.836   6.961 -0.4996 -0.4426 -0.2909
   53MOL   C28829512   7.491   6.771   6.903 -0.3077  0.1373 -0.4301
   53MOL   C28929513   7.596   6.732   6.991 -0.1175 -0.2308 -0.1204
   53MOL   C29029514   7.588   6.762   7.129 -0.1835  0.2751  0.5352
   53MOL   C29129515   7.698   6.729   7.224 -0.3198 -0.1998 -0.9338
   53MOL   O29229516   7.824   6.706   7.164  0.0325 -0.8929 -0.6614
   53MOL   C29329517   7.938   6.679   7.242  0.0181  0.8110  0.4858
   53MOL   C29429518   7.969   6.533   7.270  0.1889 -0.4062 -0.1616
   53MOL   O29529519   7.688   6.722   7.349  0.2941 -0.4913  0.6886
   53MOL   C29629520   7.477   6.831   7.185  0.1805 -0.7339  0.5248
   53MOL   C29729521   7.373   6.868   7.097 -0.6055 -0.2023  0.3890
   53MOL   C29829522   7.254   6.928   7.147  0.4235 -0.2248  0.9082
   53MOL   C29929523   7.143   6.958   7.064  0.6026  0.0883  0.1969
   53MOL   H30029524   7.275   6.859   6.772  2.4516 -1.2160  0.4156
   53MOL   H30129525   7.493   6.750   6.797 -0.9517  2.6721 -0.9654
   53MOL   H30229526   7.694   6.702   6.958 -0.0159 -0.8571  0.7390
   53MOL   H30329527   7.930   6.718   7.344 -2.2081 -0.6801  0.9156
   53MOL   H30429528   8.029   6.725   7.203  1.1183 -1.4271  0.3367
   53MOL   H30529529   7.881   6.479   7.235 -1.3525  0.0315  2.9066
   53MOL   H30629530   8.046   6.490   7.205 -1.8297 -3.8720 -0.3868
   53MOL   H30729531   7.465   6.853   7.290 -1.9915  1.0074 -0.0400
   53MOL   H30829532   7.251   6.954   7.252 -0.4368  0.8904  0.6112
   53MOL   H30929533   7.052   6.997   7.107 -0.5909 -1.5678 -0.7687
   53MOL   O31029534   8.105   6.341   7.414  0.3818  0.7373  0.4875
   53MOL   C31129535   8.042   6.431   7.474 -0.0662  0.6020  0.6272
   53MOL   O31229536   7.974   6.518   7.411 -0.2662  0.0578 -0.6088
   53MOL   C31329537   8.060   6.456   7.620  0.3392 -0.0558 -0.3659
   53MOL   C31429538   7.999   6.569   7.681 -0.0661  0.0821  0.6894
   53MOL   C31529539   8.022   6.596   7.811 -0.7053 -0.5712 -0.6057
   53MOL   C31629540   7.960   6.706   7.875 -0.0568  0.1069  0.2542
   53MOL   C31729541   7.986   6.748   8.004 -0.7307 -0.1251 -0.0070
   53MOL   C31829542   8.071   6.672   8.081 -0.0484 -0.2078  0.1869
   53MOL   C31929543   8.079   6.708   8.223 -0.2317  0.8721  0.6925
   53MOL   O32029544   8.024   6.829   8.247  0.9173  0.2773 -0.9603
   53MOL   C32129545   8.052   6.903   0.119 -0.2230 -0.0980 -0.1795
   53MOL   C32229546   8.000   7.045   0.070 -0.7672  0.4492 -0.4642
   53MOL   O32329547   8.131   6.635   0.062 -0.0934  0.0748  0.3006
   53MOL   C32429548   8.143   6.564   8.025  0.1044  0.5499 -0.2014
   53MOL   C32529549   8.114   6.525   7.888  0.7957  0.3905 -0.1500
   53MOL   C32629550   8.188   6.416   7.833  0.4745  0.7447  0.2566
   53MOL   C32729551   8.160   6.385   7.695  0.8829 -0.0092  0.0421
   53MOL   H32829552   7.928   6.628   7.625 -0.2162 -1.3402 -0.6668
   53MOL   H32929553   7.897   6.766   7.810  1.6508  1.5627 -0.0838
   53MOL   H33029554   7.933   6.832   8.046  0.5684  0.7127 -0.0401
   53MOL   H33129555   8.150   6.895   0.166 -1.6432 -0.5403  2.7938
   53MOL   H33229556   7.991   6.854   0.194  0.2396  1.7243  1.4223
   53MOL   H33329557   8.069   7.065   8.238 -0.2272 -0.0322 -0.1350
   53MOL   H33429558   7.905   7.038   0.016 -0.8091  0.6093 -0.4109
   53MOL   H33529559   8.211   6.511   8.089  1.4188  2.0239 -0.3520
   53MOL   H33629560   0.017   6.362   7.885 -0.8607 -2.3205 -0.8633
   53MOL   H33729561   8.215   6.305   7.647  2.4281  1.3246 -0.4730
   53MOL   O33829562   7.897   7.038   0.309  0.1912  0.4613 -0.5558
   53MOL   C33929563   7.943   7.142   0.276 -0.1159  0.2534  0.7741
   53MOL   O34029564   8.002   7.160   0.155  0.6879  0.0546  0.0246
   53MOL   C34129565   7.943   7.262   0.361  0.5614  0.1201 -0.5374
   53MOL   C34229566   7.999   7.384   0.317 -0.3774  0.8944  0.4300
   53MOL   C34329567   8.001   7.490   0.403 -0.3691  0.1551  0.1349
   53MOL   C34429568   8.054   7.613   0.357  0.5299 -0.4726 -0.3213
   53MOL   C34529569   8.052   7.727   0.438 -0.1516  0.2795  0.0781
   53MOL   C34629570   8.019   7.713   0.576  0.0023  0.5593  0.1306
   53MOL   C34729571   8.028   7.831   0.659 -0.1073 -0.2460  0.1645
   53MOL   O34829572   7.954   7.822   0.768 -0.1460 -0.6885  0.4535
   53MOL   C34929573   7.948   7.941   0.850  0.5574  0.4763 -0.6289
   53MOL   C35029574   7.929   7.897   0.998  0.4523 -1.0037 -0.0696
   53MOL   O35129575   8.091   7.935   0.631 -0.0836  0.1714  0.1191
   53MOL   C35229576   7.984   7.583   0.625  0.2430  0.3509  0.0778
   53MOL   C35329577   7.960   7.480   0.537  0.5469  0.7769  0.4134
   53MOL   C35429578   7.904   7.359   0.583 -0.4744  0.1384 -0.2855
   53MOL   C35529579   7.891   7.255   0.493 -0.2534  0.1258  0.6547
   53MOL   H35629580   8.037   7.391   0.217 -1.4471 -0.8268 -0.1211
   53MOL   H35729581   8.091   7.619   0.256  2.6075 -0.3590  0.4224
   53MOL   H35829582   8.097   7.816   0.395 -0.7187  1.3572  1.6647
   53MOL   H35929583   7.858   8.001   0.834  0.3691  1.0042  2.0664
   53MOL   H36029584   8.043   7.992   0.841  2.1634 -1.7179  2.6371
   53MOL   H36129585   7.994   7.820   1.041 -1.0105 -1.3765  1.5320
   53MOL   H36229586   7.967   7.989   1.043  2.3077 -1.2835 -1.0145
   53MOL   H36329587   7.951   7.578   0.728  0.0680 -0.1477 -0.0004
   53MOL   H36429588   7.878   7.342   0.686  0.8080 -0.7592 -0.1031
   53MOL   H36529589   7.851   7.161   0.527 -0.2539 -0.4908 -1.0112
   53MOL   O36629590   7.856   7.911   1.258  0.3106  0.0061 -0.2176
   53MOL   C36729591   7.766   7.887   1.175  0.3012 -0.2318 -0.0047
   53MOL   O36829592   7.789   7.891   1.042  0.0977  0.2011  0.0713
   53MOL   C36929593   7.626   7.850   1.215 -0.3273 -0.1941 -0.2613
   53MOL   C37029594   7.537   7.814   1.116  0.0070 -0.1307 -0.1482
   53MOL   C37129595   7.404   7.777   1.150 -0.7501 -0.0875 -0.6478
   53MOL   C37229596   7.312   7.750   1.049  0.3774 -0.2677 -0.4766
   53MOL   C37329597   7.186   7.699   1.082  0.2008  0.5874  0.3318
   53MOL   C37429598   7.153   7.669   1.222 -1.0331  0.4437  0.7732
   53MOL   C37529599   7.017   7.618   1.253  0.5608  0.0043 -0.5514
   53MOL   O37629600   6.999   7.580   1.377  0.0619 -0.7307  0.4170
   53MOL   C37729601   6.867   7.545   1.422 -0.1080 -0.3492 -0.1515
   53MOL   C37829602   6.829   7.401   1.386  0.4903  0.1893  0.5826
   53MOL   O37929603   6.923   7.617   1.170 -0.2414 -0.5336 -0.5756
   53MOL   C38029604   7.248   7.695   1.321  0.5457  0.0797  0.0461
   53MOL   C38129605   7.366   7.762   1.282 -0.8311 -0.0999 -0.1225
   53MOL   C38229606   7.461   7.797   1.385  0.1263  0.6143  0.0702
   53MOL   C38329607   7.591   7.846   1.353 -0.0428  0.0561  0.7193
   53MOL   H38429608   7.566   7.804   1.013 -0.8209 -0.2756 -0.3710
   53MOL   H38529609   7.330   7.763   0.943 -1.1145  0.6478 -0.6179
   53MOL   H38629610   7.116   7.691   1.001  0.6521  1.0455 -0.1011
   53MOL   H38729611   6.788   7.609   1.383 -0.6464 -1.8409 -1.5527
   53MOL   H38829612   6.871   7.573   1.527 -0.0195  2.2721 -0.8202
   53MOL   H38929613   6.834   7.384   1.278 -0.6547  1.6758  0.2868
   53MOL   H39029614   6.902   7.335   1.433  1.0358  1.8762  2.1684
   53MOL   H39129615   7.234   7.685   1.428  1.6399  3.3507  0.5670
   53MOL   H39229616   7.440   7.782   1.490  0.2242 -0.0772 -0.0076
   53MOL   H39329617   7.668   7.874   1.422  2.2594 -1.0498 -1.3296
   53MOL   O39429618   6.695   7.157   1.352 -0.4626  0.5458 -0.4468
   53MOL   C39529619   6.637   7.252   1.407  0.4357  0.6460 -0.3669
   53MOL   O39629620   6.697   7.374   1.425 -0.6509  0.6083 -0.1728
   53MOL   C39729621   6.507   7.248   1.467 -0.0526  0.4073 -0.4492
   53MOL   C39829622   6.458   7.124   1.505  0.2916 -0.7830  0.0669
   53MOL   C39929623   6.342   7.114   1.579  1.0107 -0.2935  0.0410
   53MOL   C40029624   6.296   6.988   1.626  0.5502  0.5748 -0.5686
   53MOL   C40129625   6.172   6.984   1.699 -0.4944 -0.3934  0.0506
   53MOL   C40229626   6.092   7.093   1.725  0.3114 -0.1456  0.0347
   53MOL   C40329627   5.966   7.097   1.813  0.4479 -0.5249  0.0547
   53MOL   O40429628   5.934   6.969   1.847 -0.6582  0.7700  0.5657
   53MOL   C40529629   5.823   6.940   1.926  0.2654  0.8805 -0.1751
   53MOL   C40629630   5.704   6.907   1.842  0.0060 -0.2556  0.0125
   53MOL   O40729631   5.902   7.195   1.846  0.2158 -0.1037 -0.1507
   53MOL   C40829632   6.141   7.215   1.676 -0.7078 -0.2852 -0.2714
   53MOL   C40929633   6.260   7.233   1.599 -0.1165 -0.2080  0.2575
   53MOL   C41029634   6.310   7.356   1.556 -0.0190 -0.4306  0.0239
   53MOL   C41129635   6.432   7.362   1.491 -0.6375  0.2387 -0.6046
   53MOL   H41229636   6.508   7.029   1.489  1.4305 -0.0206 -0.8918
   53MOL   H41329637   6.360   6.903   1.609 -0.5780 -0.0728 -1.6440
   53MOL   H41429638   6.133   6.892   1.741  0.9447 -1.4741 -0.9362
   53MOL   H41529639   5.809   7.018   2.001  2.0736  0.4166  0.6527
   53MOL   H41629640   5.847   6.850   1.982 -0.4923  1.1736  0.6449
   53MOL   H41729641   5.612   6.921   1.899 -0.8165 -1.2007 -1.0654
   53MOL   H41829642   5.694   6.983   1.765 -0.2529 -0.2959  0.0068
   53MOL   H41929643   6.077   7.297   1.705 -0.8903 -0.8378  0.8872
   53MOL   H42029644   6.265   7.452   1.574 -1.2595 -0.8643 -0.6985
   53MOL   H42129645   6.458   7.463   1.460 -0.3355  0.1270 -0.7182
   53MOL   O42229646   5.650   6.671   1.974  0.1009 -0.0579 -0.6997
   53MOL   C42329647   5.688   6.669   1.861 -0.9119  0.3109 -0.7880
   53MOL   O42429648   5.712   6.780   1.791 -0.3562 -0.7348 -0.1405
   53MOL   C42529649   5.693   6.545   1.783  0.2223 -0.2526 -0.0423
   53MOL   C42629650   5.618   6.434   1.813  0.4972  0.0140 -0.0298
   53MOL   C42729651   5.637   6.313   1.741  0.4869  0.2327  0.2122
   53MOL   C42829652   5.558   6.195   1.760 -0.2473 -0.7615  0.1718
   53MOL   C42929653   5.596   6.079   1.688  0.5768  0.0557 -0.1336
   53MOL   C43029654   5.708   6.080   1.598  0.7950 -0.0468 -0.0933
   53MOL   C43129655   5.747   5.955   1.526  0.0008  0.3984  0.3183
   53MOL   O43229656   5.697   5.844   1.587  0.2739 -0.1397  0.0562
   53MOL   C43329657   5.708   5.714   1.526 -0.3286  0.1681  0.5533
   53MOL   C43429658   5.620   5.687   1.400 -0.5365 -0.0696 -0.3763
   53MOL   O43529659   5.821   5.954   1.422  1.0540  0.0760 -0.4604
   53MOL   C43629660   5.780   6.199   1.570 -0.2659 -0.0912 -0.8607
   53MOL   C43729661   5.740   6.312   1.642  0.2205 -0.5799  0.3902
   53MOL   C43829662   5.814   6.425   1.616  0.4789 -0.2844  0.5343
   53MOL   C43929663   5.788   6.542   1.681 -0.0868  0.1210 -0.2948
   53MOL   H44029664   5.546   6.438   1.894 -0.6713 -1.6341 -0.9709
   53MOL   H44129665   5.472   6.196   1.825 -0.8843  0.7246 -0.6679
   53MOL   H44229666   5.540   5.987   1.684 -1.8727  1.5886 -2.0818
   53MOL   H44329667   5.694   5.639   1.604  4.2012 -1.0153  0.3863
   53MOL   H44429668   5.810   5.688   1.498  0.7629  0.6889  3.7942
   53MOL   H44529669   5.652   5.740   1.310  1.5648 -0.6516 -0.0102
   53MOL   H44629670   5.636   5.582   1.374  1.3840 -0.3101  1.5763
   53MOL   H44729671   5.867   6.208   1.507  0.1585 -1.1644 -0.4303
   53MOL   H44829672   5.894   6.420   1.544  1.1695  0.3316  1.2478
   53MOL   H44929673   5.847   6.628   1.651  1.5558 -0.8374  0.1621
   53MOL   O45029674   5.405   5.598   1.254  0.0565 -0.2976  0.1549
   53MOL   C45129675   5.391   5.673   1.349 -0.3887 -0.4271  0.2965
   53MOL   O45229676   5.486   5.720   1.434  0.5754  0.0091 -0.0163
   53MOL   C45329677   5.260   5.742   1.377 -0.4933 -0.7928  0.3473
   53MOL   C45429678   5.146   5.712   1.302  0.1295  0.0155  0.0448
   53MOL   C45529679   5.033   5.793   1.300  0.4793  0.0155 -0.0704
   53MOL   C45629680   4.932   5.775   1.203  0.0527 -0.6467 -0.0774
   53MOL   C45729681   4.819   5.864   1.201 -0.2060 -0.1658 -0.8142
   53MOL   C45829682   4.811   5.968   1.297 -0.2558  0.6882  0.0890
   53MOL   C45929683   4.699   6.064   1.290 -0.0483  0.2186  0.7135
   53MOL   O46029684   4.678   6.128   1.402  0.0139 -0.0859 -0.0882
   53MOL   C46129685   4.590   6.244   1.404 -0.8730  0.8091  0.5809
   53MOL   C46229686   4.565   6.292   1.552 -0.1642 -0.0535  0.3257
   53MOL   O46329687   4.640   6.091   1.187  0.3039 -0.2399  0.5641
   53MOL   C46429688   4.910   5.982   1.393  0.3635 -0.4150 -0.2233
   53MOL   C46529689   5.028   5.900   1.393 -0.0843  0.7476  1.0223
   53MOL   C46629690   5.135   5.923   1.483 -0.5216  0.2985 -0.5744
   53MOL   C46729691   5.251   5.851   1.465  0.7133  0.0781  0.3528
   53MOL   H46829692   5.153   5.632   1.230 -0.3135 -0.1486  0.1802
   53MOL   H46929693   4.934   5.720   1.110 -1.4047  0.1907 -0.6215
   53MOL   H47029694   4.741   5.848   1.129  0.7503 -3.2993 -1.2286
   53MOL   H47129695   4.493   6.217   1.363  0.8842  0.0043 -3.2674
   53MOL   H47229696   4.619   6.323   1.334  0.5275  0.1433  0.3837
   53MOL   H47329697   4.497   6.375   1.566 -1.9833 -1.9132  2.8689
   53MOL   H47429698   4.511   6.207   1.594  0.0368 -0.6112 -0.5164
   53MOL   H47529699   4.915   6.067   1.459  0.0839 -0.3039 -0.3465
   53MOL   H47629700   5.131   5.996   1.562 -0.9758 -0.2675 -0.0600
   53MOL   H47729701   5.321   5.869   1.546  0.3096  0.4943  0.6084
   53MOL   O47829702   4.781   6.467   1.500  0.7340 -0.1844 -0.2388
   53MOL   C47929703   4.781   6.397   1.600 -0.1785 -0.2776 -0.0827
   53MOL   O48029704   4.681   6.313   1.639  0.2514 -0.1360  0.2695
   53MOL   C48129705   4.899   6.380   1.687 -0.9930  0.8430  0.2788
   53MOL   C48229706   4.900   6.294   1.800 -0.5468  0.3219  0.6916
   53MOL   C48329707   5.014   6.293   1.883  0.1601 -0.0182  0.0409
   53MOL   C48429708   5.007   6.206   1.991  0.2176 -0.9326 -0.2370
   53MOL   C48529709   5.119   6.209   2.083  0.0397  0.2289 -0.6300
   53MOL   C48629710   5.237   6.277   2.055  0.2550  0.0319  0.4098
   53MOL   C48729711   5.352   6.266   2.153 -0.1882  0.8224  0.0190
   53MOL   O48829712   5.442   6.367   2.142  0.8822 -0.6097  0.4217
   53MOL   C48929713   5.544   6.382   2.243 -0.4940  0.2915 -0.1538
   53MOL   C49029714   5.661   6.290   2.221  0.8831  0.7490  0.3649
   53MOL   O49129715   5.367   6.171   2.234  0.1956 -0.3960 -0.3696
   53MOL   C49229716   5.240   6.362   1.944  0.8597 -0.4188 -0.1304
   53MOL   C49329717   5.133   6.371   1.852 -0.5337  1.0023  0.0277
   53MOL   C49429718   5.131   6.461   1.746 -0.9182 -0.2422 -0.5675
   53MOL   C49529719   5.017   6.459   1.662  0.7024 -0.5955 -0.3898
   53MOL   H49629720   4.810   6.239   1.822  0.1608 -1.1035  0.0620
   53MOL   H49729721   4.928   6.132   1.982 -0.2249 -0.3573 -1.1626
   53MOL   H49829722   5.110   6.140   2.166 -0.2693  2.2626  1.0857
   53MOL   H49929723   5.493   6.353   2.335 -1.4287  0.9578 -0.4458
   53MOL   H50029724   5.558   6.490   2.253 -0.0891  0.1628  0.7070
   53MOL   H50129725   5.712   6.259   2.312  0.8074 -1.1644 -0.2253
   53MOL   H50229726   5.626   6.200   2.171  2.2177  0.2289  0.3515
   53MOL   H50329727   5.328   6.425   1.936  0.0058  0.7013 -0.7543
   53MOL   H50429728   5.218   6.522   1.727 -1.0181  0.0648 -0.0575
   53MOL   H50529729   5.019   6.519   1.572  1.4720 -1.9166 -1.2745
   53MOL   O50629730   5.845   6.488   2.301  0.1355 -0.0543 -0.2915
   53MOL   C50729731   5.838   6.445   2.188  0.7594 -0.8809 -0.1071
   53MOL   O50829732   5.754   6.351   2.141  0.2421  0.5540 -0.1194
   53MOL   C50929733   5.933   6.486   2.078 -0.2488 -0.7422 -0.1917
   53MOL   C51029734   5.992   6.390   1.990  0.7065  0.2907 -0.0915
   53MOL   C51129735   6.081   6.425   1.881  0.0375 -0.3084 -0.3786
   53MOL   C51229736   6.127   6.332   1.790 -0.7582  0.3357 -0.2030
   53MOL   C51329737   6.218   6.368   1.688  0.7228 -0.2679 -0.3619
   53MOL   C51429738   6.261   6.504   1.681 -0.1316 -0.3402 -0.4305
   53MOL   C51529739   6.362   6.543   1.583  0.3104  0.2700  0.3039
   53MOL   O51629740   6.418   6.440   1.516  0.5181  0.5459 -0.1457
   53MOL   C51729741   6.524   6.472   1.428 -0.4970 -0.5513  0.2007
   53MOL   C51829742   6.646   6.433   1.508 -0.6105 -0.9988 -0.3657
   53MOL   O51929743   6.394   6.662   1.564 -0.1671  0.5529 -0.5212
   53MOL   C52029744   6.210   6.604   1.769  0.2093 -0.2171  0.2947
   53MOL   C52129745   6.117   6.561   1.869  0.0156 -0.0619  0.1356
   53MOL   C52229746   6.075   6.654   1.964 -0.4348  0.2278 -0.7486
   53MOL   C52329747   5.987   6.615   2.074 -0.4575 -0.3354 -0.3880
   53MOL   H52429748   5.957   6.288   1.995 -0.7879  0.7624 -0.6144
   53MOL   H52529749   6.090   6.231   1.786 -1.9250  0.7046  0.6347
   53MOL   H52629750   6.248   6.298   1.611  0.3412 -1.4113  0.5116
   53MOL   H52729751   6.524   6.572   1.384 -0.8520 -0.8649 -0.5267
   53MOL   H52829752   6.516   6.408   1.340  0.3660 -2.9570  1.8259
   53MOL   H52929753   6.617   6.352   1.574 -1.2003 -0.8344 -0.4190
   53MOL   H53029754   6.722   6.389   1.444  1.1266  1.0761  0.1842
   53MOL   H53129755   6.240   6.708   1.772  0.5679 -0.3086 -0.1118
   53MOL   H53229756   6.109   6.757   1.958 -0.7041  0.5964  2.9065
   53MOL   H53329757   5.969   6.689   2.151 -1.1429 -0.2175 -0.6562
   53MOL   O53429758   6.796   6.643   1.403 -0.0401  0.6727  0.1514
   53MOL   C53529759   6.750   6.651   1.515 -0.0096 -0.4125 -0.6881
   53MOL   O53629760   6.681   6.551   1.572 -0.4074  0.0800  0.2981
   53MOL   C53729761   6.749   6.776   1.594  0.3434 -0.8423  0.3393
   53MOL   C53829762   6.715   6.782   1.730  0.0772  0.7651 -0.2147
   53MOL   C53929763   6.739   6.903   1.801  0.0303 -0.4075  0.4331
   53MOL   C54029764   6.709   6.907   1.939  0.2409 -0.9657  0.6889
   53MOL   C54129765   6.728   7.035   1.999 -0.0446  0.2436 -0.0157
   53MOL   C54229766   6.777   7.148   1.931  0.0410  0.1350 -0.0783
   53MOL   C54329767   6.787   7.281   1.997  1.0729 -0.1389 -0.3670
   53MOL   O54429768   6.712   7.289   2.115 -0.3848 -0.5706 -0.1620
   53MOL   C54529769   6.726   7.400   2.198 -0.2220 -0.2132 -0.2606
   53MOL   C54629770   6.585   7.467   2.222 -0.4052  0.1048 -0.5357
   53MOL   O54729771   6.861   7.367   1.952  0.1696 -0.7460 -0.0414
   53MOL   C54829772   6.805   7.138   1.793 -0.1505  0.0285  0.3749
   53MOL   C54929773   6.794   7.014   1.729 -0.3554 -0.6385  0.2053
   53MOL   C55029774   6.828   7.007   1.591 -0.4940  0.1513 -0.7346
   53MOL   C55129775   6.804   6.889   1.528 -0.0055  0.7818  0.0468
   53MOL   H55229776   6.674   6.694   1.778  0.3739  0.4761 -0.4871
   53MOL   H55329777   6.668   6.828   2.001  0.1724 -1.9600 -0.6075
   53MOL   H55429778   6.718   7.043   2.106  0.4190 -0.7519  0.1016
   53MOL   H55529779   6.793   7.477   2.163  1.0038 -1.1531 -0.0087
   53MOL   H55629780   6.771   7.365   2.291  1.3941  1.8970 -0.2333
   53MOL   H55729781   6.533   7.509   2.136  1.9822  2.0970 -1.0644
   53MOL   H55829782   6.609   7.550   2.288 -1.4901 -0.2154  0.2783
   53MOL   H55929783   6.838   7.224   1.737 -1.6892 -0.4893 -1.3870
   53MOL   H56029784   6.865   7.095   1.541  1.3688  0.6453  1.4275
   53MOL   H56129785   6.835   6.893   1.425 -1.3497  0.8775 -0.3594
   53MOL   H56229786   6.513   7.400   2.270 -0.1474 -0.3962 -0.8442
   54MOL     O129787   7.630   8.036   7.087 -0.1486  0.1508 -0.6624
   54MOL     C229788   7.567   8.072   6.985 -0.2395 -0.0851 -0.1728
   54MOL     O329789   7.504   7.985   6.898  0.0954  0.4935  0.0696
   54MOL     C429790   7.551   8.218   6.939  0.8332  0.2144  0.2056
   54MOL     C529791   7.573   0.078   7.031  0.0437 -0.2912  0.3493
   54MOL     C629792   7.569   0.209   6.982 -0.0560  0.7058  0.7343
   54MOL     C729793   7.595   0.318   7.068 -0.0630 -0.3208  0.5022
   54MOL     C829794   7.589   0.453   7.031  0.6700 -0.3449  0.9719
   54MOL     C929795   7.549   0.475   6.897  0.1562 -0.2957 -0.3065
   54MOL    C1029796   7.540   0.618   6.850  0.0501 -0.3837 -0.0446
   54MOL    O1129797   7.555   0.704   6.951 -0.4681 -0.3345 -0.3378
   54MOL    C1229798   7.540   0.841   6.924  0.1822 -0.5380 -0.0315
   54MOL    C1329799   7.660   0.923   6.965  0.0384 -0.9200 -0.3116
   54MOL    O1429800   7.500   0.648   6.737  0.0560 -0.1640  0.5412
   54MOL    C1529801   7.536   0.370   6.798  0.1542 -0.1465  0.6040
   54MOL    C1629802   7.545   0.238   6.846  0.6983  0.6058  0.4401
   54MOL    C1729803   7.513   0.131   6.760 -0.6113 -0.1729 -0.2274
   54MOL    C1829804   7.512   8.248   6.807 -0.1657  0.3364  0.2206
   54MOL    H1929805   7.591   0.065   7.137  2.7359  0.5886  0.0178
   54MOL    H2029806   7.626   0.296   7.170  0.4233  0.8917  0.6224
   54MOL    H2129807   7.614   0.530   7.103 -1.3459  0.6177  0.6962
   54MOL    H2229808   7.526   0.865   6.818 -0.3980  1.0280  0.3805
   54MOL    H2329809   7.449   0.882   6.968  1.1402 -0.8811  2.3129
   54MOL    H2429810   7.748   0.883   6.915  2.2630 -0.9791  3.4523
   54MOL    H2529811   7.643   1.020   6.918  1.4424 -0.2840  0.4443
   54MOL    H2629812   7.527   0.390   6.692  1.8683  1.3271  0.7123
   54MOL    H2729813   7.512   0.145   6.653 -0.4947  3.7305  0.2224
   54MOL    H2829814   7.487   8.171   6.736  1.1840 -0.3762  0.5136
   54MOL    H2929815   7.507   7.900   6.939  1.2145  0.3886 -0.2139
   54MOL    O3029816   7.625   1.137   7.144  0.0128  0.3588 -1.2702
   54MOL    C3129817   7.681   1.030   7.182 -0.0083 -0.2443 -0.1605
   54MOL    O3229818   7.683   0.923   7.106 -0.1992 -0.0998  0.4173
   54MOL    C3329819   7.748   1.004   7.314  0.3442 -0.1088 -0.1635
   54MOL    C3429820   7.783   1.109   7.401 -0.0846 -0.1582 -0.3478
   54MOL    C3529821   7.828   1.081   7.530 -0.9166  0.3200 -0.6474
   54MOL    C3629822   7.838   1.181   7.632 -0.1105  0.4593  0.1290
   54MOL    C3729823   7.892   1.152   7.759  0.1036  0.0084 -0.0966
   54MOL    C3829824   7.922   1.023   7.794 -0.7271  0.8441 -0.3943
   54MOL    C3929825   7.971   0.996   7.929  0.9509 -0.1953  0.5301
   54MOL    O4029826   8.009   0.866   7.953 -0.0153  0.6426 -0.2086
   54MOL    C4129827   8.054   0.809   8.076 -0.5855 -0.0797 -0.5477
   54MOL    C4229828   8.175   0.726   8.045 -1.2058 -0.1012 -0.2198
   54MOL    O4329829   7.987   1.078   8.019 -0.3964  0.2087  0.0860
   54MOL    C4429830   7.911   0.918   7.694 -1.2125 -1.1116  0.0534
   54MOL    C4529831   7.863   0.951   7.563  0.1071 -0.4026 -0.6163
   54MOL    C4629832   7.850   0.851   7.472  0.0452  0.5671  0.5267
   54MOL    C4729833   7.789   0.876   7.348 -0.5802 -0.2906 -0.8189
   54MOL    H4829834   7.749   1.209   7.379 -0.2074  0.3111  1.8484
   54MOL    H4929835   7.812   1.281   7.601  3.7533  0.9467 -1.8883
   54MOL    H5029836   7.899   1.232   7.832  2.3189 -0.4629  0.2374
   54MOL    H5129837   7.976   0.750   8.123 -0.2388 -0.8461 -0.9143
   54MOL    H5229838   8.085   0.886   8.146  0.5265  0.1061 -1.2257
   54MOL    H5329839   8.153   0.691   7.944 -2.2072  0.5159 -0.2185
   54MOL    H5429840   0.015   0.786   8.026 -0.8067 -0.0602  1.7106
   54MOL    H5529841   7.931   0.815   7.720 -1.0979 -0.8581  1.0161
   54MOL    H5629842   7.885   0.749   7.483  1.3284  0.6609 -2.2305
   54MOL    H5729843   7.773   0.795   7.278 -0.2767 -1.5694  0.5598
   54MOL    O5829844   8.054   0.484   8.042  0.2962  0.4894  0.1743
   54MOL    C5929845   8.133   0.510   8.127  0.4763 -0.9513 -0.2582
   54MOL    O6029846   8.199   0.624   8.137 -0.5314 -0.0069  0.0605
   54MOL    C6129847   8.167   0.419   8.238 -0.3562 -0.0543  0.1922
   54MOL    C6229848   8.232   0.470   0.102 -0.7235 -0.4338  0.6057
   54MOL    C6329849   0.023   0.388   0.205 -0.0591 -0.1304  0.0719
   54MOL    C6429850   0.093   0.440   0.312  0.0702  0.3175  0.6392
   54MOL    C6529851   0.098   0.357   0.429 -0.4535 -0.6397 -0.3357
   54MOL    C6629852   0.066   0.222   0.426  0.0669 -0.5006 -0.1998
   54MOL    C6729853   0.083   0.147   0.554 -0.6164 -0.5778  0.9219
   54MOL    O6829854   0.035   0.022   0.550 -0.3972 -0.0986 -0.0710
   54MOL    C6929855   0.014   8.191   0.662  0.1660  0.0657 -0.3776
   54MOL    C7029856   0.100   8.068   0.659  0.0029 -0.9610  0.8264
   54MOL    O7129857   0.153   0.190   0.646  0.3970  0.7050  0.0606
   54MOL    C7229858   0.016   0.164   0.312 -0.0416 -0.1284  0.7836
   54MOL    C7329859   8.236   0.248   0.201 -0.2173 -0.3459 -0.4627
   54MOL    C7429860   8.183   0.197   0.083 -0.3558  0.2289  0.3067
   54MOL    C7529861   8.145   0.276   8.225 -0.7033 -0.3097 -0.2812
   54MOL    H7629862   0.007   0.575   0.111 -1.1162 -0.4671  2.0671
   54MOL    H7729863   0.130   0.541   0.309  1.6590 -0.3239 -1.9448
   54MOL    H7829864   0.152   0.399   0.513  0.3596 -1.3914 -0.4720
   54MOL    H7929865   8.162   8.155   0.648  0.2130 -0.1950 -0.0649
   54MOL    H8029866   0.023   8.242   0.759 -2.7005 -1.8205  0.9236
   54MOL    H8129867   0.064   7.997   0.733 -0.6683 -3.1311 -1.4853
   54MOL    H8229868   0.086   8.030   0.557 -1.6973 -1.3437  1.1806
   54MOL    H8329869   8.228   0.063   0.307  1.9871 -0.8168 -0.5725
   54MOL    H8429870   8.144   0.096   0.082  0.6591 -0.1729  0.8018
   54MOL    H8529871   8.104   0.242   8.131 -0.1096 -0.4113 -0.5067
   54MOL    O8629872   0.264   7.994   0.876 -0.3782  0.3950 -0.2757
   54MOL    C8729873   0.303   8.062   0.783  0.2503 -0.5467 -0.1690
   54MOL    O8829874   0.230   8.107   0.678 -0.7177  0.0585 -0.2176
   54MOL    C8929875   0.443   8.111   0.770 -0.0764  0.0094 -0.2927
   54MOL    C9029876   0.540   8.079   0.870 -0.5224 -0.1514 -0.2662
   54MOL    C9129877   0.677   8.117   0.856  0.5570  0.5491 -0.3055
   54MOL    C9229878   0.768   8.097   0.961 -0.2201 -0.3208 -0.7373
   54MOL    C9329879   0.904   8.140   0.958 -0.0480  0.3364  0.5833
   54MOL    C9429880   0.942   8.217   0.849  0.0025 -0.8746  0.9948
   54MOL    C9529881   1.081   0.013   0.847 -0.4136 -0.4414 -0.6093
   54MOL    O9629882   1.123   0.055   0.720 -0.0692  0.3132 -0.0915
   54MOL    C9729883   1.257   0.117   0.693 -0.5693  0.5308 -0.6183
   54MOL    C9829884   1.262   0.274   0.711  0.0950 -0.0111  0.2039
   54MOL    O9929885   1.153   0.021   0.943  0.3590  0.1500 -1.0049
   54MOL   C10029886   0.847   0.007   0.750 -0.6232 -0.0794 -0.2326
   54MOL   C10129887   0.717   8.205   0.754 -0.4287  0.5407 -0.1633
   54MOL   C10229888   0.618   8.243   0.662 -0.0822  0.5048 -0.5229
   54MOL   C10329889   0.489   8.196   0.666  0.0652  0.0184  0.2587
   54MOL   H10429890   0.517   8.010   0.950 -0.0353  0.5839  0.5203
   54MOL   H10529891   0.732   8.054   1.053 -2.5107 -1.1488 -1.9550
   54MOL   H10629892   0.960   8.100   1.041  0.6382 -2.6319 -1.2654
   54MOL   H10729893   1.296   0.097   0.593  1.2510  1.4698 -0.1315
   54MOL   H10829894   1.334   0.074   0.757 -0.5684 -1.0039 -1.6502
   54MOL   H10929895   1.239   0.310   0.811  1.5519  1.9364 -0.1345
   54MOL   H11029896   1.362   0.314   0.694 -1.3606  3.0731 -1.3968
   54MOL   H11129897   0.863   0.075   0.668 -5.5189  0.2093 -1.1229
   54MOL   H11229898   0.650   0.053   0.577  1.5461  0.3818 -0.0161
   54MOL   H11329899   0.437   8.233   0.579 -0.0014 -1.6210 -0.4029
   54MOL   O11429900   1.276   0.285   0.446  0.4579 -0.0852  0.0135
   54MOL   C11529901   1.182   0.346   0.500  0.0780 -0.1948  0.6047
   54MOL   O11629902   1.161   0.341   0.633 -0.4019 -0.0704 -0.7101
   54MOL   C11729903   1.082   0.429   0.424 -0.2040  0.3357 -0.4846
   54MOL   C11829904   0.974   0.483   0.498  0.7990  0.1106  0.3698
   54MOL   C11929905   0.886   0.578   0.437  0.3288 -0.7211  0.2164
   54MOL   C12029906   0.792   0.635   0.522 -0.1565 -0.1130 -0.4006
   54MOL   C12129907   0.711   0.736   0.471 -0.6585  0.2052 -0.1473
   54MOL   C12229908   0.720   0.776   0.335 -0.4961  0.1541  0.4949
   54MOL   C12329909   0.635   0.886   0.283  0.0259  0.1373 -1.4569
   54MOL   O12429910   0.688   0.954   0.181  0.1059 -0.0433  0.2336
   54MOL   C12529911   0.629   1.072   0.131 -0.2806  0.4985  0.1482
   54MOL   C12629912   0.518   1.035   0.036 -0.4109 -0.7132 -0.7566
   54MOL   O12729913   0.527   0.918   0.334  0.0922  0.3093 -0.0154
   54MOL   C12829914   0.817   0.717   0.253  0.0725  0.4167  0.4793
   54MOL   C12929915   0.897   0.608   0.297  0.7848 -0.1335  0.1182
   54MOL   C13029916   0.996   0.532   0.217 -0.5749 -0.9224  0.3292
   54MOL   C13129917   1.091   0.444   0.281  0.3430 -0.0751 -0.0322
   54MOL   H13229918   0.960   0.455   0.601  0.2303 -1.1566 -0.0433
   54MOL   H13329919   0.786   0.612   0.627 -0.8210  0.3575 -0.3308
   54MOL   H13429920   0.648   0.797   0.535 -1.7303 -1.1874  0.1404
   54MOL   H13529921   0.709   1.114   0.069 -2.8188  2.7244 -1.7315
   54MOL   H13629922   0.605   1.150   0.203  0.4588  0.5229  0.3731
   54MOL   H13729923   0.514   0.929   0.009 -0.0884 -0.6508 -1.0534
   54MOL   H13829924   0.424   1.051   0.090 -0.5562  1.4398 -1.6025
   54MOL   H13929925   0.821   0.744   0.148 -0.0166  2.0523  0.8949
   54MOL   H14029926   1.003   0.551   0.111 -1.0854 -1.9720  0.1027
   54MOL   H14129927   1.155   0.376   0.227  0.8490 -1.8799  2.7762
   54MOL   O14229928   0.713   1.014   8.084  0.1626  0.4607  0.1797
   54MOL   C14329929   0.626   1.099   8.086  0.2433 -0.2105 -0.3671
   54MOL   O14429930   0.519   1.107   8.168 -0.4814  0.2586 -0.1394
   54MOL   C14529931   0.617   1.201   7.979  0.8537  0.5327  0.7715
   54MOL   C14629932   0.511   1.297   7.968  0.2057 -0.2922  0.4904
   54MOL   C14729933   0.526   1.412   7.884  0.2969  0.1907 -1.3721
   54MOL   C14829934   0.427   1.514   7.876 -0.0972  0.1045 -0.2426
   54MOL   C14929935   0.447   1.612   7.780 -0.1181 -0.1867 -0.0300
   54MOL   C15029936   0.557   1.620   7.697 -0.4869 -0.6667 -0.0588
   54MOL   C15129937   0.571   1.736   7.608  0.2281 -0.4169  0.0405
   54MOL   O15229938   0.674   1.721   7.524  0.5642 -0.5978 -0.2842
   54MOL   C15329939   0.712   1.821   7.432 -0.0593 -0.9404  0.3414
   54MOL   C15429940   0.798   1.927   7.501  0.5457  0.5128 -0.4369
   54MOL   O15529941   0.501   1.832   7.620  0.0205  0.5575  0.1808
   54MOL   C15629942   0.660   1.524   7.709 -0.6461 -0.1658 -0.1791
   54MOL   C15729943   0.639   1.417   7.797 -0.2016  0.2610 -0.6621
   54MOL   C15829944   0.744   1.324   7.808  0.4764 -0.4580  1.0079
   54MOL   C15929945   0.733   1.218   7.897 -0.7123 -0.3262 -0.1009
   54MOL   H16029946   0.426   1.285   8.034  0.2823  0.4133  0.7209
   54MOL   H16129947   0.331   1.520   7.924 -0.5292  0.8864 -1.1909
   54MOL   H16229948   0.376   1.693   7.770  0.0838  0.0569  0.5076
   54MOL   H16329949   0.623   1.868   7.390  0.5566 -1.2132 -1.2974
   54MOL   H16429950   0.772   1.771   7.356  1.5203  0.4803  0.6415
   54MOL   H16529951   0.819   2.013   7.438  0.0834  1.2354  0.3987
   54MOL   H16629952   0.746   1.968   7.587 -1.7084 -1.9857 -0.5428
   54MOL   H16729953   0.750   1.534   7.650 -1.7408  0.4626 -1.7719
   54MOL   H16829954   0.834   1.352   7.755  2.2132 -1.8604  3.1053
   54MOL   H16929955   0.815   1.155   7.929 -1.7323 -1.1367  0.9672
   54MOL   O17029956   1.049   1.965   7.394  0.1437  0.5883 -0.3204
   54MOL   C17129957   1.042   1.882   7.487  0.1764  0.5070 -0.1277
   54MOL   O17229958   0.919   1.867   7.551  0.0762 -0.1926 -0.0860
   54MOL   C17329959   1.155   1.805   7.542  0.0180 -0.3267  0.1715
   54MOL   C17429960   1.284   1.851   7.506  0.1052  0.2665  0.8463
   54MOL   C17529961   1.399   1.783   7.543 -0.5050 -0.1322 -0.5062
   54MOL   C17629962   1.527   1.832   7.504  0.1231  0.2512 -0.0313
   54MOL   C17729963   1.642   1.755   7.535 -0.5620 -1.0874 -0.0193
   54MOL   C17829964   1.632   1.634   7.611  0.4368 -0.0037 -0.1568
   54MOL   C17929965   1.764   1.564   7.629 -0.0554  0.4041 -0.0855
   54MOL   O18029966   1.749   1.435   7.648  0.3926  0.2377 -0.1593
   54MOL   C18129967   1.855   1.338   7.631 -0.0966 -0.3333  0.1890
   54MOL   C18229968   1.805   1.188   7.658 -0.6052  0.3546  0.6816
   54MOL   O18329969   1.872   1.612   7.611  0.0107 -0.0757 -0.4467
   54MOL   C18429970   1.506   1.593   7.660  0.3276  0.6135  0.1895
   54MOL   C18529971   1.388   1.667   7.624 -0.4166  0.2128  0.8567
   54MOL   C18629972   1.262   1.621   7.665 -0.0500  0.2035  0.1513
   54MOL   C18729973   1.142   1.690   7.627 -0.7596 -0.3611  0.0394
   54MOL   H18829974   1.297   1.929   7.433  1.4755  0.0284  0.8327
   54MOL   H18929975   1.531   1.925   7.450 -2.2357  0.8808  0.8354
   54MOL   H19029976   1.733   1.801   7.502 -0.7889  0.0756  0.9352
   54MOL   H19129977   1.939   1.357   7.698 -0.0200 -1.0693  0.3133
   54MOL   H19229978   1.899   1.336   7.532 -0.4767 -2.4112  0.0422
   54MOL   H19329979   1.710   1.168   7.607 -0.6995  0.6640  0.7331
   54MOL   H19429980   1.877   1.123   7.609 -0.5047 -0.0408  1.3524
   54MOL   H19529981   1.501   1.505   7.721  2.8977  1.2666  1.4082
   54MOL   H19629982   1.242   1.530   7.721 -1.6780 -0.5722 -1.6450
   54MOL   H19729983   1.043   1.647   7.638 -1.5973  1.4624 -0.2977
   54MOL   O19829984   1.569   1.170   7.800  0.0693  0.6549 -0.5540
   54MOL   C19929985   1.678   1.170   7.855  0.0267  0.0574  0.5272
   54MOL   O20029986   1.797   1.166   7.792 -0.4238  0.1184  0.0252
   54MOL   C20129987   1.690   1.181   8.004 -0.1084  0.6025 -0.1196
   54MOL   C20229988   1.582   1.221   8.082  0.6054 -0.7704  0.5689
   54MOL   C20329989   1.597   1.239   8.221  0.9966 -0.2812  0.4422
   54MOL   C20429990   1.492   1.290   0.052  0.1657 -0.1651  0.8716
   54MOL   C20529991   1.499   1.301   0.191  0.4346  0.2664  0.3841
   54MOL   C20629992   1.618   1.257   0.259  0.2571 -1.0172  0.4570
   54MOL   C20729993   1.625   1.261   0.409  0.2633 -0.8410  0.1562
   54MOL   O20829994   1.499   1.272   0.463 -0.2095 -0.1028 -0.0990
   54MOL   C20929995   1.473   1.332   0.591 -0.1467 -0.4666 -0.1325
   54MOL   C21029996   1.323   1.325   0.603 -0.7829 -0.6339 -0.1458
   54MOL   O21129997   1.724   1.242   0.480 -0.3290 -0.1259 -0.4392
   54MOL   C21229998   1.733   1.213   0.181  0.1106 -0.4101  0.2841
   54MOL   C21329999   1.722   1.211   0.038 -0.2851  0.2398 -0.3310
   54MOL   C21430000   1.828   1.167   8.203  0.3834 -0.3683 -0.5104
   54MOL   C21530001   1.816   1.151   8.067  0.3597  0.1575 -0.5589
   54MOL   H21630002   1.497   1.251   8.022 -0.2945 -1.5465  1.4345
   54MOL   H21730003   1.394   1.305   0.008  1.7505  2.1343 -2.0649
   54MOL   H21830004   1.409   1.327   0.244  1.6249 -0.1540  2.6858
   54MOL   H21930005   1.515   1.432   0.601 -0.4719 -0.3610  0.2194
   54MOL   H22030006   1.520   1.274   0.670 -1.3550 -1.6022 -0.2157
   54MOL   H22130007   1.289   1.223   0.585 -0.2351 -0.4491 -2.3998
   54MOL   H22230008   1.301   1.367   0.701  2.5570 -2.2276  1.4019
   54MOL   H22330009   1.824   1.184   0.232  0.1760  1.9213  1.5683
   54MOL   H22430010   1.923   1.144   8.249  1.0469 -0.6985 -2.0355
   54MOL   H22530011   1.901   1.129   8.005  1.0590  0.6464  0.2193
   54MOL   O22630012   1.073   1.278   0.516 -0.0991  0.4648 -0.0055
   54MOL   C22730013   1.142   1.360   0.456 -0.4976  0.3679 -0.2798
   54MOL   O22830014   1.263   1.396   0.502  0.0268  0.4120  0.4088
   54MOL   C22930015   1.080   1.467   0.372  0.3559  0.8127  0.2892
   54MOL   C23030016   0.944   1.498   0.389  0.3752 -0.2564  0.1439
   54MOL   C23130017   0.903   1.613   0.317  0.3136  0.4490  0.7054
   54MOL   C23230018   0.773   1.666   0.340  0.1904  0.4007 -0.0136
   54MOL   C23330019   0.731   1.780   0.273 -0.2062 -0.6751 -0.0623
   54MOL   C23430020   0.816   1.852   0.181  0.4206  0.1047  1.2305
   54MOL   C23530021   0.770   1.961   0.094  0.4951  0.0129  0.2252
   54MOL   O23630022   0.643   1.982   0.101 -0.2530 -0.4247 -0.0409
   54MOL   C23730023   0.585   2.069   0.016 -0.4099 -0.0723  0.1167
   54MOL   C23830024   0.481   2.157   0.102 -0.0168 -0.0528 -0.5920
   54MOL   O23930025   0.852   2.028   0.032 -0.0247  0.3652  0.7303
   54MOL   C24030026   0.948   1.800   0.160  0.7243  0.1433  0.6568
   54MOL   C24130027   0.991   1.685   0.230 -1.0545  0.9515 -0.1262
   54MOL   C24230028   1.120   1.642   0.201  0.9401  0.3405 -0.0473
   54MOL   C24330029   1.162   1.528   0.275 -0.6127 -0.4019  0.2854
   54MOL   H24430030   0.890   1.434   0.457  1.3732 -2.5512 -1.1700
   54MOL   H24530031   0.708   1.605   0.401 -0.3460 -1.3160 -2.2553
   54MOL   H24630032   0.627   1.803   0.289 -0.7757 -2.6285 -0.8358
   54MOL   H24730033   0.531   2.011   8.190 -0.8300  0.0949  0.2904
   54MOL   H24830034   0.648   2.145   8.220 -1.1348 -0.1586 -1.0427
   54MOL   H24930035   0.396   2.177   0.036 -1.9929  0.8560  2.1271
   54MOL   H25030036   0.455   2.090   0.183 -1.2409 -1.0275 -1.7606
   54MOL   H25130037   1.009   1.836   0.078 -1.6736 -0.8185 -1.6364
   54MOL   H25230038   1.182   1.680   0.121  1.0800  0.7454  0.2478
   54MOL   H25330039   1.266   1.500   0.274 -0.7690 -0.9545 -0.5267
   54MOL   O25430040   0.417   2.248   0.349  0.4670  0.5176 -0.2650
   54MOL   C25530041   0.485   2.323   0.270  0.4331  0.4241  0.1948
   54MOL   O25630042   0.535   2.278   0.150  0.1275  0.3388 -0.2932
   54MOL   C25730043   0.513   2.465   0.293  0.2262 -0.2542  0.1308
   54MOL   C25830044   0.468   2.516   0.413 -0.6055  0.0605 -0.0760
   54MOL   C25930045   0.456   2.651   0.429  0.0392 -0.8875  0.2818
   54MOL   C26030046   0.398   2.708   0.550 -0.4213  0.5651 -0.2589
   54MOL   C26130047   0.376   2.848   0.547 -0.2761 -0.4960  0.1057
   54MOL   C26230048   0.412   2.936   0.445  0.0514  0.0415 -0.3411
   54MOL   C26330049   0.374   3.081   0.438 -0.9727  0.4815 -0.0780
   54MOL   O26430050   0.275   3.121   0.526 -0.3597  0.5639 -0.1828
   54MOL   C26530051   0.236   3.257   0.515 -0.0116 -0.6979 -0.0745
   54MOL   C26630052   0.342   3.352   0.571  0.7456  0.3874  0.6841
   54MOL   O26730053   0.435   3.160   0.358 -0.6369  0.0983  0.1824
   54MOL   C26830054   0.489   2.880   0.340 -0.4732 -0.1765  0.0441
   54MOL   C26930055   0.501   2.742   0.327  0.0859 -0.1576 -0.4653
   54MOL   C27030056   0.555   2.690   0.206 -0.1224 -0.8663 -0.2995
   54MOL   C27130057   0.557   2.551   0.185  0.2782  0.0492  0.7479
   54MOL   H27230058   0.443   2.454   0.498  0.9611 -0.7122 -0.1513
   54MOL   H27330059   0.358   2.643   0.627  0.1024 -0.8922 -1.1940
   54MOL   H27430060   0.329   2.891   0.635 -1.8472  0.4936 -1.1879
   54MOL   H27530061   0.137   3.270   0.561 -0.2566  0.8354 -1.0254
   54MOL   H27630062   0.219   3.272   0.409  0.6768 -0.2625 -0.1218
   54MOL   H27730063   0.441   3.318   0.541  1.8876  1.8046  2.6648
   54MOL   H27830064   0.325   3.453   0.533  0.1300  0.0283  0.0158
   54MOL   H27930065   0.532   2.931   0.255  4.2499 -3.3985  0.3703
   54MOL   H28030066   0.566   2.760   0.125 -0.1946  0.3467  0.7244
   54MOL   H28130067   0.579   2.513   0.086 -0.5744  2.2265 -0.3147
   54MOL   O28230068   0.488   3.216   0.757 -0.8115 -0.4426  0.2824
   54MOL   C28330069   0.403   3.292   0.794  0.5337 -0.6755  0.1077
   54MOL   O28430070   0.323   3.368   0.710  0.1082 -0.2907 -0.6121
   54MOL   C28530071   0.385   3.318   0.937  0.2422 -0.4126 -0.3031
   54MOL   C28630072   0.447   3.233   1.030 -0.7750 -0.8493  0.4056
   54MOL   C28730073   0.439   3.259   1.166  0.5044 -0.7320 -0.8159
   54MOL   C28830074   0.512   3.180   1.259 -0.0748 -0.0953  0.1593
   54MOL   C28930075   0.478   3.188   1.397 -0.3212 -0.0010  0.7765
   54MOL   C29030076   0.389   3.290   1.447 -0.4268  0.3332  0.5360
   54MOL   C29130077   0.346   3.292   1.594  0.2095  0.2758 -0.0529
   54MOL   O29230078   0.418   3.211   1.666  0.0702  0.6650 -0.1632
   54MOL   C29330079   0.437   3.225   1.807  0.0146 -0.3345 -0.0781
   54MOL   C29430080   0.319   3.227   1.894  0.3540 -0.4481 -0.1776
   54MOL   O29530081   0.264   3.374   1.644 -0.0045 -0.3692  0.2160
   54MOL   C29630082   0.325   3.375   1.350  0.8118 -0.2765 -0.1940
   54MOL   C29730083   0.351   3.361   1.214 -0.1003  0.1561  0.0885
   54MOL   C29830084   0.280   3.443   1.123  0.1615  0.3325 -0.3811
   54MOL   C29930085   0.291   3.416   0.987  0.9313  0.0281 -0.0300
   54MOL   H30030086   0.505   3.150   0.995 -1.8125 -0.2868 -2.8218
   54MOL   H30130087   0.578   3.098   1.234  0.3963  1.0275 -2.4881
   54MOL   H30230088   0.523   3.114   1.461  0.7943  0.2288  0.2733
   54MOL   H30330089   0.499   3.312   1.827  0.6518  0.0102 -3.2894
   54MOL   H30430090   0.505   3.144   1.833 -2.3045 -2.3970 -0.2664
   54MOL   H30530091   0.357   3.274   1.986 -1.6301 -1.0122  0.9619
   54MOL   H30630092   0.244   3.294   1.853  0.0835 -1.6184 -1.6080
   54MOL   H30730093   0.256   3.451   1.385  0.5453  0.0507 -1.4167
   54MOL   H30830094   0.203   3.511   1.155  0.5131  0.9179 -0.7576
   54MOL   H30930095   0.237   3.467   0.909  3.2825  1.6300 -0.6687
   54MOL   O31030096   0.132   3.094   1.751 -0.1449 -0.2581 -0.8422
   54MOL   C31130097   0.172   3.048   1.855 -0.7384 -0.4391 -0.5472
   54MOL   O31230098   0.269   3.102   1.924 -0.4256 -0.4855  0.1088
   54MOL   C31330099   0.128   2.926   1.926 -0.6968 -0.6812 -0.2574
   54MOL   C31430100   0.008   2.871   1.866 -0.6841  0.4813 -0.2911
   54MOL   C31530101   8.208   2.746   1.918  0.0991 -0.9925 -0.7857
   54MOL   C31630102   8.104   2.675   1.858  0.5875 -0.2575  0.0568
   54MOL   C31730103   8.063   2.547   1.893 -0.3556 -0.0761  0.2887
   54MOL   C31830104   8.120   2.484   2.010  0.0003 -0.1687  1.2943
   54MOL   C31930105   8.068   2.348   2.052 -0.3439 -0.2375 -0.2367
   54MOL   O32030106   7.997   2.287   1.956 -0.5373  0.4726  0.2352
   54MOL   C32130107   7.937   2.164   1.988  0.7377  0.1463  0.3657
   54MOL   C32230108   7.978   2.052   1.888 -0.2327  0.7971  0.4947
   54MOL   O32330109   8.080   2.302   2.164 -0.7769  0.2015  0.8370
   54MOL   C32430110   8.231   2.546   2.069 -0.3762 -0.1450 -0.5962
   54MOL   C32530111   0.022   2.679   2.028 -1.1182  0.1139 -0.5757
   54MOL   C32630112   0.147   2.733   2.079 -0.6307 -0.3828  0.0580
   54MOL   C32730113   0.197   2.861   2.034 -0.1425 -0.1339 -0.1111
   54MOL   H32830114   8.198   2.924   1.793 -0.6404  0.4743 -0.3312
   54MOL   H32930115   8.052   2.728   1.779 -2.0380 -1.8104  0.6867
   54MOL   H33030116   7.985   2.493   1.841 -1.0244 -0.7145  1.8996
   54MOL   H33130117   7.828   2.175   1.988  0.6082 -0.8192 -1.8405
   54MOL   H33230118   7.960   2.140   2.092  0.4315  2.4248  0.9864
   54MOL   H33330119   7.888   1.996   1.864  1.5129 -1.2476 -1.6132
   54MOL   H33430120   7.999   2.077   1.783  1.4326 -1.2443  0.3049
   54MOL   H33530121   0.024   2.484   2.147 -0.2204 -3.0158 -2.8887
   54MOL   H33630122   0.201   2.692   2.164 -1.0581 -0.5175  0.2671
   54MOL   H33730123   0.289   2.900   2.075 -0.7933  1.4766 -0.1148
   54MOL   O33830124   8.230   2.087   1.956  0.1596 -0.2315  0.0634
   54MOL   C33930125   8.177   1.976   1.989  0.0467 -0.9542 -0.2491
   54MOL   O34030126   8.049   1.954   1.968  0.2791  0.0019 -1.0376
   54MOL   C34130127   0.000   1.864   2.060  0.4157 -0.1545 -0.5460
   54MOL   C34230128   0.139   1.860   2.061  0.2458 -0.2349  0.5109
   54MOL   C34330129   0.205   1.757   2.125 -0.3358  0.0021 -0.8411
   54MOL   C34430130   0.345   1.760   2.128 -0.0748 -0.4209  0.7052
   54MOL   C34530131   0.416   1.660   2.202 -0.1500  0.1370 -0.1139
   54MOL   C34630132   0.346   1.558   2.269  0.2178 -0.1370 -0.3288
   54MOL   C34730133   0.422   1.453   2.351 -0.3021 -0.8386  0.5675
   54MOL   O34830134   0.339   1.386   2.443 -0.0827  0.2005 -0.6320
   54MOL   C34930135   0.401   1.292   2.535 -0.5583 -0.0925  0.6362
   54MOL   C35030136   0.340   1.150   2.517  0.1850 -0.6714 -0.9173
   54MOL   O35130137   0.539   1.427   2.329 -0.1279 -0.3555 -0.5016
   54MOL   C35230138   0.205   1.558   2.267  0.3717 -0.2815  0.0262
   54MOL   C35330139   0.137   1.654   2.194  1.4334 -0.5157 -0.4619
   54MOL   C35430140   8.242   1.652   2.181  0.4888  0.4196 -0.0052
   54MOL   C35530141   8.177   1.757   2.117 -0.0203 -0.2180  0.1395
   54MOL   H35630142   0.194   1.942   2.017 -0.6689 -0.0428 -0.2979
   54MOL   H35730143   0.413   1.827   2.078 -0.3908 -1.5708 -1.3172
   54MOL   H35830144   0.523   1.671   2.199  0.0877 -2.1290 -1.0362
   54MOL   H35930145   0.383   1.321   2.639  0.7138  0.6254  0.6639
   54MOL   H36030146   0.506   1.314   2.520 -0.5783 -0.5258 -0.1591
   54MOL   H36130147   0.359   1.105   2.420 -1.6528 -1.1630 -1.0740
   54MOL   H36230148   0.372   1.088   2.600 -0.9015  1.5833  1.2470
   54MOL   H36330149   0.157   1.473   2.314  1.4022  0.6335  2.8539
   54MOL   H36430150   8.187   1.576   2.235 -0.5539  0.2379 -1.3260
   54MOL   H36530151   8.070   1.764   2.111 -0.0689  0.0867  1.1623
   54MOL   O36630152   0.146   1.174   2.313  0.0041 -0.0892  0.5079
   54MOL   C36730153   0.113   1.167   2.431 -0.3621  0.3948 -1.0243
   54MOL   O36830154   0.200   1.155   2.533  0.3017 -0.5610  0.0078
   54MOL   C36930155   8.226   1.188   2.478  1.1101  0.1445  0.6733
   54MOL   C37030156   8.182   1.154   2.606 -0.1825 -0.7428  0.2393
   54MOL   C37130157   8.054   1.183   2.653 -0.0867 -0.7418 -0.3130
   54MOL   C37230158   8.001   1.158   2.784  0.5247  0.2214  0.2293
   54MOL   C37330159   7.869   1.194   2.827 -0.4708 -0.0983  0.1779
   54MOL   C37430160   7.790   1.261   2.734 -0.5971 -0.0154 -0.5721
   54MOL   C37530161   7.647   1.291   2.768  0.7220 -0.5003 -0.3247
   54MOL   O37630162   7.577   1.318   2.661 -0.3511 -0.6301  0.1362
   54MOL   C37730163   7.451   1.369   2.678  0.0256 -0.0706 -0.4531
   54MOL   C37830164   7.382   1.327   2.549 -0.3058  0.4364 -1.2907
   54MOL   O37930165   7.607   1.280   2.884  0.2484 -0.0104 -0.5514
   54MOL   C38030166   7.833   1.282   2.599  0.0683  0.7048  0.1454
   54MOL   C38130167   7.963   1.246   2.561 -0.3207 -0.1514 -0.0019
   54MOL   C38230168   8.012   1.298   2.430 -0.1025  0.2331  0.5934
   54MOL   C38330169   8.141   1.258   2.388  0.5231  0.0042  0.5779
   54MOL   H38430170   0.003   1.112   2.677 -1.5126 -2.8728  0.3559
   54MOL   H38530171   8.073   1.123   2.856  2.0909 -0.6439 -1.7297
   54MOL   H38630172   7.834   1.197   2.929  0.8728 -1.8829  0.7122
   54MOL   H38730173   7.453   1.478   2.684 -1.0716 -0.0301 -0.5814
   54MOL   H38830174   7.401   1.316   2.759  0.1874  1.1465  0.4471
   54MOL   H38930175   7.451   1.346   2.466  0.6816  3.0476  0.0709
   54MOL   H39030176   7.372   1.218   2.547  1.5772  0.2363 -0.6586
   54MOL   H39130177   7.778   1.333   2.521  0.0935 -0.8777 -0.9508
   54MOL   H39230178   7.941   1.348   2.365 -0.2921 -0.5407  0.1990
   54MOL   H39330179   8.179   1.290   2.292 -0.8718  1.2122  0.4169
   54MOL   O39430180   7.359   1.592   2.459 -0.1381  0.3586  0.3593
   54MOL   C39530181   7.260   1.515   2.466 -0.4504  0.4557 -0.0376
   54MOL   O39630182   7.260   1.395   2.522 -0.2502 -0.3221 -0.1392
   54MOL   C39730183   7.121   1.549   2.415  0.6282 -0.2476 -0.3582
   54MOL   C39830184   7.087   1.682   2.382  0.1173 -0.8861 -0.1027
   54MOL   C39930185   6.963   1.724   2.337  0.2933 -0.1938  0.3368
   54MOL   C40030186   6.933   1.860   2.314  0.2096 -0.3912 -0.2447
   54MOL   C40130187   6.802   1.895   2.267 -0.3118 -0.4367  0.5011
   54MOL   C40230188   6.704   1.801   2.242  0.3885  0.0255 -0.5008
   54MOL   C40330189   6.574   1.843   2.190  0.1747 -0.4325 -0.7294
   54MOL   O40430190   6.558   1.981   2.194  0.1101  0.1773 -0.2435
   54MOL   C40530191   6.442   2.050   2.140  0.1524  0.4750  0.2292
   54MOL   C40630192   6.495   2.155   2.043 -0.0869  0.0735 -0.1992
   54MOL   O40730193   6.490   1.757   2.154  0.1400  0.4849 -0.2438
   54MOL   C40830194   6.741   1.665   2.264  0.8322 -1.1858 -0.1398
   54MOL   C40930195   6.867   1.625   2.313 -0.2626  0.0291 -0.1378
   54MOL   C41030196   6.898   1.494   2.335  0.1253 -0.6477  0.0596
   54MOL   C41130197   7.020   1.452   2.392  0.8696  0.2301 -0.3404
   54MOL   H41230198   7.156   1.764   2.393  1.5949 -2.3054  1.6361
   54MOL   H41330199   7.006   1.938   2.330 -0.9787  0.8791 -0.9071
   54MOL   H41430200   6.772   1.998   2.256  2.1539  0.0982 -1.6227
   54MOL   H41530201   6.385   2.102   2.217 -0.0610  0.3505  0.1542
   54MOL   H41630202   6.378   1.977   2.092 -0.9786  1.4491  0.2265
   54MOL   H41730203   6.412   2.205   1.994  0.2229  1.5781  0.7746
   54MOL   H41830204   6.561   2.227   2.091  1.0685  0.1964 -1.9401
   54MOL   H41930205   6.659   1.595   2.252  0.2693 -0.8441  1.4596
   54MOL   H42030206   6.821   1.422   2.315  0.2521 -1.6845  2.9957
   54MOL   H42130207   7.043   1.350   2.419 -0.4330 -0.4275 -1.6131
   54MOL   O42230208   6.653   2.280   1.859  0.1599  0.1874 -0.2238
   54MOL   C42330209   6.657   2.158   1.871  0.5907  0.8321  0.5192
   54MOL   O42430210   6.568   2.087   1.942  0.3740  0.1594 -0.0770
   54MOL   C42530211   6.761   2.072   1.801 -0.2706  0.7417  0.0586
   54MOL   C42630212   6.857   2.122   1.707  0.5065  0.7318  0.5006
   54MOL   C42730213   6.944   2.041   1.638  0.1508 -0.9140  0.5081
   54MOL   C42830214   7.030   2.106   1.547 -0.3645  0.4032 -0.4680
   54MOL   C42930215   7.110   2.024   1.460  0.0200 -0.2948 -0.3827
   54MOL   C43030216   7.118   1.884   1.481  0.3283  0.8249  0.8050
   54MOL   C43130217   7.233   1.816   1.420  0.2147  0.8679  0.6074
   54MOL   O43230218   7.231   1.683   1.423 -0.6395  0.6431 -0.0070
   54MOL   C43330219   7.347   1.605   1.372  0.5778 -0.3472  0.2831
   54MOL   C43430220   7.307   1.464   1.355  0.0896  0.1329 -0.3098
   54MOL   O43530221   7.330   1.878   1.377  0.0679 -0.7661  0.4930
   54MOL   C43630222   7.027   1.821   1.570 -0.8265  0.0538  0.3383
   54MOL   C43730223   6.939   1.898   1.651 -0.3516 -0.6486  0.5133
   54MOL   C43830224   6.850   1.845   1.750 -0.2487 -0.1231  0.6224
   54MOL   C43930225   6.762   1.930   1.827  0.2053  0.7411  0.1920
   54MOL   H44030226   6.856   2.230   1.704 -0.7493  0.7070 -0.3473
   54MOL   H44130227   7.024   2.214   1.542 -1.6711  0.2838 -1.9001
   54MOL   H44230228   7.184   2.069   1.395  1.1018 -1.7155 -0.1416
   54MOL   H44330229   7.425   1.623   1.446  1.4172 -1.5636 -0.2764
   54MOL   H44430230   7.381   1.643   1.275 -2.1150 -1.4872 -1.1543
   54MOL   H44530231   7.221   1.447   1.420  0.7589  0.0035  0.5567
   54MOL   H44630232   7.266   1.444   1.256 -0.6975 -1.0985  0.2441
   54MOL   H44730233   7.031   1.713   1.579 -0.4217 -0.0318 -0.7274
   54MOL   H44830234   6.851   1.739   1.770  0.2258 -0.0107  1.2084
   54MOL   H44930235   6.696   1.881   1.898 -0.3175 -1.3451 -1.6587
   54MOL   O45030236   7.274   1.200   1.342  0.2635  0.0214  0.0729
   54MOL   C45130237   7.370   1.245   1.409 -0.8967  0.1078 -0.4464
   54MOL   O45230238   7.402   1.376   1.417 -0.1420  0.6180 -0.1227
   54MOL   C45330239   7.462   1.159   1.481 -0.3251  0.0870 -0.4249
   54MOL   C45430240   7.588   1.211   1.529 -0.4523  0.3292  0.0266
   54MOL   C45530241   7.681   1.122   1.588  0.2434 -0.0540  0.0179
   54MOL   C45630242   7.799   1.177   1.641  0.0850 -0.1527  0.3508
   54MOL   C45730243   7.899   1.097   1.694 -0.6522 -0.1817  0.2484
   54MOL   C45830244   7.886   0.950   1.682  0.2457 -0.2412 -0.2190
   54MOL   C45930245   7.999   0.858   1.719 -0.4975 -1.0890 -0.4811
   54MOL   O46030246   8.107   0.924   1.750 -0.6215  0.0821  0.2117
   54MOL   C46130247   8.234   0.868   1.741 -0.0982 -0.0016 -0.1766
   54MOL   C46230248   0.044   0.946   1.623  0.0641 -0.0462 -0.5229
   54MOL   O46330249   8.002   0.739   1.690 -0.7291  0.4333  0.0678
   54MOL   C46430250   7.764   0.897   1.633  0.1337 -0.1567 -0.1038
   54MOL   C46530251   7.662   0.982   1.581  0.0291  0.8046  0.2681
   54MOL   C46630252   7.543   0.931   1.532  0.3778 -0.5228 -0.5264
   54MOL   C46730253   7.441   1.019   1.490 -0.2540  0.2635  0.1099
   54MOL   H46830254   7.606   1.318   1.523  0.4835  0.3745  2.9819
   54MOL   H46930255   7.812   1.284   1.634 -0.5199 -0.1273 -0.4372
   54MOL   H47030256   7.995   1.131   1.730 -0.5234  0.1059 -0.3703
   54MOL   H47130257   8.222   0.760   1.732 -0.3021 -0.0023  0.1012
   54MOL   H47230258   0.051   0.892   1.825  0.2353  1.5333 -0.8561
   54MOL   H47330259   0.015   1.050   1.636 -2.1631 -0.7564  0.2474
   54MOL   H47430260   0.153   0.943   1.618  0.0766  0.0831 -0.3027
   54MOL   H47530261   7.743   0.794   1.609 -0.0798  0.4006 -2.5272
   54MOL   H47630262   7.531   0.823   1.531  0.4072 -0.5774  1.8387
   54MOL   H47730263   7.350   0.971   1.458  0.5650 -0.3046 -1.4636
   54MOL   O47830264   0.116   0.720   1.505 -0.7348 -0.5605 -0.3128
   54MOL   C47930265   0.019   0.777   1.460  0.3360  0.5860  0.1287
   54MOL   O48030266   8.227   0.898   1.503 -0.3628 -0.3108 -0.3686
   54MOL   C48130267   8.179   0.719   1.356 -0.1647  0.4480 -0.1113
   54MOL   C48230268   8.041   0.738   1.352  0.0017  0.0734 -0.5955
   54MOL   C48330269   7.960   0.687   1.249  0.1536  0.4268  0.3583
   54MOL   C48430270   7.826   0.721   1.249 -0.0519  0.3498  0.6945
   54MOL   C48530271   7.733   0.660   1.159 -0.4895 -0.3946 -0.4504
   54MOL   C48630272   7.791   0.576   1.056 -0.6538 -0.4211  0.4534
   54MOL   C48730273   7.700   0.528   0.947 -0.4184 -0.1660  0.5723
   54MOL   O48830274   7.759   0.519   0.826 -0.5044  0.6773 -0.6562
   54MOL   C48930275   7.687   0.468   0.713 -0.6136 -0.0030  0.4321
   54MOL   C49030276   7.742   0.327   0.677 -0.1097  0.0473 -0.2717
   54MOL   O49130277   7.581   0.494   0.967 -0.0047 -0.1367  0.7222
   54MOL   C49230278   7.930   0.553   1.051  0.0629  0.1801 -0.6576
   54MOL   C49330279   8.013   0.605   1.153 -0.0109  0.0116  0.3485
   54MOL   C49430280   8.152   0.572   1.155 -0.8145 -0.0230  0.1260
   54MOL   C49530281   8.228   0.633   1.254 -0.5709  0.1049  0.0530
   54MOL   H49630282   7.997   0.813   1.416 -1.0970  0.2038 -1.4893
   54MOL   H49730283   7.785   0.780   1.329  0.4338  2.5358 -0.6346
   54MOL   H49830284   7.628   0.678   1.174 -0.7626 -1.7832 -0.6312
   54MOL   H49930285   7.700   0.547   0.640  0.3956  0.8264  1.5029
   54MOL   H50030286   7.580   0.467   0.734 -0.8397  0.3915 -0.6546
   54MOL   H50130287   7.704   0.292   0.581 -1.3331 -0.4558  0.3768
   54MOL   H50230288   7.850   0.340   0.679 -0.1230  0.0647  0.3448
   54MOL   H50330289   7.971   0.491   0.973  0.9046  0.6867 -0.6218
   54MOL   H50430290   8.188   0.506   1.078  0.6334 -0.7126  1.3730
   54MOL   H50530291   0.085   0.611   1.260 -0.4639  0.5460 -0.2201
   54MOL   O50630292   7.848   0.078   0.741  0.9430 -0.3725 -0.1564
   54MOL   C50730293   7.769   0.145   0.815 -1.0459  0.4527 -0.2241
   54MOL   O50830294   7.702   0.248   0.785 -0.3174  0.1243  0.3101
   54MOL   C50930295   7.766   0.122   0.957  1.0023  0.0753  0.3811
   54MOL   C51030296   7.660   0.183   1.028  0.3506 -0.3569 -0.2639
   54MOL   C51130297   7.654   0.164   1.168  0.0239 -0.0103  0.8970
   54MOL   C51230298   7.552   0.222   1.243 -0.0821 -0.7143 -0.3302
   54MOL   C51330299   7.545   0.205   1.380  0.2697 -0.9649  0.7353
   54MOL   C51430300   7.645   0.125   1.448  0.0876 -0.3122 -0.3655
   54MOL   C51530301   7.652   0.116   1.594  0.8100 -0.6951 -0.6232
   54MOL   O51630302   7.543   0.176   1.657 -0.1498  0.1479 -0.0512
   54MOL   C51730303   7.554   0.227   1.789  0.2784 -0.1346  0.0261
   54MOL   C51830304   7.501   0.128   1.891  0.1659  0.3696 -0.5053
   54MOL   O51930305   7.749   0.083   1.666  0.3926  0.2741 -0.1695
   54MOL   C52030306   7.755   0.080   1.370 -0.5659  0.9266  0.6233
   54MOL   C52130307   7.759   0.093   1.234 -0.6424 -0.5870  0.0228
   54MOL   C52230308   7.860   0.031   1.160  0.0972 -0.0094 -0.1739
   54MOL   C52330309   7.865   0.042   1.017 -0.2382 -0.1526  0.1772
   54MOL   H52430310   7.580   0.236   0.978  0.7443  0.5323  0.0281
   54MOL   H52530311   7.481   0.284   1.191 -0.0054  0.2879  0.7469
   54MOL   H52630312   7.470   0.263   1.431  0.6706  1.2184 -1.0562
   54MOL   H52730313   7.493   0.317   1.803 -1.4160 -1.0407 -1.3921
   54MOL   H52830314   7.659   0.254   1.805 -0.0220  1.0285  0.1027
   54MOL   H52930315   7.503   0.167   1.993 -0.4460  0.8591 -0.6757
   54MOL   H53030316   7.400   0.096   1.866 -0.2822  0.4293  1.1383
   54MOL   H53130317   7.838   0.035   1.424  0.3498  3.8813  1.7540
   54MOL   H53230318   7.934   8.218   1.208  2.9084  3.3981  0.0949
   54MOL   H53330319   7.936   8.233   0.959 -2.9745 -0.2472 -3.2496
   54MOL   O53430320   7.420   8.163   2.022 -0.1533 -0.9659 -0.0884
   54MOL   C53530321   7.529   8.154   1.971 -0.4129  0.7362 -0.3264
   54MOL   O53630322   7.582   0.007   1.904  0.5052  0.1546 -0.3442
   54MOL   C53730323   7.607   8.023   1.970 -0.2843  0.5867  0.3774
   54MOL   C53830324   7.602   7.932   2.076  0.7678 -0.0783 -0.8176
   54MOL   C53930325   7.678   7.814   2.074 -0.4616  0.4227  0.6845
   54MOL   C54030326   7.667   7.716   2.172 -0.3257 -0.3368 -0.7910
   54MOL   C54130327   7.744   7.597   2.164 -0.0722  0.5958  0.0297
   54MOL   C54230328   7.826   7.574   2.052 -0.3204 -0.1469 -0.3188
   54MOL   C54330329   7.909   7.453   2.042  0.8232  0.1038  0.3017
   54MOL   O54430330   8.035   7.465   1.999 -0.0373  0.2299  0.5817
   54MOL   C54530331   8.129   7.356   2.016 -0.5771  0.0712 -0.1784
   54MOL   C54630332   8.181   7.341   2.162 -0.1904 -0.2925  0.1749
   54MOL   O54730333   7.865   7.350   2.095 -0.3848 -0.5118 -0.4354
   54MOL   C54830334   7.830   7.668   1.946  0.0661  0.3499  0.2742
   54MOL   C54930335   7.757   7.786   1.957  0.2641  0.2708 -0.5654
   54MOL   C55030336   7.766   7.882   1.853 -0.0761 -0.0405  0.2258
   54MOL   C55130337   7.685   7.998   1.859  0.0932 -0.0118 -0.3602
   54MOL   H55230338   7.542   7.953   2.163 -0.0185 -0.3974 -1.2778
   54MOL   H55330339   7.599   7.735   2.254 -2.1962  1.7999 -2.7890
   54MOL   H55430340   7.734   7.523   2.243 -3.1865 -1.0291 -1.7732
   54MOL   H55530341   8.219   7.372   1.957 -0.1258 -0.2001  0.4292
   54MOL   H55630342   8.081   7.263   1.988 -2.1290  1.3929 -2.0546
   54MOL   H55730343   0.032   7.383   2.170 -0.2168  0.2843 -2.1397
   54MOL   H55830344   8.186   7.237   2.193  1.1936 -0.2906  0.0054
   54MOL   H55930345   7.914   7.655   1.879 -0.1184 -1.9577  0.4400
   54MOL   H56030346   7.839   7.855   1.778 -1.6274 -0.2843 -1.2011
   54MOL   H56130347   7.688   8.060   1.771  1.8096  1.2118  0.5257
   54MOL   H56230348   8.123   7.402   2.232 -1.4006  0.7630 -1.7069
   55MOL     O130349   5.618   1.423   6.939 -0.2451  0.1426  0.0498
   55MOL     C230350   5.583   1.346   6.854  0.2510 -0.1534 -0.3482
   55MOL     O330351   5.532   1.386   6.735 -0.4322 -0.0370 -0.2378
   55MOL     C430352   5.608   1.201   6.864 -0.1008 -0.3985 -0.3631
   55MOL     C530353   5.578   1.104   6.762  0.6570 -0.1733  0.3094
   55MOL     C630354   5.595   0.968   6.784 -0.7801  0.1671  0.2358
   55MOL     C730355   5.552   0.874   6.689 -0.4448 -0.5868  0.0679
   55MOL     C830356   5.557   0.735   6.715 -0.1551 -0.1414 -0.3671
   55MOL     C930357   5.598   0.693   6.842 -0.1842  0.0743 -0.8845
   55MOL    C1030358   5.592   0.547   6.877  0.1231 -0.4835 -0.1579
   55MOL    O1130359   5.549   0.476   6.786  0.2887 -0.2163  0.2202
   55MOL    C1230360   5.510   0.339   6.804  0.1373 -0.0372  0.2094
   55MOL    C1330361   5.390   0.324   6.892 -0.1587  0.1949  0.0312
   55MOL    O1430362   5.629   0.508   6.991  0.2852  0.5928  0.8823
   55MOL    C1530363   5.636   0.789   6.942  0.1596  1.1241  0.1293
   55MOL    C1630364   5.634   0.922   6.912 -0.3422 -0.1688 -0.5429
   55MOL    C1730365   5.669   1.019   7.011 -0.0680  0.2699  0.1474
   55MOL    C1830366   5.654   1.157   6.993 -0.0092  0.0343 -0.5153
   55MOL    H1930367   5.526   1.136   6.673  1.5099  0.2967 -0.0247
   55MOL    H2030368   5.521   0.905   6.590  2.2503 -0.2891 -0.7199
   55MOL    H2130369   5.512   0.678   6.636  0.8480 -0.2292 -0.8684
   55MOL    H2230370   5.494   0.313   6.700  1.2013 -0.5112  0.1645
   55MOL    H2330371   5.601   0.285   6.828  1.4429  1.8841 -0.2499
   55MOL    H2430372   5.357   0.220   6.886 -0.5589  0.2621  1.0483
   55MOL    H2530373   5.413   0.342   6.997  1.5901  1.4450 -0.5628
   55MOL    H2630374   5.666   0.747   7.037  1.7730 -0.4803 -1.0423
   55MOL    H2730375   5.699   1.001   7.114 -1.5446  0.3562  0.5993
   55MOL    H2830376   5.668   1.223   7.077 -0.6868  1.2354 -1.3371
   55MOL    H2930377   5.547   1.476   6.708  1.6965  0.3060  1.8999
   55MOL    O3030378   5.174   0.287   6.714 -0.4803 -0.6847 -0.3562
   55MOL    C3130379   5.201   0.394   6.767 -0.7319 -0.1316 -0.5368
   55MOL    O3230380   5.291   0.412   6.858  0.3922  0.1344 -0.1100
   55MOL    C3330381   5.134   0.523   6.731 -0.1160 -0.7445  0.2687
   55MOL    C3430382   5.194   0.647   6.753  0.0790 -0.3547  0.0112
   55MOL    C3530383   5.134   0.766   6.708 -0.1168  0.1870  0.2335
   55MOL    C3630384   5.196   0.894   6.708  0.2109 -0.7675  0.8076
   55MOL    C3730385   5.132   1.009   6.677 -0.5447 -0.4852  0.2733
   55MOL    C3830386   4.998   1.004   6.624 -0.8531 -0.0054  0.2638
   55MOL    C3930387   4.933   1.132   6.579  0.4331 -0.0584  0.1730
   55MOL    O4030388   5.017   1.221   6.536 -0.6310 -0.4530  0.1285
   55MOL    C4130389   4.971   1.335   6.461 -0.1587 -0.2273  0.1884
   55MOL    C4230390   4.955   1.450   6.562 -0.3780  0.1405  0.1591
   55MOL    O4330391   4.808   1.147   6.566 -0.1880  0.0846 -0.7460
   55MOL    C4430392   4.938   0.879   6.612 -0.1962  0.0796  0.2002
   55MOL    C4530393   5.004   0.760   6.652 -0.7212 -0.0081 -0.0404
   55MOL    C4630394   4.937   0.635   6.637 -0.1881 -0.0191  0.9274
   55MOL    C4730395   5.008   0.514   6.669  0.4851 -0.0797  0.5020
   55MOL    H4830396   5.289   0.657   6.803 -0.9032 -0.0509  1.8376
   55MOL    H4930397   5.303   0.898   6.727  0.4511  0.0953 -0.7099
   55MOL    H5030398   5.182   1.104   6.683 -1.9731  0.3188 -0.2782
   55MOL    H5130399   4.884   1.322   6.396 -0.0382  0.3929 -0.1056
   55MOL    H5230400   5.056   1.353   6.394 -1.0669  0.6349 -0.7693
   55MOL    H5330401   4.871   1.423   6.626 -1.1849  1.1651 -0.4530
   55MOL    H5430402   5.040   1.465   6.629 -1.4037 -1.0978  1.7829
   55MOL    H5530403   4.831   0.875   6.593 -0.5359  2.2950  1.4960
   55MOL    H5630404   4.842   0.618   6.587  1.2027  2.1358 -2.6754
   55MOL    H5730405   4.963   0.420   6.641  0.4088 -0.1564  0.8877
   55MOL    O5830406   4.738   1.524   6.408  0.4590 -0.1402 -0.4633
   55MOL    C5930407   4.829   1.606   6.427  0.2126 -0.4878  0.2728
   55MOL    O6030408   4.939   1.574   6.490 -0.1143 -0.5154 -0.1609
   55MOL    C6130409   4.829   1.746   6.372  0.0157  0.0716 -0.4514
   55MOL    C6230410   4.714   1.808   6.311 -0.4336  0.4660 -1.1705
   55MOL    C6330411   4.720   1.940   6.258  0.5370 -0.1277  0.9812
   55MOL    C6430412   4.607   1.985   6.181  0.0162  0.6336  0.0244
   55MOL    C6530413   4.622   2.110   6.117  0.1092  0.3838  0.3531
   55MOL    C6630414   4.735   2.190   6.132 -0.1017 -0.7406  0.2265
   55MOL    C6730415   4.741   2.330   6.077 -0.3940  0.7214  0.1886
   55MOL    O6830416   4.810   2.413   6.155 -0.4032  0.2034  0.0746
   55MOL    C6930417   4.833   2.552   6.133  0.6951 -0.2145 -0.4395
   55MOL    C7030418   4.954   2.579   6.061 -0.9744 -0.5891  0.5524
   55MOL    O7130419   4.690   2.365   5.967 -0.0793  0.0628  0.2333
   55MOL    C7230420   4.843   2.143   6.210  0.7587  0.9756  0.9054
   55MOL    C7330421   4.834   2.017   6.275  0.6250 -0.2851  0.8133
   55MOL    C7430422   4.943   1.962   6.339 -0.1708 -1.0133  0.5241
   55MOL    C7530423   4.942   1.832   6.391 -0.1396 -0.3589 -0.5080
   55MOL    H7630424   4.622   1.750   6.312 -0.4639  0.5164  0.4061
   55MOL    H7730425   4.514   1.930   6.172  0.0108  0.8853 -1.7641
   55MOL    H7830426   4.547   2.157   6.055 -0.0856  1.2463  1.2218
   55MOL    H7930427   4.842   2.597   6.232  1.2992  1.8350 -1.3864
   55MOL    H8030428   4.745   2.593   6.083 -0.8705 -5.3257 -2.2460
   55MOL    H8130429   4.965   2.513   5.975  2.7559 -1.0699  1.3060
   55MOL    H8230430   4.956   2.683   6.029  2.2019  0.4977  3.9721
   55MOL    H8330431   4.935   2.199   6.223 -1.3578  4.7168  0.4086
   55MOL    H8430432   5.031   2.022   6.357 -0.8997 -0.0300  0.8218
   55MOL    H8530433   5.025   1.803   6.454 -1.0686 -1.0975  0.3963
   55MOL    O8630434   5.206   2.551   5.966  0.4338 -0.6107 -0.3808
   55MOL    C8730435   5.194   2.560   6.086  0.0301  0.2485  0.1937
   55MOL    O8830436   5.073   2.566   6.146  1.0061 -0.1678  0.2339
   55MOL    C8930437   5.305   2.587   6.180  0.1720  0.4756  0.0764
   55MOL    C9030438   5.441   2.552   6.140  0.0159  0.1407 -0.2174
   55MOL    C9130439   5.543   2.577   6.235 -0.2375  0.9413 -0.2473
   55MOL    C9230440   5.676   2.541   6.208  0.0935 -0.8237  0.3032
   55MOL    C9330441   5.779   2.569   6.303 -0.9093  0.0975 -0.5467
   55MOL    C9430442   5.752   2.647   6.417  0.7076 -0.1174  0.1578
   55MOL    C9530443   5.864   2.698   6.502  0.3801 -0.0093  0.6955
   55MOL    O9630444   5.824   2.768   6.611 -0.1035  0.5052 -0.0215
   55MOL    C9730445   5.914   2.763   6.719 -0.8137 -0.0412 -0.1804
   55MOL    C9830446   5.855   2.738   6.858  0.6611 -0.1181  0.1674
   55MOL    O9930447   5.979   2.659   6.480 -0.1182 -0.1246 -0.1577
   55MOL   C10030448   5.618   2.678   6.447  0.0465  0.1034 -0.5145
   55MOL   C10130449   5.516   2.648   6.358  0.4198  0.6567  0.1447
   55MOL   C10230450   5.386   2.683   6.389  0.0557 -0.1525 -0.0438
   55MOL   C10330451   5.278   2.655   6.307  0.0557 -0.4868 -0.6594
   55MOL   H10430452   5.460   2.503   6.046 -0.4612  0.4053 -0.4542
   55MOL   H10530453   5.698   2.487   6.117  0.6911 -1.1967  0.6667
   55MOL   H10630454   5.883   2.543   6.294 -1.0522 -1.9017  2.9758
   55MOL   H10730455   5.984   2.846   6.717 -0.1276 -0.6068 -0.0613
   55MOL   H10830456   5.974   2.672   6.715 -1.1077 -0.1736 -1.8570
   55MOL   H10930457   5.787   2.809   6.906 -0.0525 -1.1140  0.6656
   55MOL   H11030458   5.797   2.646   6.865 -0.1413  0.2951 -0.9219
   55MOL   H11130459   5.593   2.736   6.535  0.1879  0.8194 -0.9410
   55MOL   H11230460   5.358   2.734   6.479  0.7355 -0.6924  0.4731
   55MOL   H11330461   5.180   2.682   6.342  1.0945  0.0293  2.0367
   55MOL   O11430462   5.956   2.937   7.001  0.2788  0.0599  0.0138
   55MOL   C11530463   6.002   2.821   7.024  0.3258 -0.1688  0.5256
   55MOL   O11630464   5.955   2.718   6.953  0.3900  0.0506  0.1506
   55MOL   C11730465   6.111   2.781   7.121 -0.0116 -0.1032 -0.2328
   55MOL   C11830466   6.142   2.644   7.149 -0.3633  0.1349  0.7423
   55MOL   C11930467   6.237   2.613   7.244  0.1215  0.7748  0.0561
   55MOL   C12030468   6.255   2.482   7.285 -1.1535 -0.3800 -0.9703
   55MOL   C12130469   6.337   2.446   7.393 -0.3192 -0.6143 -0.8096
   55MOL   C12230470   6.405   2.542   7.466 -0.6137 -0.1528  0.7042
   55MOL   C12330471   6.489   2.494   7.583  0.4102  0.7920  0.2887
   55MOL   O12430472   6.481   2.358   7.607 -0.0223 -0.1271 -0.1820
   55MOL   C12530473   6.567   2.297   7.705  0.4475  0.4858  0.8251
   55MOL   C12630474   6.704   2.272   7.660 -0.1903  0.0038  0.2740
   55MOL   O12730475   6.558   2.567   7.652  0.4411 -0.0323 -0.4626
   55MOL   C12830476   6.396   2.676   7.420  0.8004  0.2139  0.8447
   55MOL   C12930477   6.306   2.714   7.315  0.3623 -0.2005 -0.6048
   55MOL   C13030478   6.280   2.849   7.286  0.3056 -0.1554 -0.2698
   55MOL   C13130479   6.181   2.881   7.184  0.1488  0.0241 -0.8555
   55MOL   H13230480   6.084   2.563   7.107 -0.3072 -0.0586  1.0340
   55MOL   H13330481   6.204   2.399   7.239  0.0256 -2.0494  0.6607
   55MOL   H13430482   6.341   2.341   7.419  0.8693  0.1067  2.0774
   55MOL   H13530483   6.518   2.202   7.728 -0.0759  0.7212  0.6770
   55MOL   H13630484   6.568   2.345   7.803 -2.4957  0.5918  0.8293
   55MOL   H13730485   6.738   2.351   7.593  1.0812 -3.1844 -3.0134
   55MOL   H13830486   6.756   2.260   7.755  1.0342 -1.0348 -0.5130
   55MOL   H13930487   6.438   2.748   7.490 -0.9272  2.1410 -0.0586
   55MOL   H14030488   6.318   2.916   7.362  1.2750  0.5364 -1.3463
   55MOL   H14130489   6.152   2.983   7.165 -0.2905  0.5037  2.2221
   55MOL   O14230490   6.925   2.131   7.574  0.2732  0.2805  0.2506
   55MOL   C14330491   6.813   2.096   7.547 -0.0653  0.4179 -0.2445
   55MOL   O14430492   6.701   2.153   7.582 -0.6293 -0.2949 -0.0178
   55MOL   C14530493   6.784   1.969   7.472  0.4282  0.4338  0.0796
   55MOL   C14630494   6.663   1.934   7.410 -0.2837  0.6717 -1.3423
   55MOL   C14730495   6.646   1.818   7.333  0.5292 -0.0907 -0.0691
   55MOL   C14830496   6.524   1.798   7.269 -0.0853 -0.8993 -0.3073
   55MOL   C14930497   6.502   1.680   7.192  0.1001 -0.0234 -0.4527
   55MOL   C15030498   6.609   1.591   7.164 -0.1572 -0.0359 -0.4345
   55MOL   C15130499   6.585   1.469   7.080 -0.3804  0.0974  0.2932
   55MOL   O15230500   6.694   1.436   7.008  0.5115  0.2773 -0.3168
   55MOL   C15330501   6.698   1.311   6.936 -0.5717  0.1087  0.2120
   55MOL   C15430502   6.617   1.308   6.804 -0.7331  0.4159  0.2474
   55MOL   O15530503   6.478   1.410   7.073  0.6947  0.0340  0.6967
   55MOL   C15630504   6.732   1.614   7.221 -0.0880 -0.1853  0.5836
   55MOL   C15730505   6.749   1.728   7.305 -0.0419 -0.2511 -0.0318
   55MOL   C15830506   6.866   1.752   7.384 -0.0293 -0.1853 -0.4492
   55MOL   C15930507   6.887   1.871   7.464 -0.2614 -0.4898  0.0963
   55MOL   H16030508   6.577   1.997   7.425  0.7925  1.4966  1.8287
   55MOL   H16130509   6.449   1.869   7.300  0.9520 -0.4707  1.3221
   55MOL   H16230510   6.404   1.652   7.157  0.7669 -3.3061  0.0595
   55MOL   H16330511   6.675   1.226   7.001  0.5640  0.0872  0.6016
   55MOL   H16430512   6.800   1.279   6.916 -1.2894 -2.1313 -0.0113
   55MOL   H16530513   6.623   1.208   6.760 -0.2722 -0.4636  2.2729
   55MOL   H16630514   6.514   1.335   6.828 -0.4265  1.8779  0.0092
   55MOL   H16730515   6.815   1.550   7.193 -0.3945 -0.8015  1.0727
   55MOL   H16830516   6.949   1.683   7.373 -1.2108 -1.4702 -1.5102
   55MOL   H16930517   6.978   1.895   7.517 -0.3627  0.1263  0.0012
   55MOL   O17030518   6.783   1.261   6.579 -0.0599  0.2245  0.1858
   55MOL   C17130519   6.762   1.375   6.620 -0.3727  0.0631  0.1678
   55MOL   O17230520   6.672   1.407   6.718  0.4330 -0.0335 -0.1381
   55MOL   C17330521   6.837   1.492   6.572  0.0758 -0.0998 -0.0684
   55MOL   C17430522   6.931   1.470   6.466  0.3548 -0.0849  0.4833
   55MOL   C17530523   6.998   1.580   6.417  1.0871 -0.8906  0.2506
   55MOL   C17630524   7.102   1.564   6.327  0.8220 -0.1903 -0.2581
   55MOL   C17730525   7.184   1.666   6.286 -0.0935 -0.4563  0.4898
   55MOL   C17830526   7.173   1.797   6.338  0.0540  0.1880 -0.2908
   55MOL   C17930527   7.253   1.905   6.281 -0.1197 -0.1010 -0.2768
   55MOL   O18030528   7.339   1.868   6.188  0.5373  0.0387  0.3750
   55MOL   C18130529   7.417   1.958   6.116  0.6040  0.1704 -0.7055
   55MOL   C18230530   7.525   1.879   6.028 -0.2277  0.4396 -0.7304
   55MOL   O18330531   7.242   2.020   6.321 -0.2491  0.1668 -0.2507
   55MOL   C18430532   7.066   1.817   6.426  0.2876 -0.2292  0.8660
   55MOL   C18530533   6.984   1.710   6.474 -0.4610  1.1115  0.2825
   55MOL   C18630534   6.893   1.736   6.576  0.2686 -0.1499 -0.3382
   55MOL   C18730535   6.821   1.621   6.620 -0.1695  0.1925  0.3546
   55MOL   H18830536   6.942   1.376   6.413  1.3853  0.3823 -0.1345
   55MOL   H18930537   7.122   1.464   6.292  0.3261  0.0740 -1.3269
   55MOL   H19030538   7.256   1.642   6.209 -0.8169  1.4862 -0.8234
   55MOL   H19130539   7.467   2.031   6.180 -0.8406 -1.1408  1.9959
   55MOL   H19230540   7.363   2.012   6.038 -0.9757 -0.5646 -0.1378
   55MOL   H19330541   7.507   1.773   6.009 -0.3612  0.5422 -1.1878
   55MOL   H19430542   7.516   1.922   5.928 -0.6253 -0.7922 -1.2306
   55MOL   H19530543   7.034   1.912   6.465 -0.5967 -0.1470 -0.0328
   55MOL   H19630544   6.878   1.833   6.621  2.4505  0.2144 -0.3588
   55MOL   H19730545   6.756   1.651   6.701 -0.3770 -0.9965  0.6321
   55MOL   O19830546   7.738   1.684   6.034  0.2176  0.2663  0.0004
   55MOL   C19930547   7.735   1.777   6.110 -0.7368 -0.1417 -0.1439
   55MOL   O20030548   7.658   1.893   6.091  0.2569  0.5352  0.3941
   55MOL   C20130549   7.810   1.784   6.234  0.8027  1.0095 -0.5444
   55MOL   C20230550   7.774   1.864   6.340 -0.8259  0.3989 -0.0477
   55MOL   C20330551   7.857   1.864   6.455 -0.4433 -0.6851 -0.5748
   55MOL   C20430552   7.823   1.952   6.561 -0.5441  0.7856  0.5669
   55MOL   C20530553   7.914   1.970   6.672  0.3715 -0.1434 -0.3258
   55MOL   C20630554   8.037   1.912   6.665 -0.4211  0.6133 -0.7809
   55MOL   C20730555   8.136   1.938   6.763  0.0082  0.8695  0.3686
   55MOL   O20830556   0.002   1.877   6.738 -0.6047 -0.0534 -0.6002
   55MOL   C20930557   0.118   1.905   6.819 -0.7129 -0.6097 -0.2492
   55MOL   C21030558   0.148   1.777   6.909 -0.1695 -0.3714  0.7457
   55MOL   O21130559   8.118   2.003   6.862  0.5803 -0.6765 -0.0773
   55MOL   C21230560   8.071   1.828   6.556  0.1094 -0.1579 -0.2885
   55MOL   C21330561   7.979   1.797   6.455  0.0317 -0.1872 -0.2176
   55MOL   C21430562   8.018   1.714   6.347  0.4258  0.2531  0.2941
   55MOL   C21530563   7.931   1.706   6.237  0.4613  0.2248 -0.3518
   55MOL   H21630564   7.682   1.920   6.344 -0.8079  0.4192  0.0728
   55MOL   H21730565   7.732   2.009   6.565 -1.4337 -0.5072 -0.6373
   55MOL   H21830566   7.891   2.042   6.749  0.4493 -0.9306  0.4433
   55MOL   H21930567   0.113   1.998   6.875 -0.0929 -0.0713 -1.0874
   55MOL   H22030568   0.211   1.903   6.761 -1.0475 -2.6766 -0.7811
   55MOL   H22130569   0.254   1.780   6.936  0.7953  0.7760 -2.9036
   55MOL   H22230570   0.086   1.762   6.997 -0.5236 -2.2488  0.1938
   55MOL   H22330571   8.170   1.785   6.550 -0.8704 -2.3395 -1.6199
   55MOL   H22430572   8.111   1.661   6.333  0.1074 -0.0103 -0.9053
   55MOL   H22530573   7.959   1.661   6.143 -2.4250  0.9419 -1.6193
   55MOL   O22630574   0.299   1.695   6.670 -0.1871 -0.0954 -0.0587
   55MOL   C22730575   0.192   1.640   6.704 -0.3703  0.3225  0.2079
   55MOL   O22830576   0.135   1.658   6.827 -0.1739 -0.0457 -0.7766
   55MOL   C22930577   0.108   1.558   6.611 -0.0949  0.3339  0.2541
   55MOL   C23030578   0.136   1.564   6.473 -0.4357  0.4435 -0.3052
   55MOL   C23130579   0.067   1.488   6.383 -0.4265  0.0015  0.4135
   55MOL   C23230580   0.101   1.492   6.245 -0.0627 -0.3597 -0.4385
   55MOL   C23330581   0.032   1.413   6.149  0.0730  0.1956 -0.2729
   55MOL   C23430582   8.178   1.327   6.194  0.1451 -0.1062 -0.3087
   55MOL   C23530583   8.111   1.246   6.087  0.8951 -0.1817 -0.2786
   55MOL   O23630584   8.006   1.181   6.143 -0.3513  0.0369 -0.1995
   55MOL   C23730585   7.902   1.131   6.065 -0.2984  0.3189 -0.4558
   55MOL   C23830586   7.782   1.101   6.149  0.3716  0.0159  0.4021
   55MOL   O23930587   8.133   1.245   5.966 -0.3871  0.1335 -0.4026
   55MOL   C24030588   8.148   1.317   6.333 -0.0160 -0.1218 -0.1516
   55MOL   C24130589   8.219   1.398   6.425  0.3413 -0.0321  0.0127
   55MOL   C24230590   8.180   1.394   6.563  0.0041 -0.0732  0.1473
   55MOL   C24330591   0.005   1.472   6.652 -0.0487 -0.3590 -0.2062
   55MOL   H24430592   0.203   1.641   6.439 -0.1026  1.0055  1.5682
   55MOL   H24530593   0.186   1.550   6.212  1.0008 -0.9399  1.2131
   55MOL   H24630594   0.050   1.412   6.043  0.3075 -0.5934 -0.2324
   55MOL   H24730595   7.920   1.043   6.003 -0.7821 -0.2385  0.1951
   55MOL   H24830596   7.880   1.208   5.991  1.1855  1.6132  0.4346
   55MOL   H24930597   7.699   1.085   6.080  1.1779  1.7189 -1.0093
   55MOL   H25030598   7.800   1.018   6.217  1.8487  0.3288  0.4124
   55MOL   H25130599   8.069   1.256   6.375  0.4811 -0.6938 -0.0503
   55MOL   H25230600   8.090   1.338   6.585  0.2085 -0.8359 -0.9105
   55MOL   H25330601   8.238   1.462   6.758  2.7713 -1.3161  0.1806
   55MOL   O25430602   7.557   1.132   6.292 -0.1946 -0.3742 -0.1899
   55MOL   C25530603   7.645   1.218   6.302 -1.0921  0.6311  0.0265
   55MOL   O25630604   7.762   1.214   6.232  0.4991 -0.8802  0.0002
   55MOL   C25730605   7.630   1.331   6.392  1.3658 -0.1696  0.1017
   55MOL   C25830606   7.505   1.376   6.438 -0.1949  0.3247 -0.2648
   55MOL   C25930607   7.481   1.492   6.511  0.7589 -0.6206 -0.1069
   55MOL   C26030608   7.350   1.535   6.549 -1.2555  0.4011 -0.5066
   55MOL   C26130609   7.339   1.655   6.621  0.3335  0.5271  0.3622
   55MOL   C26230610   7.452   1.732   6.659  0.1587  0.4129 -0.8848
   55MOL   C26330611   7.436   1.864   6.726 -0.2687  0.3061 -0.6355
   55MOL   O26430612   7.305   1.880   6.762 -0.1178  0.9786  0.0957
   55MOL   C26530613   7.270   1.994   6.823 -0.3659 -0.2416 -1.1098
   55MOL   C26630614   7.244   2.100   6.718  0.1572  0.8431  0.2708
   55MOL   O26730615   7.528   1.942   6.749 -0.0091 -0.6422  0.3067
   55MOL   C26830616   7.580   1.681   6.635 -0.2229 -0.8147  0.3190
   55MOL   C26930617   7.593   1.569   6.555  0.1081  0.1431  0.3162
   55MOL   C27030618   7.718   1.529   6.513  0.2141  0.2065  0.1043
   55MOL   C27130619   7.737   1.412   6.434 -0.0526 -0.7182 -0.2659
   55MOL   H27230620   7.418   1.314   6.425 -0.9809  1.1097  1.0891
   55MOL   H27330621   7.262   1.485   6.514 -0.8141 -0.0717 -0.9459
   55MOL   H27430622   7.240   1.691   6.644 -0.6328 -0.6269 -1.8749
   55MOL   H27530623   7.336   2.036   6.899 -1.7513 -0.6485  0.3441
   55MOL   H27630624   7.176   1.970   6.873 -0.6393  1.6929 -0.6398
   55MOL   H27730625   7.273   2.204   6.730  0.7758  0.8252 -1.0339
   55MOL   H27830626   7.299   2.058   6.634 -2.4437  0.2821 -1.1887
   55MOL   H27930627   7.668   1.739   6.655  0.1794  0.0785 -3.6092
   55MOL   H28030628   7.802   1.586   6.549 -0.2593  0.4725  0.7989
   55MOL   H28130629   7.839   1.406   6.399 -0.0536  0.4746 -0.5001
   55MOL   O28230630   7.036   2.218   6.881 -0.2888 -1.0307  0.0967
   55MOL   C28330631   7.016   2.177   6.767  0.1854 -0.4170  0.4458
   55MOL   O28430632   7.102   2.101   6.690 -0.2957  0.0401  0.5109
   55MOL   C28530633   6.900   2.222   6.691 -0.3732  0.7156  0.4231
   55MOL   C28630634   6.894   2.198   6.559 -0.2267  0.5539 -0.3300
   55MOL   C28730635   6.783   2.242   6.487  0.4360 -0.7424 -0.1279
   55MOL   C28830636   6.779   2.209   6.352  0.0705  0.4229 -1.1796
   55MOL   C28930637   6.681   2.267   6.272  0.3236 -0.0606  0.0269
   55MOL   C29030638   6.574   2.343   6.325 -0.4227 -0.8028 -0.1247
   55MOL   C29130639   6.453   2.372   6.234 -0.0414 -0.3615  0.4505
   55MOL   O29230640   6.348   2.431   6.299  0.4960 -0.2406 -0.4114
   55MOL   C29330641   6.241   2.460   6.217  0.4194  0.1158 -0.0842
   55MOL   C29430642   6.264   2.565   6.108  0.1569 -0.4334 -0.3340
   55MOL   O29530643   6.450   2.325   6.124  0.3320 -0.1085  0.7849
   55MOL   C29630644   6.589   2.384   6.459  0.1226  0.0346  0.6065
   55MOL   C29730645   6.693   2.334   6.545  0.1818  0.2344 -0.2608
   55MOL   C29830646   6.702   2.358   6.680 -0.1128 -0.0785  0.2480
   55MOL   C29930647   6.808   2.300   6.758  0.4130 -0.1472 -0.1101
   55MOL   H30030648   6.961   2.132   6.505 -0.0329  0.3040  0.2080
   55MOL   H30130649   6.855   2.142   6.317  0.9987  0.4112  0.7815
   55MOL   H30230650   6.669   2.223   6.174  1.9127  0.0434 -0.2148
   55MOL   H30330651   6.157   2.493   6.278 -1.1846 -0.3052 -2.0321
   55MOL   H30430652   6.202   2.364   6.184 -1.6650  0.8807  0.0907
   55MOL   H30530653   6.288   2.666   6.141  0.7154 -1.2298  1.7987
   55MOL   H30630654   6.350   2.531   6.049  0.5355 -0.6286  0.3223
   55MOL   H30730655   6.523   2.460   6.498 -1.8771 -0.6395 -1.3759
   55MOL   H30830656   6.620   2.408   6.730  0.1370  0.7559 -0.1766
   55MOL   H30930657   6.805   2.317   6.865 -4.6705 -0.7471 -0.0388
   55MOL   O31030658   6.031   2.708   6.165  0.5000 -0.2124 -0.1969
   55MOL   C31130659   6.052   2.655   6.055  0.6147 -0.4729 -0.3696
   55MOL   O31230660   6.155   2.578   6.024 -0.3358 -0.1846 -0.2988
   55MOL   C31330661   5.965   2.681   5.937  0.1342  0.1310 -0.1967
   55MOL   C31430662   6.002   2.640   5.803  0.1419  0.4443 -0.0049
   55MOL   C31530663   5.924   2.681   5.696  0.1750 -0.0434  0.1821
   55MOL   C31630664   5.957   2.646   5.563  0.2829 -0.6172 -0.4504
   55MOL   C31730665   5.879   2.693   5.456 -0.2597  0.1026 -0.1173
   55MOL   C31830666   5.766   2.780   5.475  0.0135  0.2999 -0.6690
   55MOL   C31930667   5.693   2.845   5.364 -0.9244  0.0223 -0.6473
   55MOL   O32030668   5.706   2.777   5.249  0.0446  0.2566  0.2851
   55MOL   C32130669   5.667   2.834   5.124  0.1246 -0.0651  0.0367
   55MOL   C32230670   5.570   2.726   5.067 -0.3608 -0.8582  0.2446
   55MOL   O32330671   5.640   2.953   5.368  0.0927 -0.2898 -0.7947
   55MOL   C32430672   5.735   2.820   5.605 -0.2461 -0.2058  0.0346
   55MOL   C32530673   5.807   2.771   5.715 -0.5722  0.2820  0.2789
   55MOL   C32630674   5.778   2.811   5.849  0.7389  0.5180  0.4369
   55MOL   C32730675   5.854   2.764   5.961 -0.6015  0.1610 -0.3215
   55MOL   H32830676   6.091   2.581   5.785 -1.2028 -1.7076  0.1677
   55MOL   H32930677   6.030   2.568   5.549 -0.2719 -1.3934  0.9009
   55MOL   H33030678   5.907   2.661   5.356  0.1146 -0.9611  0.3238
   55MOL   H33130679   5.754   2.843   5.059 -0.5442 -1.5772 -1.1027
   55MOL   H33230680   5.622   2.933   5.138 -0.0888 -0.0442 -0.7756
   55MOL   H33330681   5.488   2.710   5.136  0.4452  1.3445  1.7726
   55MOL   H33430682   5.515   2.757   4.977 -2.6292 -0.0577  1.8667
   55MOL   H33530683   5.661   2.897   5.622 -1.4073 -1.1845 -0.4522
   55MOL   H33630684   5.703   2.883   5.878  0.5407  0.5847 -0.2157
   55MOL   H33730685   5.819   2.792   6.059 -2.0107  1.6206 -1.2241
   55MOL   O33830686   5.458   2.488   5.101  0.2016  0.2196  0.0793
   55MOL   C33930687   5.567   2.491   5.059 -0.0989  0.1332 -0.6118
   55MOL   O34030688   5.632   2.600   5.033 -0.1682 -0.0581  0.5534
   55MOL   C34130689   5.646   2.367   5.026 -0.2864 -0.1141  0.9299
   55MOL   C34230690   5.581   2.243   5.030  0.7126  0.0287  0.1300
   55MOL   C34330691   5.646   2.129   4.987 -0.6519  0.5207 -0.2258
   55MOL   C34430692   5.580   2.003   4.988 -0.2358  0.2058  0.6774
   55MOL   C34530693   5.646   1.892   4.949 -0.4525  0.3931  0.1309
   55MOL   C34630694   5.777   1.899   4.897 -0.0291 -0.7360 -0.2057
   55MOL   C34730695   5.842   1.776   4.840  0.3390 -0.4789 -0.5231
   55MOL   O34830696   5.768   1.666   4.857 -0.3183  0.2221  0.2721
   55MOL   C34930697   5.816   1.540   4.807 -1.2971 -0.0966 -0.0006
   55MOL   C35030698   5.693   1.449   4.805 -0.8014  0.0842 -0.1916
   55MOL   O35130699   5.953   1.768   4.784  0.2586 -0.4332 -0.3233
   55MOL   C35230700   5.851   2.021   4.904  0.1867  0.5325  0.6123
   55MOL   C35330701   5.783   2.135   4.944 -0.9274 -0.6132 -0.4556
   55MOL   C35430702   5.852   2.261   4.950 -0.3963  0.1448 -0.1228
   55MOL   C35530703   5.785   2.375   4.994 -0.4519 -0.2256  0.3932
   55MOL   H35630704   5.477   2.244   5.059  0.0863  1.2549 -2.0221
   55MOL   H35730705   5.478   1.993   5.024 -0.0970 -1.3314  0.6380
   55MOL   H35830706   5.584   1.803   4.945  0.7233 -0.4137 -0.6082
   55MOL   H35930707   5.885   1.499   4.880 -0.3951 -0.4187 -1.0156
   55MOL   H36030708   5.857   1.530   4.706  0.0800 -2.3883  0.7372
   55MOL   H36130709   5.732   1.348   4.791 -0.4299 -0.0253  1.5295
   55MOL   H36230710   5.625   1.451   4.891 -0.8684 -1.0764 -0.2033
   55MOL   H36330711   5.952   2.026   4.868 -0.6227 -0.0463 -1.8530
   55MOL   H36430712   5.958   2.266   4.930 -0.2092  0.5604  0.9554
   55MOL   H36530713   5.839   2.466   5.014 -0.3083 -0.2737  0.2207
   55MOL   O36630714   5.492   1.613   4.800 -0.3462  0.0665  0.0412
   55MOL   C36730715   5.518   1.552   4.699 -0.3185  0.2260  0.0079
   55MOL   O36830716   5.615   1.468   4.692 -0.7871  0.0215 -0.3919
   55MOL   C36930717   5.448   1.566   4.566  0.0912  0.6202  0.8497
   55MOL   C37030718   5.346   1.658   4.559  0.5258  0.2223 -0.4368
   55MOL   C37130719   5.278   1.667   4.430 -0.7360 -0.0008 -0.4858
   55MOL   C37230720   5.164   1.750   4.417 -0.2100 -0.3549 -0.2408
   55MOL   C37330721   5.089   1.759   4.298  0.2694  0.4761 -0.3502
   55MOL   C37430722   5.135   1.681   4.192  0.2273 -0.5463 -0.0052
   55MOL   C37530723   5.071   1.699   4.053  0.5114 -0.2069 -0.1349
   55MOL   O37630724   5.152   1.677   3.958  0.2514 -0.4214  0.2827
   55MOL   C37730725   5.131   1.719   3.824  0.2005 -1.3282 -0.2086
   55MOL   C37830726   5.172   1.618   3.717  0.5019 -0.2099 -0.8801
   55MOL   O37930727   4.953   1.737   4.036  0.0122  0.1040 -0.0061
   55MOL   C38030728   5.242   1.592   4.208 -0.4237  0.4303 -1.1206
   55MOL   C38130729   5.314   1.585   4.326  0.6045 -0.0617 -0.0093
   55MOL   C38230730   5.427   1.508   4.336  0.4559  0.1751 -0.1914
   55MOL   C38330731   5.489   1.486   4.456 -0.1488  0.2566 -0.7423
   55MOL   H38430732   5.327   1.719   4.646  0.5503 -0.4767  0.0640
   55MOL   H38530733   5.133   1.820   4.493 -3.2526  0.3446 -2.0295
   55MOL   H38630734   5.016   1.838   4.282  0.7340  1.0436  0.3001
   55MOL   H38730735   5.202   1.798   3.802 -0.9751  0.1864  1.2987
   55MOL   H38830736   5.028   1.749   3.805  1.4252  2.0384 -1.9310
   55MOL   H38930737   5.246   1.646   3.642  2.6279 -1.2305  0.7861
   55MOL   H39030738   5.211   1.531   3.769 -0.3052  0.7055  1.3355
   55MOL   H39130739   5.276   1.532   4.125  0.5704 -0.7936  0.1420
   55MOL   H39230740   5.441   1.449   4.247  0.3811  0.4979 -0.4184
   55MOL   H39330741   5.575   1.421   4.459 -1.3884 -1.4992 -1.9368
   55MOL   O39430742   5.029   1.714   3.501  0.0568 -0.4851  0.3635
   55MOL   C39530743   4.998   1.609   3.550 -0.0552 -0.1029 -0.8650
   55MOL   O39630744   5.056   1.559   3.660 -0.4776 -0.4891 -0.4894
   55MOL   C39730745   4.892   1.525   3.501  0.5244 -0.4034  0.1433
   55MOL   C39830746   4.830   1.422   3.586  0.3731  0.2856 -0.0182
   55MOL   C39930747   4.733   1.329   3.543 -0.5638 -0.7288 -0.2240
   55MOL   C40030748   4.690   1.223   3.627 -0.0343 -1.0033 -0.6117
   55MOL   C40130749   4.580   1.144   3.586  0.1076 -0.0731  0.0246
   55MOL   C40230750   4.518   1.168   3.464  0.1420 -0.2709  0.4852
   55MOL   C40330751   4.392   1.092   3.444  0.9550  0.3880 -0.9912
   55MOL   O40430752   4.338   1.117   3.319 -0.6304 -0.2716 -0.3566
   55MOL   C40530753   4.212   1.062   3.289 -0.0113 -0.1218  0.5921
   55MOL   C40630754   4.106   1.172   3.284  0.1932 -0.1537 -0.6355
   55MOL   O40730755   4.352   1.004   3.518  0.3639  0.2103 -0.6162
   55MOL   C40830756   4.570   1.270   3.377 -0.3494  0.0749 -0.1825
   55MOL   C40930757   4.677   1.353   3.420  0.1965  0.1557  0.3162
   55MOL   C41030758   4.727   1.460   3.340  0.0637  0.2654 -0.0353
   55MOL   C41130759   4.831   1.549   3.374  0.6392 -0.1107  0.7552
   55MOL   H41230760   4.859   1.414   3.689 -1.8667  3.0724  0.8992
   55MOL   H41330761   4.729   1.217   3.728 -3.4300 -2.6979  0.6864
   55MOL   H41430762   4.545   1.072   3.658 -0.4585  0.6351  0.4714
   55MOL   H41530763   4.188   0.980   3.356 -0.3393  0.1948  0.8670
   55MOL   H41630764   4.227   1.007   3.196  1.4042  0.4107  0.5050
   55MOL   H41730765   4.124   1.252   3.212 -1.8915 -1.5545 -2.7857
   55MOL   H41830766   4.018   1.122   3.243  0.8108 -0.5942 -1.4446
   55MOL   H41930767   4.530   1.289   3.279  1.3923  0.2912 -0.8739
   55MOL   H42030768   4.681   1.467   3.242  1.1497 -0.4610 -0.5994
   55MOL   H42130769   4.878   1.626   3.314  0.4323  2.2588  3.5093
   55MOL   O42230770   3.948   1.074   3.498 -0.6773  0.9611  0.2144
   55MOL   C42330771   4.023   1.171   3.508 -0.0668 -0.0805  0.0629
   55MOL   O42430772   4.081   1.233   3.402  0.2536  1.0261 -0.6179
   55MOL   C42530773   4.087   1.216   3.643 -0.7628  0.1826  1.1441
   55MOL   C42630774   4.199   1.296   3.656  0.4481 -0.1690  1.1209
   55MOL   C42730775   4.251   1.334   3.781 -0.2315  0.5461 -0.2984
   55MOL   C42830776   4.360   1.422   3.785 -0.7453  0.5422 -0.2031
   55MOL   C42930777   4.406   1.475   3.911  1.0484 -0.7414  0.6708
   55MOL   C43030778   4.340   1.440   4.029  1.0574  0.0424 -0.3125
   55MOL   C43130779   4.392   1.484   4.162 -0.1977 -0.5341  0.5234
   55MOL   O43230780   4.501   1.556   4.145 -0.7389  0.0872  0.0845
   55MOL   C43330781   4.573   1.608   4.255 -0.1056 -0.8241  0.2947
   55MOL   C43430782   4.701   1.677   4.213  0.1021  0.2664  0.4870
   55MOL   O43530783   4.334   1.463   4.269 -0.5326  0.7565  0.3801
   55MOL   C43630784   4.232   1.345   4.030  0.1025 -0.3753 -0.0188
   55MOL   C43730785   4.187   1.294   3.899  0.3935 -0.1554 -0.5420
   55MOL   C43830786   4.080   1.201   3.890 -0.9701 -0.3058  0.5905
   55MOL   C43930787   4.028   1.169   3.760 -0.4876  0.6045 -0.1026
   55MOL   H44030788   4.249   1.324   3.564 -1.6071 -1.2044 -0.3539
   55MOL   H44130789   4.411   1.442   3.692  0.8797 -0.6713  0.3965
   55MOL   H44230790   4.491   1.540   3.905 -0.3316  0.9215 -1.3291
   55MOL   H44330791   4.593   1.534   4.332 -3.1818  0.4318  2.3686
   55MOL   H44430792   4.511   1.685   4.300 -1.4746 -0.1835 -2.5660
   55MOL   H44530793   4.781   1.603   4.204  0.2099  0.4150  0.2276
   55MOL   H44630794   4.679   1.721   4.116  1.2721  1.8713  0.9337
   55MOL   H44730795   4.184   1.324   4.124 -0.7610  1.2999 -0.0653
   55MOL   H44830796   4.025   1.150   3.968 -2.6939  0.5511 -0.0362
   55MOL   H44930797   3.961   1.085   3.748 -0.0350  0.1480  0.5076
   55MOL   O45030798   4.642   1.941   4.181 -0.3524  0.0702  0.4358
   55MOL   C45130799   4.700   1.907   4.283  0.7238  0.2835  0.3727
   55MOL   O45230800   4.740   1.779   4.298 -0.6257  0.4441  0.0449
   55MOL   C45330801   4.727   1.989   4.401  0.1107  0.1360  0.2862
   55MOL   C45430802   4.727   2.130   4.378  0.7445  0.0970 -0.0178
   55MOL   C45530803   4.734   2.214   4.488 -1.0623 -0.3639  0.5393
   55MOL   C45630804   4.738   2.352   4.463 -0.3213  0.8596 -0.4141
   55MOL   C45730805   4.759   2.443   4.568 -0.0585  0.7026 -0.0426
   55MOL   C45830806   4.772   2.387   4.694 -1.0033 -0.0275 -0.1210
   55MOL   C45930807   4.775   2.478   4.811 -0.8743 -0.3627  0.5627
   55MOL   O46030808   4.682   2.576   4.801  0.6475 -0.1911  0.5967
   55MOL   C46130809   4.648   2.671   4.904 -0.4802 -0.4967 -0.9682
   55MOL   C46230810   4.559   2.614   5.009  0.3154 -0.1136 -0.3793
   55MOL   O46330811   4.860   2.472   4.899  0.2868 -0.1507  0.6606
   55MOL   C46430812   4.772   2.251   4.721  0.1423 -0.1022 -0.1416
   55MOL   C46530813   4.763   2.163   4.616  0.5240 -0.5889 -0.4097
   55MOL   C46630814   4.770   2.026   4.634  0.3356  0.0624 -0.2989
   55MOL   C46730815   4.743   1.940   4.529  0.7008  0.3972  0.6207
   55MOL   H46830816   4.716   2.164   4.276  2.2823 -1.5266 -0.7627
   55MOL   H46930817   4.728   2.385   4.361 -0.4490 -0.0205 -0.6878
   55MOL   H47030818   4.763   2.548   4.545 -0.1889  1.0885  1.6049
   55MOL   H47130819   4.604   2.755   4.851 -0.8061 -1.1250 -1.7023
   55MOL   H47230820   4.737   2.703   4.958 -1.2225  0.9111 -0.5526
   55MOL   H47330821   4.529   2.513   4.980  0.4330 -0.5736  1.0400
   55MOL   H47430822   4.610   2.608   5.105  0.3947 -0.5091 -0.4428
   55MOL   H47530823   4.781   2.217   4.823  0.9725  1.1931  0.2328
   55MOL   H47630824   4.797   1.979   4.727 -1.4032 -3.6785 -1.5826
   55MOL   H47730825   4.739   1.835   4.551 -0.2064  0.2851 -0.0354
   55MOL   O47830826   4.303   2.586   4.900  0.0502  0.0011 -0.7160
   55MOL   C47930827   4.331   2.675   4.972 -0.1303  0.0612 -0.0338
   55MOL   O48030828   4.451   2.698   5.030 -0.5592  0.6249  0.1962
   55MOL   C48130829   4.228   2.779   5.006 -0.4088  0.0698 -0.2603
   55MOL   C48230830   4.269   2.909   5.046 -0.1109 -0.0806 -0.3441
   55MOL   C48330831   4.170   2.995   5.106 -0.5816 -0.4071  0.0585
   55MOL   C48430832   4.205   3.131   5.146  0.0024  0.0180 -0.4841
   55MOL   C48530833   4.104   3.227   5.183  0.0680 -0.3019 -0.5058
   55MOL   C48630834   3.963   3.191   5.180 -0.3993 -0.0678 -0.1104
   55MOL   C48730835   3.862   3.301   5.215 -0.1097 -0.0089  0.7236
   55MOL   O48830836   3.735   3.251   5.201 -0.2422 -0.2348 -0.2193
   55MOL   C48930837   3.626   3.340   5.221  0.4934  0.4981  0.0150
   55MOL   C49030838   3.566   3.341   5.365 -0.4284 -0.2184  0.0398
   55MOL   O49130839   3.897   3.414   5.241 -0.2506  1.2405 -0.3263
   55MOL   C49230840   3.932   3.062   5.141  0.0919 -0.0272  0.0826
   55MOL   C49330841   4.035   2.963   5.102  0.0222  0.7686 -0.5490
   55MOL   C49430842   3.988   2.835   5.054 -0.0177 -0.1996  0.4812
   55MOL   C49530843   4.096   2.746   5.016 -0.4157 -0.6139  0.0921
   55MOL   H49630844   4.369   2.948   5.035 -1.1111  2.8534  0.6613
   55MOL   H49730845   4.307   3.164   5.157 -0.8762  2.3649  0.9224
   55MOL   H49830846   4.130   3.329   5.205 -0.1532 -0.3938  0.2022
   55MOL   H49930847   3.549   3.308   5.151  1.0830  0.9542 -0.8602
   55MOL   H50030848   3.652   3.437   5.177 -0.9185  0.6530 -0.4881
   55MOL   H50130849   3.477   3.404   5.364  1.0134  1.9190  1.9276
   55MOL   H50230850   3.539   3.241   5.399  1.1865  0.4851  3.6237
   55MOL   H50330851   3.826   3.038   5.136 -0.1841  1.1596  0.0784
   55MOL   H50430852   3.882   2.817   5.050 -0.1042  0.3664  0.0892
   55MOL   H50530853   4.077   2.644   4.987  0.4959 -0.4619 -1.0944
   55MOL   O50630854   3.545   3.396   5.634  0.0079 -0.7562  0.2489
   55MOL   C50730855   3.654   3.396   5.579 -1.0592 -0.1276  0.6679
   55MOL   O50830856   3.670   3.393   5.442  0.1436  0.3176 -0.2609
   55MOL   C50930857   3.780   3.411   5.646 -0.2079  0.2446 -0.5475
   55MOL   C51030858   3.784   3.445   5.782  0.0840  0.3980 -0.6793
   55MOL   C51130859   3.903   3.440   5.857 -0.2717  0.4124 -0.1890
   55MOL   C51230860   3.897   3.453   6.000 -0.3524 -0.1878  0.1411
   55MOL   C51330861   4.018   3.449   6.075 -0.1678 -0.1169  0.1861
   55MOL   C51430862   4.139   3.425   6.003 -0.0288 -0.6126 -0.1287
   55MOL   C51530863   4.263   3.439   6.081  0.2889  1.3394 -0.2012
   55MOL   O51630864   4.273   3.548   6.159  0.3942 -0.0733 -0.3752
   55MOL   C51730865   4.389   3.564   6.237 -0.4127  0.2518 -0.0027
   55MOL   C51830866   4.511   3.613   6.142 -0.3779 -0.0700  0.4405
   55MOL   O51930867   4.356   3.360   6.072 -0.1082  0.6954  0.2436
   55MOL   C52030868   4.145   3.408   5.866  0.3548  0.2585  0.3398
   55MOL   C52130869   4.024   3.409   5.793 -0.3530  0.2414 -0.0717
   55MOL   C52230870   4.025   3.393   5.648  0.5685  1.0430 -0.7106
   55MOL   C52330871   3.906   3.393   5.580  0.6833 -0.5702  0.0748
   55MOL   H52430872   3.689   3.463   5.830 -0.1277 -2.5601  0.1172
   55MOL   H52530873   3.806   3.459   6.057 -1.1880 -0.6041 -1.1138
   55MOL   H52630874   4.014   3.450   6.182  2.4840 -1.5574  0.3436
   55MOL   H52730875   4.408   3.473   6.293 -1.1380  0.0182 -0.1334
   55MOL   H52830876   4.393   3.634   6.321  0.1955  0.3335 -0.0980
   55MOL   H52930877   4.602   3.586   6.195 -1.4670 -0.9411  1.8801
   55MOL   H53030878   4.512   3.567   6.043 -1.5378  0.6747  0.0744
   55MOL   H53130879   4.236   3.401   5.809 -0.0031  2.8793 -0.6503
   55MOL   H53230880   4.120   3.390   5.598  1.1655 -0.5997  0.4624
   55MOL   H53330881   3.914   3.375   5.474 -1.0851 -0.5256 -0.0750
   55MOL   O53430882   4.695   3.780   6.017 -0.4227 -0.6148  0.1493
   55MOL   C53530883   4.596   3.823   6.074 -0.3554 -0.4110 -0.1674
   55MOL   O53630884   4.502   3.753   6.125 -0.2585  0.0248 -0.3252
   55MOL   C53730885   4.574   3.972   6.094  0.4957 -0.3385 -0.0745
   55MOL   C53830886   4.677   4.064   6.068  0.4973  0.4825 -0.4053
   55MOL   C53930887   4.651   4.205   6.066 -0.1303  0.2599 -0.4578
   55MOL   C54030888   4.750   4.298   6.031  0.3152  0.2194  1.0011
   55MOL   C54130889   4.715   4.436   6.023 -0.0521  0.5513  0.5809
   55MOL   C54230890   4.587   4.479   6.064  0.3809 -0.9894  0.5174
   55MOL   C54330891   4.556   4.624   6.049 -0.7201 -0.3276 -0.5375
   55MOL   O54430892   4.438   4.654   6.107 -0.3319  0.0942  0.3242
   55MOL   C54530893   4.391   4.788   6.113  0.2454 -0.1304 -0.7934
   55MOL   C54630894   4.238   4.782   6.113 -0.8142 -0.4262  0.2833
   55MOL   O54730895   4.630   4.710   5.998  0.0845 -0.0171  0.2131
   55MOL   C54830896   4.492   4.385   6.101 -0.3235  0.5136  0.7498
   55MOL   C54930897   4.516   4.248   6.088  0.5547 -1.1466 -0.7432
   55MOL   C55030898   4.413   4.158   6.119 -0.0079 -0.2701 -0.0055
   55MOL   C55130899   4.443   4.023   6.119  0.2606 -0.3419  0.2473
   55MOL   H55230900   4.777   4.025   6.052 -0.3342 -1.0326 -2.0536
   55MOL   H55330901   4.849   4.264   6.004 -0.6193 -2.7144  1.1698
   55MOL   H55430902   4.789   4.507   5.990  0.1886 -0.1889 -0.5269
   55MOL   H55530903   4.444   4.844   6.036  0.3122  1.4132  0.3405
   55MOL   H55630904   4.438   4.833   6.201 -0.4192  2.7478 -1.8684
   55MOL   H55730905   4.193   4.880   6.095  1.8574  0.5797 -1.3118
   55MOL   H55830906   4.199   4.750   6.209 -0.4806  1.5889  1.1130
   55MOL   H55930907   4.390   4.417   6.113  0.1460  2.4489 -0.2965
   55MOL   H56030908   4.307   4.171   6.140 -0.2090  2.6842 -2.5248
   55MOL   H56130909   4.364   3.951   6.134  0.0514 -0.2763 -0.5086
   55MOL   H56230910   4.192   4.704   6.053  3.1388 -2.1497 -0.7221
   56MOL     O130911   5.909   7.212   5.788  0.4600 -0.4219  0.4785
   56MOL     C230912   5.902   7.305   5.709 -0.2155 -0.2330  0.0837
   56MOL     O330913   5.868   7.432   5.743 -0.7562  0.1258 -0.5649
   56MOL     C430914   5.958   7.297   5.572 -0.0118  0.3199  0.5791
   56MOL     C530915   6.019   7.407   5.503  0.4623 -0.1904 -0.1317
   56MOL     C630916   6.055   7.393   5.371  0.7473  0.1794  0.6489
   56MOL     C730917   6.098   7.500   5.295  0.1281  0.1997  0.0630
   56MOL     C830918   6.125   7.489   5.157  0.5018 -0.5404 -0.5042
   56MOL     C930919   6.118   7.364   5.097  0.1973  0.1315 -0.2778
   56MOL    C1030920   6.147   7.344   4.952 -0.0432 -0.0966  0.0312
   56MOL    O1130921   6.204   7.455   4.897 -0.0846 -0.4705 -0.1792
   56MOL    C1230922   6.252   7.454   4.768  0.7417  0.2284  0.3252
   56MOL    C1330923   6.264   7.600   4.721 -0.9492  0.5968  1.0778
   56MOL    O1430924   6.137   7.236   4.899  0.0054  0.3492  0.3416
   56MOL    C1530925   6.071   7.252   5.170  0.8030  0.6683  0.2947
   56MOL    C1630926   6.040   7.263   5.309  0.5803  0.4946  1.0311
   56MOL    C1730927   5.991   7.149   5.379  1.1179  0.1611 -0.2441
   56MOL    C1830928   5.950   7.168   5.507 -0.1229 -0.0346 -0.6649
   56MOL    H1930929   6.027   7.503   5.553 -1.3436 -0.8485  1.4837
   56MOL    H2030930   6.114   7.593   5.347  3.0041 -1.0791  1.5480
   56MOL    H2130931   6.148   7.581   5.106 -1.5660 -1.3339 -2.9500
   56MOL    H2230932   6.349   7.407   4.784 -0.0495 -1.3044  0.6807
   56MOL    H2330933   6.191   7.401   4.695  0.6979 -0.0173  0.5427
   56MOL    H2430934   6.312   7.666   4.793  2.1986  1.7870 -1.9572
   56MOL    H2530935   6.328   7.610   4.634 -1.5191 -0.5339  0.5122
   56MOL    H2630936   6.053   7.152   5.133 -2.2027  0.5092  1.9719
   56MOL    H2730937   5.972   7.056   5.329  1.0358  1.0285 -1.8424
   56MOL    H2830938   5.906   7.084   5.559  0.0665  1.2630  1.6673
   56MOL    H2930939   5.888   7.420   5.835  2.1528  0.3962 -1.1201
   56MOL    O3030940   6.173   7.640   4.452  0.0884 -0.2034  0.3311
   56MOL    C3130941   6.096   7.655   4.545 -0.1017 -0.5570  0.3586
   56MOL    O3230942   6.132   7.647   4.679 -0.0138  0.0280 -0.4505
   56MOL    C3330943   5.953   7.680   4.533 -0.4367 -0.1346 -0.4430
   56MOL    C3430944   5.871   7.677   4.647  0.4318  0.0229  0.1179
   56MOL    C3530945   5.730   7.685   4.635  0.2868  0.3849  0.0708
   56MOL    C3630946   5.642   7.667   4.748  0.0335  0.4949  0.7253
   56MOL    C3730947   5.501   7.669   4.731  0.5455  0.0995  0.1098
   56MOL    C3830948   5.442   7.673   4.605 -1.1479 -0.1834 -0.0909
   56MOL    C3930949   5.300   7.647   4.580  0.5335  1.0906  0.0853
   56MOL    O4030950   5.233   7.625   4.696 -1.0217 -0.6226 -0.5046
   56MOL    C4130951   5.099   7.594   4.700 -0.4503 -0.3817 -0.0437
   56MOL    C4230952   5.065   7.445   4.669 -0.1800 -0.0829  0.2241
   56MOL    O4330953   5.245   7.669   4.472 -0.2756  0.2663  0.0124
   56MOL    C4430954   5.532   7.702   4.497  0.3391 -0.2068 -0.7361
   56MOL    C4530955   5.667   7.704   4.507  0.2315  0.1228  0.3787
   56MOL    C4630956   5.748   7.718   4.394 -0.4753 -0.6837 -0.4355
   56MOL    C4730957   5.886   7.686   4.408  0.2179  0.7532 -0.1833
   56MOL    H4830958   5.910   7.656   4.745  2.8935  0.1063 -0.8115
   56MOL    H4930959   5.689   7.657   4.844  0.6818  0.9523  0.4579
   56MOL    H5030960   5.443   7.659   4.821 -1.1826 -0.6975 -1.0671
   56MOL    H5130961   5.027   7.660   4.652  0.7156  0.4565 -0.6772
   56MOL    H5230962   5.080   7.603   4.807 -1.0944 -3.3145  0.1043
   56MOL    H5330963   5.147   7.375   4.688 -1.4575 -2.0541 -1.3777
   56MOL    H5430964   5.002   7.413   4.753  1.8019 -0.4104  1.6252
   56MOL    H5530965   5.489   7.700   4.398  0.7851 -1.6425 -0.9073
   56MOL    H5630966   5.707   7.731   4.295 -1.5934 -1.4147 -0.0666
   56MOL    H5730967   5.945   7.691   4.317 -0.7041 -0.1039 -0.8380
   56MOL    O5830968   5.147   7.340   4.419  0.0813 -0.3954 -0.4376
   56MOL    C5930969   5.035   7.385   4.434 -0.4286  0.1967 -0.1567
   56MOL    O6030970   4.991   7.445   4.544 -0.3008 -1.1559  0.2402
   56MOL    C6130971   4.941   7.386   4.321 -0.4675  0.1504  0.1386
   56MOL    C6230972   4.983   7.409   4.189 -0.3005 -0.5280 -0.5528
   56MOL    C6330973   4.896   7.422   4.081 -0.1385  0.3888  0.2009
   56MOL    C6430974   4.949   7.450   3.951  0.5888  0.3135  0.3670
   56MOL    C6530975   4.856   7.453   3.844  0.5004  0.5152  0.6248
   56MOL    C6630976   4.720   7.415   3.865  0.4237 -0.2274  0.7316
   56MOL    C6730977   4.629   7.415   3.752 -0.7001  0.3311  0.3724
   56MOL    O6830978   4.677   7.468   3.642  0.0742 -0.4208 -0.2783
   56MOL    C6930979   4.597   7.483   3.522 -0.4876 -0.0394  0.1775
   56MOL    C7030980   4.531   7.620   3.508  0.7559  0.1468 -0.7578
   56MOL    O7130981   4.507   7.394   3.761  0.1934  0.0446 -0.1320
   56MOL    C7230982   4.672   7.393   3.994  0.0889  0.1580  0.3641
   56MOL    C7330983   4.760   7.393   4.103  0.0102  0.3958 -0.2840
   56MOL    C7430984   4.710   7.363   4.233 -0.3925 -0.7773  0.0285
   56MOL    C7530985   4.800   7.355   4.335 -0.2558 -0.8808  0.3833
   56MOL    H7630986   5.089   7.405   4.168 -0.0521  1.1155  0.2978
   56MOL    H7730987   5.055   7.466   3.937  0.2949  1.0428 -1.1524
   56MOL    H7830988   4.899   7.497   3.754 -0.8904  1.7440  0.5429
   56MOL    H7930989   4.527   7.400   3.508 -0.2087  0.3233 -3.8332
   56MOL    H8030990   4.671   7.467   3.443 -0.2928 -1.2329  0.5878
   56MOL    H8130991   4.441   7.635   3.569  0.9819 -3.6101  0.6915
   56MOL    H8230992   4.599   7.699   3.538  2.8617 -1.3898 -1.3205
   56MOL    H8330993   4.572   7.353   4.006  0.6868 -1.3119  0.5282
   56MOL    H8430994   4.608   7.337   4.257 -0.7618  0.7423  0.1327
   56MOL    H8530995   4.760   7.331   4.432  0.2664 -1.3887  0.4735
   56MOL    O8630996   4.325   7.788   3.415 -0.1214 -0.1142 -0.2584
   56MOL    C8730997   4.390   7.724   3.338  0.6012  0.3358 -0.7961
   56MOL    O8830998   4.490   7.643   3.373 -0.3515  0.2241  0.2472
   56MOL    C8930999   4.375   7.733   3.193 -0.2979  0.1975 -0.2316
   56MOL    C9031000   4.310   7.840   3.132  0.1225 -0.7384  0.4807
   56MOL    C9131001   4.292   7.832   2.992 -0.5906  0.1305  0.1347
   56MOL    C9231002   4.226   7.937   2.928  0.0182 -1.0548 -0.3576
   56MOL    C9331003   4.201   7.940   2.788  0.0737  0.3613  0.1493
   56MOL    C9431004   4.247   7.823   2.715  0.3036 -0.0689 -0.3859
   56MOL    C9531005   4.229   7.814   2.564  0.3603  0.4153  0.3133
   56MOL    O9631006   4.194   7.927   2.498  0.1473  0.1566  0.2286
   56MOL    C9731007   4.155   7.928   2.359 -0.3931 -0.1631  0.3070
   56MOL    C9831008   4.008   7.980   2.342 -1.9831  0.6830  0.7378
   56MOL    O9931009   4.250   7.708   2.515 -0.0777  0.5463  0.6604
   56MOL   C10031010   4.326   7.730   2.778  0.5090  0.1872 -0.1165
   56MOL   C10131011   4.339   7.728   2.914 -0.3257  0.7918 -0.0555
   56MOL   C10231012   4.406   7.619   2.980 -0.1384 -0.6384  0.0563
   56MOL   C10331013   4.421   7.624   3.117 -0.9133 -0.3416 -0.4441
   56MOL   H10431014   4.273   7.924   3.189  0.6659 -0.6460  0.7035
   56MOL   H10531015   4.200   8.021   2.991  1.5990 -2.6748  2.5598
   56MOL   H10631016   4.152   8.017   2.731 -0.4519 -1.4079 -1.8660
   56MOL   H10731017   4.165   7.827   2.318  0.7667 -0.1807  0.6137
   56MOL   H10831018   4.227   7.984   2.299  0.1387 -0.9818  0.1745
   56MOL   H10931019   4.014   8.087   2.363  0.7909  0.3965  1.6070
   56MOL   H11031020   3.983   7.973   2.236  0.7804 -0.5971  0.1175
   56MOL   H11131021   4.366   7.657   2.709 -2.0871 -0.0325 -1.4366
   56MOL   H11231022   4.450   7.539   2.924 -1.4108 -1.1332 -0.2700
   56MOL   H11331023   4.475   7.542   3.162  1.0252 -0.0262 -2.0746
   56MOL   O11431024   3.886   7.751   2.266 -0.2723  0.4692 -0.2756
   56MOL   C11531025   3.876   7.786   2.386 -0.1549  0.8771 -0.1347
   56MOL   O11631026   3.926   7.907   2.428 -0.1723  0.2477  0.1950
   56MOL   C11731027   3.810   7.707   2.491 -0.2123  0.2941 -0.0503
   56MOL   C11831028   3.830   7.729   2.628  0.1805 -0.3762 -0.2649
   56MOL   C11931029   3.752   7.659   2.725 -0.0772  0.3844  0.0109
   56MOL   C12031030   3.757   7.685   2.863  0.7329 -0.7725  0.0991
   56MOL   C12131031   3.666   7.623   2.948 -0.3896  0.0694  0.0595
   56MOL   C12231032   3.586   7.510   2.912 -0.5152  0.4015  0.4564
   56MOL   C12331033   3.504   7.440   3.010 -0.1735  0.1030  0.2711
   56MOL   O12431034   3.465   7.516   3.117 -0.2578  0.0135  0.8154
   56MOL   C12531035   3.386   7.470   3.229  0.4528  0.2230  0.0253
   56MOL   C12631036   3.244   7.525   3.223 -0.4032 -0.0706 -0.6601
   56MOL   O12731037   3.476   7.325   3.003  0.1069 -0.2242 -0.7372
   56MOL   C12831038   3.575   7.484   2.778 -0.0988  0.0312  0.4520
   56MOL   C12931039   3.655   7.562   2.684  0.6357 -0.1852 -0.3541
   56MOL   C13031040   3.650   7.528   2.548  0.3335  0.3748  0.4495
   56MOL   C13131041   3.722   7.607   2.454 -0.3275 -0.2313  0.7349
   56MOL   H13231042   3.909   7.800   2.648  0.3256 -0.9642  1.3058
   56MOL   H13331043   3.832   7.751   2.902 -1.0200  1.4635 -0.1885
   56MOL   H13431044   3.658   7.656   3.050  0.7798  0.1550  0.1303
   56MOL   H13531045   3.438   7.523   3.308  1.5146  2.8003 -2.2914
   56MOL   H13631046   3.390   7.362   3.243 -0.6469  0.0059 -1.1804
   56MOL   H13731047   3.195   7.513   3.320 -0.3557  1.2493 -0.4632
   56MOL   H13831048   3.237   7.631   3.199  0.6767  0.7213  2.2609
   56MOL   H13931049   3.506   7.406   2.747 -1.2044  0.8320  0.8882
   56MOL   H14031050   3.586   7.447   2.517  0.9651 -0.5529  1.5027
   56MOL   H14131051   3.710   7.567   2.354  0.9651 -3.6447  1.8613
   56MOL   O14231052   3.175   7.520   2.948  0.1420  0.3747  0.0769
   56MOL   C14331053   3.143   7.432   3.024  0.1008 -0.6143 -0.0517
   56MOL   O14431054   3.176   7.426   3.151  0.4288  0.0727  0.0422
   56MOL   C14531055   3.066   7.312   2.973  0.0600 -0.0894 -1.0057
   56MOL   C14631056   2.999   7.312   2.846  0.3463 -0.6614 -0.1244
   56MOL   C14731057   2.931   7.191   2.808 -0.0738 -0.1222 -0.6690
   56MOL   C14831058   2.873   7.172   2.680 -0.9141  0.0815  0.3523
   56MOL   C14931059   2.797   7.064   2.646  0.1797  0.6196 -0.2644
   56MOL   C15031060   2.780   6.961   2.744  0.5197  0.0963  0.3435
   56MOL   C15131061   2.707   6.834   2.706  0.3413  0.2577 -0.7043
   56MOL   O15231062   2.725   6.739   2.801 -0.2795 -0.0523  0.4554
   56MOL   C15331063   2.649   6.615   2.786 -0.9083 -0.0997 -0.5652
   56MOL   C15431064   2.515   6.628   2.860 -0.1696  1.2183 -0.4402
   56MOL   O15531065   2.642   6.819   2.598 -0.3223 -0.7745  0.0607
   56MOL   C15631066   2.835   6.977   2.873 -0.4685 -1.0001 -0.1445
   56MOL   C15731067   2.915   7.087   2.905  0.3297 -0.8209 -0.6602
   56MOL   C15831068   2.979   7.091   3.031 -0.6683 -0.1727  1.1263
   56MOL   C15931069   3.062   7.201   3.060 -0.3017 -0.4420 -0.0129
   56MOL   H16031070   3.017   7.402   2.789 -1.8657  0.8524  1.4744
   56MOL   H16131071   2.883   7.247   2.602 -2.3564 -0.6343 -0.5434
   56MOL   H16231072   2.758   7.060   2.545 -0.2352  2.2730 -0.1885
   56MOL   H16331073   2.704   6.545   2.849 -0.1233  0.5707 -0.4854
   56MOL   H16431074   2.651   6.577   2.684  0.3270  0.2119 -0.6704
   56MOL   H16531075   2.498   6.720   2.915 -0.2201  0.0841  1.4862
   56MOL   H16631076   2.433   6.622   2.788 -2.3946 -1.5564  2.1733
   56MOL   H16731077   2.816   6.895   2.940  0.2201  0.0590  1.3580
   56MOL   H16831078   2.959   7.008   3.096 -3.6085 -0.0888  0.3832
   56MOL   H16931079   3.116   7.204   3.154  2.0003  1.1535 -1.3474
   56MOL   O17031080   2.312   6.605   3.051 -0.4856 -0.3626 -0.7109
   56MOL   C17131081   2.392   6.513   3.035  0.2926 -0.2898  0.7365
   56MOL   O17231082   2.500   6.512   2.951  0.3355  0.1943  0.0734
   56MOL   C17331083   2.381   6.379   3.111  0.3627  0.3101  0.1244
   56MOL   C17431084   2.473   6.276   3.085  0.5251  0.2910 -0.1873
   56MOL   C17531085   2.474   6.157   3.168 -0.6073  0.2029  0.3213
   56MOL   C17631086   2.574   6.058   3.145  0.0071  0.1260  0.2925
   56MOL   C17731087   2.570   5.931   3.212 -0.5839 -0.3595 -0.2632
   56MOL   C17831088   2.465   5.915   3.305 -0.4542  0.1993 -0.6470
   56MOL   C17931089   2.457   5.795   3.390 -0.4945  0.3645  0.2555
   56MOL   O18031090   2.544   5.696   3.345 -0.1159 -0.2851  0.1496
   56MOL   C18131091   2.541   5.568   3.409 -0.2696 -0.8866  0.4038
   56MOL   C18231092   2.542   5.456   3.302  0.1089  0.0249  0.3184
   56MOL   O18331093   2.387   5.779   3.490  0.2674 -0.7858 -0.0768
   56MOL   C18431094   2.370   6.015   3.332  0.1173  0.0718  0.6607
   56MOL   C18531095   2.380   6.141   3.270  0.5259  1.0105 -0.5344
   56MOL   C18631096   2.286   6.239   3.288  0.6787 -0.1531 -0.4991
   56MOL   C18731097   2.290   6.360   3.216  0.6693  0.6166  0.1084
   56MOL   H18831098   2.548   6.288   3.008  1.2237 -3.1893 -0.1420
   56MOL   H18931099   2.653   6.080   3.074 -1.4683 -3.0001 -2.4411
   56MOL   H19031100   2.640   5.854   3.185  1.5957  1.2203  0.6829
   56MOL   H19131101   2.451   5.548   3.467  1.6568 -1.2192  3.3520
   56MOL   H19231102   2.616   5.548   3.485 -0.6962  2.8317  1.9290
   56MOL   H19331103   2.524   5.356   3.344  0.5176 -0.2687 -0.2036
   56MOL   H19431104   2.470   5.477   3.223 -1.3713 -1.8885  1.1069
   56MOL   H19531105   2.298   5.993   3.410 -0.3466 -1.9144 -0.3080
   56MOL   H19631106   2.209   6.226   3.363  1.9002  2.8135  1.3590
   56MOL   H19731107   2.229   6.443   3.247 -1.7353 -1.8697  2.2866
   56MOL   O19831108   2.609   5.296   3.113  0.2865  0.0922 -0.1070
   56MOL   C19931109   2.694   5.380   3.146 -0.1829  0.0068  0.1550
   56MOL   O20031110   2.670   5.467   3.245 -0.1368  0.1969 -0.1461
   56MOL   C20131111   2.827   5.389   3.078  0.3823  0.0558  0.7422
   56MOL   C20231112   2.912   5.496   3.103  0.3949 -0.6890  0.3706
   56MOL   C20331113   3.039   5.507   3.037 -0.4075 -0.6054 -0.8487
   56MOL   C20431114   3.125   5.620   3.050 -0.9843  0.3505  1.2539
   56MOL   C20531115   3.247   5.618   2.981  0.4536  0.0397  0.4776
   56MOL   C20631116   3.290   5.507   2.903 -0.1443 -0.0420  0.7534
   56MOL   C20731117   3.414   5.518   2.825  0.2797  1.5411 -0.5320
   56MOL   O20831118   3.479   5.627   2.845  0.6687  0.8013  0.1524
   56MOL   C20931119   3.560   5.681   2.739 -0.6839 -0.0627  0.3224
   56MOL   C21031120   3.483   5.743   2.630 -0.3254  0.6552  0.3450
   56MOL   O21131121   3.442   5.439   2.734  0.4849  0.1033 -0.4930
   56MOL   C21231122   3.203   5.396   2.884  0.1072 -0.3586  0.6533
   56MOL   C21331123   3.077   5.399   2.949  0.1404  0.2776 -0.1986
   56MOL   C21431124   2.986   5.294   2.925 -0.3302 -0.1062 -0.1530
   56MOL   C21531125   2.862   5.288   2.988 -0.3749 -0.2824  0.2958
   56MOL   H21631126   2.888   5.573   3.175  0.9138  0.1386 -0.3261
   56MOL   H21731127   3.107   5.707   3.111  1.2125  1.2536  0.6661
   56MOL   H21831128   3.315   5.702   2.988  0.2581  0.3048 -0.6837
   56MOL   H21931129   3.625   5.603   2.700 -1.0728 -0.2095 -0.0250
   56MOL   H22031130   3.613   5.766   2.783 -0.7637  0.6504 -0.9240
   56MOL   H22131131   3.438   5.662   2.572 -1.0630  1.8229 -0.7383
   56MOL   H22231132   3.392   5.789   2.670 -0.6712  0.1388  0.1601
   56MOL   H22331133   3.233   5.318   2.816  0.5437 -2.2456  2.9445
   56MOL   H22431134   3.027   5.227   2.850  0.8087  0.1750  0.2076
   56MOL   H22531135   2.789   5.214   2.960 -0.0478  0.3530 -2.3537
   56MOL   O22631136   3.395   5.850   2.410 -0.1111 -0.5651 -0.1379
   56MOL   C22731137   3.502   5.898   2.454  0.1655  0.5437 -0.2450
   56MOL   O22831138   3.560   5.846   2.563  0.9392  0.1636  0.0253
   56MOL   C22931139   3.570   6.016   2.395  0.4437  0.0786 -0.4178
   56MOL   C23031140   3.512   6.077   2.278  0.0872  0.5949 -0.2438
   56MOL   C23131141   3.579   6.184   2.217 -0.4444  0.3227 -0.0214
   56MOL   C23231142   3.541   6.230   2.094  0.0654 -0.0223  0.1883
   56MOL   C23331143   3.610   6.329   2.030  0.3047 -0.2196 -0.4416
   56MOL   C23431144   3.719   6.399   2.092 -0.2697 -0.1427  0.7681
   56MOL   C23531145   3.787   6.509   2.025 -0.1400 -0.3180  0.3335
   56MOL   O23631146   3.918   6.530   2.068  0.4231  0.9037 -0.4945
   56MOL   C23731147   3.988   6.632   1.997 -0.1019  0.0771  0.7326
   56MOL   C23831148   4.083   6.589   1.884  0.4835  0.4667 -0.3958
   56MOL   O23931149   3.741   6.562   1.926  0.1815  0.4362  0.1350
   56MOL   C24031150   3.753   6.355   2.223 -0.2241  0.3675  0.4372
   56MOL   C24131151   3.694   6.240   2.284 -0.7287  0.5563  0.2217
   56MOL   C24231152   3.739   6.187   2.404 -0.4787  0.6464  0.2709
   56MOL   C24331153   3.682   6.073   2.457 -0.1173  0.0272 -0.2457
   56MOL   H24431154   3.422   6.033   2.237  0.1812 -0.2959  0.5111
   56MOL   H24531155   3.452   6.184   2.052 -2.0095  0.3023  4.0676
   56MOL   H24631156   3.581   6.354   1.929  1.0761 -1.1943 -0.9101
   56MOL   H24731157   4.045   6.691   2.068  1.9415 -1.0745  0.1055
   56MOL   H24831158   3.921   6.701   1.946 -2.1848 -1.7172  0.9778
   56MOL   H24931159   4.048   6.505   1.824  1.0677  0.5768 -0.9023
   56MOL   H25031160   4.103   6.672   1.816  0.1336  2.2508  1.6607
   56MOL   H25131161   3.832   6.412   2.270  0.2777  1.0848 -1.2441
   56MOL   H25231162   3.825   6.223   2.459 -0.2482  0.9525 -0.2905
   56MOL   H25331163   3.716   6.040   2.554  1.1649  0.6244 -0.4775
   56MOL   O25431164   4.313   6.481   1.770 -0.3048  0.5333  0.2757
   56MOL   C25531165   4.307   6.517   1.884 -0.4928 -0.3869  0.4152
   56MOL   O25631166   4.201   6.570   1.954 -0.3077 -0.2152 -0.2917
   56MOL   C25731167   4.428   6.517   1.971  0.8737  0.9284  0.2639
   56MOL   C25831168   4.424   6.550   2.106 -0.4902  0.8532 -0.1105
   56MOL   C25931169   4.540   6.526   2.189 -0.0144  0.1249 -0.0278
   56MOL   C26031170   4.552   6.571   2.318 -0.6930  0.6993 -0.3159
   56MOL   C26131171   4.667   6.556   2.394  0.7460 -0.2419 -0.1281
   56MOL   C26231172   4.783   6.503   2.341 -0.1269  0.2224  0.6824
   56MOL   C26331173   4.898   6.484   2.429 -0.0208  0.2272 -0.5164
   56MOL   O26431174   5.009   6.440   2.368 -0.0432  0.1597 -0.2202
   56MOL   C26531175   5.099   6.364   2.438 -0.3291 -0.1497 -0.2193
   56MOL   C26631176   5.218   6.445   2.500 -0.2376 -0.2918  0.7435
   56MOL   O26731177   4.903   6.503   2.553  0.3539 -0.0626 -0.2636
   56MOL   C26831178   4.776   6.465   2.206 -0.4474  0.3914  0.4680
   56MOL   C26931179   4.657   6.480   2.130  0.0930 -0.8293  0.3228
   56MOL   C27031180   4.667   6.464   1.994 -0.5177  0.0176  0.3904
   56MOL   C27131181   4.552   6.482   1.911 -0.6893  0.0896 -1.0496
   56MOL   H27231182   4.335   6.592   2.152  0.0182  2.6864 -0.7583
   56MOL   H27331183   4.459   6.611   2.358 -1.4823  0.9231 -2.3271
   56MOL   H27431184   4.666   6.588   2.497  1.6864 -0.7550  0.0445
   56MOL   H27531185   5.132   6.279   2.377  0.4073  0.1361 -0.2214
   56MOL   H27631186   5.052   6.319   2.526 -1.9137  1.0230 -0.4528
   56MOL   H27731187   5.293   6.465   2.423 -0.7805 -0.5672  0.1341
   56MOL   H27831188   5.183   6.543   2.533  1.4022 -0.2275  2.3411
   56MOL   H27931189   4.870   6.425   2.171  0.6975  3.1431  0.3168
   56MOL   H28031190   4.764   6.441   1.952 -0.5778  1.4854 -0.5957
   56MOL   H28131191   4.564   6.451   1.808  3.1139 -0.6238 -0.4654
   56MOL   O28231192   5.401   6.215   2.531  0.4625  0.0268 -0.3705
   56MOL   C28331193   5.333   6.255   2.624  0.5771  0.1292 -0.3986
   56MOL   O28431194   5.258   6.376   2.617 -0.3407 -0.1412 -0.2683
   56MOL   C28531195   5.321   6.180   2.755  0.0753  0.5912 -0.0848
   56MOL   C28631196   5.342   6.042   2.748  0.7036 -0.1990 -0.8665
   56MOL   C28731197   5.350   5.976   2.871 -0.1343 -0.7881 -0.4113
   56MOL   C28831198   5.391   5.840   2.876 -0.4705 -0.5318  0.1320
   56MOL   C28931199   5.391   5.772   2.998 -0.3090 -0.5953 -0.1572
   56MOL   C29031200   5.357   5.827   3.120  0.4003 -0.2684  0.0248
   56MOL   C29131201   5.342   5.750   3.241  0.6427 -0.3760 -0.0833
   56MOL   O29231202   5.331   5.614   3.213  0.3347 -0.5162  0.0110
   56MOL   C29331203   5.283   5.526   3.318  0.3071  0.4077 -0.1375
   56MOL   C29431204   5.154   5.465   3.274 -0.5891 -0.1456 -0.1099
   56MOL   O29531205   5.323   5.793   3.350 -0.2630  0.2616  0.1256
   56MOL   C29631206   5.327   5.967   3.116  0.5852 -0.2456 -0.1964
   56MOL   C29731207   5.313   6.040   2.993 -0.5003 -0.8498  0.2068
   56MOL   C29831208   5.275   6.173   2.993 -0.3961 -0.0132  0.3092
   56MOL   C29931209   5.286   6.244   2.873 -0.6613  0.7309  0.4385
   56MOL   H30031210   5.360   5.984   2.659 -0.8129  0.1994 -1.4452
   56MOL   H30131211   5.417   5.780   2.790 -0.5984  0.1385 -0.3788
   56MOL   H30231212   5.416   5.668   2.985 -2.5968 -1.4844  2.1255
   56MOL   H30331213   5.262   5.581   3.410 -0.6846 -0.4268  0.1361
   56MOL   H30431214   5.357   5.449   3.342 -0.3593  0.0992  0.9590
   56MOL   H30531215   5.174   5.393   3.194 -0.3688 -0.4584  0.2278
   56MOL   H30631216   5.110   5.417   3.361 -0.4479 -1.7431 -0.8929
   56MOL   H30731217   5.286   6.015   3.203 -1.3905  1.2203 -1.8724
   56MOL   H30831218   5.251   6.231   3.081  0.4676  0.4126  0.2725
   56MOL   H30931219   5.243   6.341   2.856 -1.3837 -0.0133 -2.2075
   56MOL   O31031220   4.981   5.589   3.434 -0.6521 -0.3103  0.0040
   56MOL   C31131221   5.003   5.634   3.319  0.9675  0.1770  0.6010
   56MOL   O31231222   5.067   5.566   3.231 -0.1577  0.2419  0.3385
   56MOL   C31331223   4.967   5.770   3.281 -0.2401  0.4167 -0.7414
   56MOL   C31431224   4.920   5.872   3.369 -0.1927 -0.6873 -0.0684
   56MOL   C31531225   4.922   6.006   3.333  0.0235 -0.3706  0.1740
   56MOL   C31631226   4.867   6.103   3.421 -0.1393  0.5068 -0.1178
   56MOL   C31731227   4.882   6.240   3.390  0.5739 -0.8417  0.1699
   56MOL   C31831228   4.937   6.281   3.269  0.7312 -0.0320  0.3507
   56MOL   C31931229   4.964   6.424   3.239  0.4087 -0.8677 -0.2686
   56MOL   O32031230   5.034   6.452   3.127 -0.5743  0.2183 -0.4417
   56MOL   C32131231   5.067   6.582   3.077  0.6112 -0.0666 -0.6586
   56MOL   C32231232   4.954   6.636   2.979 -0.8651 -0.0374  0.4205
   56MOL   O32331233   4.937   6.516   3.314 -0.1364  0.0195  0.3128
   56MOL   C32431234   4.971   6.186   3.174  0.0374  0.4789  0.8264
   56MOL   C32531235   4.957   6.050   3.206 -0.8966  0.0522  0.1885
   56MOL   C32631236   4.985   5.950   3.111  0.0923  0.5214 -0.5539
   56MOL   C32731237   5.001   5.812   3.152  0.3470 -0.0776 -0.4239
   56MOL   H32831238   4.884   5.850   3.469  1.9097  1.1601  1.1438
   56MOL   H32931239   4.830   6.072   3.518  1.4675  1.7312  0.9108
   56MOL   H33031240   4.861   6.319   3.460  0.5778 -0.5321 -0.1712
   56MOL   H33131241   5.159   6.558   3.025  1.3828  2.9985 -0.8178
   56MOL   H33231242   5.112   6.653   3.147  1.2968 -1.0429 -0.0973
   56MOL   H33331243   4.991   6.714   2.912  0.7380 -2.1996 -1.2967
   56MOL   H33431244   4.936   6.549   2.915  1.6832 -2.7362  3.2213
   56MOL   H33531245   5.001   6.208   3.073  0.0926  2.0497  1.1781
   56MOL   H33631246   5.026   5.977   3.014  0.4620  2.4578  0.1347
   56MOL   H33731247   5.053   5.757   3.075  0.1099  2.6154 -2.5767
   56MOL   O33831248   4.903   6.866   3.138  0.4555 -1.6746 -0.3994
   56MOL   C33931249   4.819   6.777   3.125 -0.5343  0.3516  0.0796
   56MOL   O34031250   4.832   6.668   3.046 -0.1524  0.3454 -0.0563
   56MOL   C34131251   4.698   6.758   3.203  0.4413 -0.1331  0.4443
   56MOL   C34231252   4.571   6.726   3.142 -0.2802  0.9659 -0.4867
   56MOL   C34331253   4.456   6.693   3.217  0.1982  0.8808 -0.0152
   56MOL   C34431254   4.332   6.658   3.161 -0.6604  0.0363 -0.3872
   56MOL   C34531255   4.227   6.611   3.242  0.4709 -0.2632 -0.1336
   56MOL   C34631256   4.240   6.625   3.383 -0.5484  0.2778 -1.3513
   56MOL   C34731257   4.114   6.593   3.466  0.0792  0.2242  1.0097
   56MOL   O34831258   4.133   6.613   3.596  0.2673 -0.3625  0.1515
   56MOL   C34931259   4.045   6.554   3.687 -0.2548 -0.2276 -0.7522
   56MOL   C35031260   4.104   6.436   3.745  0.5315  0.6262  0.1674
   56MOL   O35131261   4.009   6.539   3.413 -0.0786 -0.2104 -0.3562
   56MOL   C35231262   4.360   6.677   3.438 -0.8738 -0.2811 -0.2446
   56MOL   C35331263   4.471   6.698   3.362  0.2225 -0.0292  0.1133
   56MOL   C35431264   4.595   6.731   3.423 -0.3488 -0.0323 -0.1555
   56MOL   C35531265   4.711   6.766   3.346 -0.5352  0.0355 -0.0041
   56MOL   H35631266   4.562   6.740   3.035 -0.3831  2.9911 -0.2378
   56MOL   H35731267   4.326   6.655   3.053 -1.1709 -1.7232 -0.3251
   56MOL   H35831268   4.132   6.592   3.196  0.3382 -0.3394  0.1746
   56MOL   H35931269   3.942   6.533   3.659 -0.5739 -2.4761  1.8840
   56MOL   H36031270   4.037   6.640   3.753 -0.2460 -1.1010  0.4010
   56MOL   H36131271   4.038   6.406   3.827 -0.3108  1.1457 -0.3123
   56MOL   H36231272   4.111   6.357   3.671  1.8180  1.0533 -0.1709
   56MOL   H36331273   4.357   6.694   3.545  0.4400  1.3019 -0.4522
   56MOL   H36431274   4.611   6.735   3.529  3.1242  0.0763 -0.6267
   56MOL   H36531275   4.808   6.781   3.389 -0.2903 -1.8087  0.1269
   56MOL   O36631276   4.168   6.524   4.006 -0.5894 -0.2793  0.0753
   56MOL   C36731277   4.254   6.505   3.919  0.8266  0.5797  0.2145
   56MOL   O36831278   4.234   6.461   3.800 -0.7079  0.0162  0.3873
   56MOL   C36931279   4.400   6.531   3.940 -0.0809  0.6389  0.3590
   56MOL   C37031280   4.447   6.531   4.069 -0.3112  1.7154 -0.4357
   56MOL   C37131281   4.572   6.582   4.100 -0.1025  0.4776 -0.0285
   56MOL   C37231282   4.620   6.590   4.231 -0.2119  0.4280  0.1895
   56MOL   C37331283   4.751   6.637   4.260  0.4362  0.1968 -0.7819
   56MOL   C37431284   4.834   6.680   4.158 -0.0050 -0.4252 -0.4321
   56MOL   C37531285   4.969   6.740   4.191 -0.1272 -0.6961  0.0474
   56MOL   O37631286   5.022   6.806   4.083  0.2375  0.3972  0.1231
   56MOL   C37731287   5.125   6.900   4.107 -0.3354 -0.1383  0.1415
   56MOL   C37831288   5.190   6.927   3.974 -0.7125 -0.1152 -0.4040
   56MOL   O37931289   5.014   6.744   4.304 -0.0967 -0.8353 -0.0706
   56MOL   C38031290   4.783   6.670   4.027 -0.5758  0.0372 -0.4743
   56MOL   C38131291   4.657   6.620   3.993  0.3229 -0.4502  0.6890
   56MOL   C38231292   4.613   6.614   3.860 -0.2863  0.0820  0.0240
   56MOL   C38331293   4.481   6.575   3.835 -0.0928 -0.8903 -0.1620
   56MOL   H38431294   4.390   6.490   4.151  1.8204  1.0880  0.7859
   56MOL   H38531295   4.561   6.571   4.319  2.0737  1.5936  1.9966
   56MOL   H38631296   4.776   6.639   4.365 -1.8586 -0.7524 -0.1809
   56MOL   H38731297   5.204   6.855   4.167 -2.3520 -0.3406  2.7112
   56MOL   H38831298   5.078   6.983   4.158  1.0293  1.4969 -1.2130
   56MOL   H38931299   5.278   6.989   3.991  0.9124 -2.7509  1.1888
   56MOL   H39031300   5.230   6.833   3.936 -2.1369 -0.2751 -1.5507
   56MOL   H39131301   4.855   6.692   3.949  1.0428 -3.0394  0.0781
   56MOL   H39231302   4.674   6.653   3.779 -2.9951  0.5310 -1.8452
   56MOL   H39331303   4.448   6.569   3.733 -1.3366 -0.9935  0.2430
   56MOL   O39431304   5.236   7.044   3.730 -0.2689 -0.0930 -0.1536
   56MOL   C39531305   5.123   7.037   3.769 -0.7617  0.3656  0.2192
   56MOL   O39631306   5.092   6.989   3.895 -0.5178 -0.0220  0.1273
   56MOL   C39731307   4.998   7.067   3.689 -0.8681 -0.3465 -0.6262
   56MOL   C39831308   5.001   7.105   3.553 -0.3379 -0.1780 -0.3953
   56MOL   C39931309   4.881   7.114   3.479 -0.1065  0.2872 -0.1397
   56MOL   C40031310   4.880   7.131   3.339  0.0802 -0.0223 -0.4965
   56MOL   C40131311   4.757   7.129   3.264 -0.2219 -0.5637 -0.1090
   56MOL   C40231312   4.634   7.121   3.336  0.2153 -0.0190  0.1054
   56MOL   C40331313   4.512   7.113   3.253 -0.0097  0.7539  0.5324
   56MOL   O40431314   4.411   7.055   3.316  0.6025 -0.1313  0.2591
   56MOL   C40531315   4.291   7.048   3.250  0.2296 -0.4489 -0.1829
   56MOL   C40631316   4.209   7.176   3.255  0.6058 -0.4030 -0.0720
   56MOL   O40731317   4.506   7.166   3.139  0.1968 -0.2130 -0.0624
   56MOL   C40831318   4.634   7.105   3.476  0.9596 -0.4761  0.3988
   56MOL   C40931319   4.756   7.100   3.545  0.3240  0.2991  0.2842
   56MOL   C41031320   4.752   7.072   3.683 -0.5179  0.4818  0.0743
   56MOL   C41131321   4.875   7.052   3.749 -0.0377 -0.1502 -0.1162
   56MOL   H41231322   5.100   7.126   3.514 -0.7589  1.7764 -0.4616
   56MOL   H41331323   4.975   7.139   3.287  0.7283  0.7631  0.8012
   56MOL   H41431324   4.751   7.134   3.157  0.7353 -1.9822 -0.2343
   56MOL   H41531325   4.242   6.957   3.284 -3.4237  0.5329 -2.5058
   56MOL   H41631326   4.311   7.020   3.146  3.9327 -1.7424  0.7908
   56MOL   H41731327   4.254   7.264   3.209  1.5651 -1.3080 -0.8585
   56MOL   H41831328   4.113   7.166   3.204  1.3028 -0.9316 -1.2844
   56MOL   H41931329   4.541   7.097   3.531  0.4989 -0.9006 -0.4230
   56MOL   H42031330   4.664   7.049   3.741 -0.4407 -0.4918 -0.1855
   56MOL   H42131331   4.863   7.031   3.854  1.7605  0.1609  0.1738
   56MOL   O42231332   4.309   7.351   3.407  0.2940 -0.4186  0.4412
   56MOL   C42331333   4.207   7.295   3.448 -1.3299  0.1528 -0.8319
   56MOL   O42431334   4.156   7.198   3.384 -0.0628 -0.3594  0.0187
   56MOL   C42531335   4.125   7.337   3.567 -0.1287  0.1099  0.4360
   56MOL   C42631336   4.005   7.274   3.606  1.0353 -0.1498  0.8095
   56MOL   C42731337   3.931   7.318   3.711 -0.5430  0.4537 -0.4587
   56MOL   C42831338   3.820   7.247   3.764  0.0035 -0.4298  0.4329
   56MOL   C42931339   3.737   7.311   3.860  0.5465  0.7091 -0.5440
   56MOL   C43031340   3.772   7.432   3.916 -0.4074 -0.3158 -0.8484
   56MOL   C43131341   3.692   7.490   4.025 -0.0289 -0.2204  0.0480
   56MOL   O43231342   3.746   7.596   4.091 -0.5311 -0.1758 -0.0412
   56MOL   C43331343   3.699   7.643   4.213  0.3446  0.3685 -0.1479
   56MOL   C43431344   3.749   7.561   4.340 -0.8270  0.0355  0.2658
   56MOL   O43531345   3.579   7.437   4.054 -0.1515 -0.3715  0.0732
   56MOL   C43631346   3.887   7.498   3.872 -0.1537  0.2327  0.4519
   56MOL   C43731347   3.966   7.441   3.771 -0.3297 -0.5071 -0.1374
   56MOL   C43831348   4.084   7.513   3.734 -0.0318 -0.4043  0.2745
   56MOL   C43931349   4.164   7.460   3.628 -0.5221 -0.0405  0.0178
   56MOL   H44031350   3.979   7.183   3.553  0.7093  0.0834  0.5631
   56MOL   H44131351   3.790   7.154   3.719  0.8622  0.1459 -1.4002
   56MOL   H44231352   3.652   7.258   3.902  0.3711  0.5411 -1.0997
   56MOL   H44331353   3.591   7.641   4.199 -0.0621  0.3638  2.6153
   56MOL   H44431354   3.738   7.745   4.213 -0.7255  0.8064 -1.8410
   56MOL   H44531355   3.857   7.570   4.342 -0.3193 -4.5307 -0.4798
   56MOL   H44631356   3.715   7.598   4.436 -3.4613  1.2204 -1.0618
   56MOL   H44731357   3.915   7.591   3.917  0.2016  0.8365 -0.9950
   56MOL   H44831358   4.120   7.599   3.788 -0.7160  0.0025  0.0798
   56MOL   H44931359   4.252   7.510   3.592 -0.8933  0.5148 -0.1310
   56MOL   O45031360   3.525   7.468   4.451 -0.1597  0.6730  0.0300
   56MOL   C45131361   3.601   7.382   4.400  1.0747 -0.1351 -0.3205
   56MOL   O45231362   3.714   7.419   4.343  0.0406  0.7812  0.5302
   56MOL   C45331363   3.563   7.238   4.366 -0.1370  0.9108 -0.7842
   56MOL   C45431364   3.434   7.175   4.391  0.1822 -0.8075  0.4673
   56MOL   C45531365   3.408   7.043   4.354 -0.7152 -0.0341 -0.3823
   56MOL   C45631366   3.279   6.995   4.372 -0.9962 -0.1956  0.2128
   56MOL   C45731367   3.247   6.866   4.343 -0.0252 -0.2235 -0.8737
   56MOL   C45831368   3.349   6.770   4.305 -0.6941 -0.9600 -0.2068
   56MOL   C45931369   3.313   6.626   4.270  0.0782 -0.7370 -0.0100
   56MOL   O46031370   3.185   6.607   4.272  0.4220 -0.1302  0.1580
   56MOL   C46131371   3.131   6.476   4.283  0.0883 -0.0615  0.4938
   56MOL   C46231372   2.994   6.470   4.216 -1.1716  0.4709  0.0168
   56MOL   O46331373   3.401   6.543   4.240 -0.1685  0.0546 -0.4451
   56MOL   C46431374   3.475   6.817   4.273 -0.3031  0.1173 -0.2734
   56MOL   C46531375   3.511   6.957   4.301  0.1171 -0.1019 -0.0961
   56MOL   C46631376   3.638   7.011   4.283 -0.6715  0.0761  0.2746
   56MOL   C46731377   3.663   7.150   4.313  0.0848  0.3531  0.4533
   56MOL   H46831378   3.350   7.230   4.430  0.2040 -1.1981  1.0631
   56MOL   H46931379   3.199   7.062   4.401 -0.7787 -0.4362  1.3887
   56MOL   H47031380   3.146   6.831   4.359 -1.4683  3.0919 -2.2701
   56MOL   H47131381   3.131   6.458   4.391  1.1424 -0.9386  0.3592
   56MOL   H47231382   3.198   6.401   4.240 -2.9954 -1.6631 -1.7195
   56MOL   H47331383   2.977   6.551   4.146 -0.6559  3.0119  2.7271
   56MOL   H47431384   2.994   6.379   4.157  3.0075  0.1590  0.3472
   56MOL   H47531385   3.536   6.743   4.223 -0.0038 -0.0534  0.3462
   56MOL   H47631386   3.713   6.946   4.241  0.3875  1.6761 -0.3648
   56MOL   H47731387   3.765   7.182   4.296  0.6594 -0.1449  2.8000
   56MOL   O47831388   2.905   6.679   4.358  0.1060 -0.4448 -0.1221
   56MOL   C47931389   2.860   6.564   4.386 -0.4152 -0.3854  0.4613
   56MOL   O48031390   2.898   6.456   4.314  0.0495  0.3880 -0.4104
   56MOL   C48131391   2.767   6.536   4.495  0.3980 -0.4183  0.2944
   56MOL   C48231392   2.722   6.635   4.579 -0.4342 -0.9760  0.3405
   56MOL   C48331393   2.641   6.599   4.690  0.4629 -0.1350 -0.2642
   56MOL   C48431394   2.590   6.692   4.784 -0.1778 -0.0664  0.0671
   56MOL   C48531395   2.494   6.661   4.885  0.1544  0.2222 -0.4573
   56MOL   C48631396   2.458   6.529   4.908  0.1296  0.4714 -0.1490
   56MOL   C48731397   2.378   6.488   5.025  0.2361 -0.2253 -0.0358
   56MOL   O48831398   2.302   6.587   5.073  0.0081 -0.0152 -0.4493
   56MOL   C48931399   2.217   6.572   5.184  0.5760 -0.4535  0.2120
   56MOL   C49031400   2.270   6.636   5.311 -0.1674  0.6103  0.6910
   56MOL   O49131401   2.380   6.376   5.077 -0.1608  0.6039  0.0841
   56MOL   C49231402   2.507   6.429   4.816 -0.4576 -0.3102 -0.1335
   56MOL   C49331403   2.604   6.463   4.717 -0.2125 -0.3148 -0.0867
   56MOL   C49431404   2.647   6.365   4.630 -0.8632 -0.5644 -0.2932
   56MOL   C49531405   2.729   6.406   4.519 -0.0975 -1.3575  0.1999
   56MOL   H49631406   2.756   6.737   4.567 -0.9607 -0.7490  0.7538
   56MOL   H49731407   2.631   6.791   4.769  3.5505 -1.6785 -1.1965
   56MOL   H49831408   2.458   6.739   4.952  1.2645  0.1261  0.2678
   56MOL   H49931409   2.198   6.467   5.209  1.1055 -0.6035 -0.0082
   56MOL   H50031410   2.130   6.630   5.153  0.4496 -0.2026  1.0065
   56MOL   H50131411   2.211   6.608   5.398  0.5424  0.0378  0.9921
   56MOL   H50231412   2.374   6.607   5.327 -0.6832 -0.3826  2.4510
   56MOL   H50331413   2.485   6.324   4.822  1.0363 -0.5649  1.4683
   56MOL   H50431414   2.618   6.261   4.642  1.4158 -1.4408 -1.8877
   56MOL   H50531415   2.750   6.329   4.446 -3.8611 -1.4358 -0.9411
   56MOL   O50631416   2.104   6.813   5.452 -0.2864 -0.0737  0.8381
   56MOL   C50731417   2.167   6.850   5.355  0.4663 -0.1786 -0.0559
   56MOL   O50831418   2.263   6.779   5.295  0.3583  0.5034 -0.3200
   56MOL   C50931419   2.141   6.984   5.295  0.3593  0.5554 -0.1169
   56MOL   C51031420   2.188   7.013   5.165 -0.5663 -0.2317  0.1582
   56MOL   C51131421   2.154   7.137   5.103 -0.4463 -0.5365 -0.5329
   56MOL   C51231422   2.187   7.161   4.971 -0.2258 -1.2077 -0.0943
   56MOL   C51331423   2.162   7.289   4.914  0.1340  0.0203 -0.3165
   56MOL   C51431424   2.096   7.388   4.989  0.2738  0.0350  1.0399
   56MOL   C51531425   2.056   7.522   4.928 -0.6733  0.3414  0.0438
   56MOL   O51631426   1.971   7.595   5.008  0.3740  0.0398 -0.3485
   56MOL   C51731427   1.905   7.713   4.959 -0.3206 -0.1310  0.4140
   56MOL   C51831428   1.988   7.831   5.027  0.1480 -0.1252  0.3297
   56MOL   O51931429   2.111   7.570   4.832 -0.0643 -0.6861 -0.0345
   56MOL   C52031430   2.051   7.357   5.122  1.1224  0.0625 -0.1505
   56MOL   C52131431   2.078   7.232   5.176 -0.3707  0.0728  0.2584
   56MOL   C52231432   2.040   7.205   5.308  0.1746 -0.4073  0.1990
   56MOL   C52331433   2.052   7.077   5.360 -0.2187 -0.5029 -0.0625
   56MOL   H52431434   2.250   6.943   5.112 -0.0971  0.1664  0.1717
   56MOL   H52531435   2.225   7.083   4.906  0.6262 -1.6016  0.8638
   56MOL   H52631436   2.196   7.308   4.813 -0.8012  0.9392 -0.4620
   56MOL   H52731437   1.802   7.710   4.995 -0.9300 -1.4491 -1.3626
   56MOL   H52831438   1.898   7.721   4.851  1.9282 -0.8252  0.1828
   56MOL   H52931439   1.942   7.930   5.019 -1.1349 -0.9122 -2.7653
   56MOL   H53031440   1.994   7.801   5.131 -2.2351  0.4822  0.6776
   56MOL   H53131441   1.996   7.425   5.186  2.2017  0.9476 -0.1399
   56MOL   H53231442   1.974   7.271   5.362 -0.3368 -1.1620  0.5034
   56MOL   H53331443   2.009   7.053   5.456 -1.8604  0.0557 -0.6405
   56MOL   O53431444   2.081   7.967   4.803  0.0501  0.3299  0.3607
   56MOL   C53531445   2.160   7.904   4.875  0.9547 -0.1872 -0.2618
   56MOL   O53631446   2.125   7.839   4.990  0.3856 -0.3779 -0.2137
   56MOL   C53731447   2.310   7.906   4.856 -0.8021  0.2361  0.3491
   56MOL   C53831448   2.366   7.909   4.728  0.1664 -1.2305  0.3553
   56MOL   C53931449   2.502   7.941   4.714 -0.0266  0.1530  0.5753
   56MOL   C54031450   2.560   7.954   4.586  0.5598  0.6321 -0.5423
   56MOL   C54131451   2.691   8.004   4.576 -0.4192 -0.6655 -0.8426
   56MOL   C54231452   2.759   8.051   4.695 -0.1198 -0.4072  0.2368
   56MOL   C54331453   2.891   8.116   4.671  0.8976  0.3877  0.4920
   56MOL   O54431454   2.960   8.159   4.780 -0.1546  0.3713 -0.4522
   56MOL   C54531455   3.098   8.193   4.780 -0.4604  0.3085  0.5807
   56MOL   C54631456   3.107   0.086   4.837 -0.2198  0.0940  0.0536
   56MOL   O54731457   2.932   8.138   4.560 -0.0568 -0.0883  0.3481
   56MOL   C54831458   2.709   8.027   4.826 -0.5705 -0.7442  0.3590
   56MOL   C54931459   2.579   7.970   4.837  0.0653  0.0348 -0.6580
   56MOL   C55031460   2.521   7.943   4.966 -0.8120 -0.2863  0.2558
   56MOL   C55131461   2.386   7.909   4.974  0.2872 -0.0590 -0.6042
   56MOL   H55231462   2.303   7.899   4.641 -0.6133  0.2859  0.7156
   56MOL   H55331463   2.487   7.925   4.512  1.1351 -1.2304 -0.4085
   56MOL   H55431464   2.734   8.012   4.477 -2.8517 -0.2603 -1.9165
   56MOL   H55531465   3.139   8.189   4.679  1.5806 -2.3335  1.4578
   56MOL   H55631466   3.160   8.119   4.830 -0.4760  0.3903  0.7215
   56MOL   H55731467   3.200   0.141   4.827  1.4948 -2.6343  0.3207
   56MOL   H55831468   3.084   0.077   4.943 -1.3377  0.5137 -0.1404
   56MOL   H55931469   2.762   8.051   4.917 -1.7429  1.2465  0.5424
   56MOL   H56031470   2.582   7.951   5.054  0.2017  0.2413 -0.4860
   56MOL   H56131471   2.345   7.885   5.071 -1.4455 -0.1015 -1.3315
   56MOL   H56231472   3.039   0.155   4.787 -0.9918 -1.6886 -1.4440
   57MOL     O131473   6.292   6.749   6.375 -0.4159  0.1430 -0.0720
   57MOL     C231474   6.347   6.638   6.384  0.3493 -0.5702 -0.2588
   57MOL     O331475   6.307   6.530   6.317  0.0597 -0.0498  0.6389
   57MOL     C431476   6.463   6.619   6.475 -0.1803  0.6463 -0.2152
   57MOL     C531477   6.490   6.712   6.576 -0.4543 -0.4500 -0.1414
   57MOL     C631478   6.586   6.678   6.672  0.1271 -0.1177 -0.7650
   57MOL     C731479   6.599   6.763   6.787  0.1775 -0.4153 -0.0069
   57MOL     C831480   6.699   6.737   6.881 -0.0177  0.9461  0.1492
   57MOL     C931481   6.785   6.628   6.878 -0.8476 -0.5214  0.6656
   57MOL    C1031482   6.896   6.611   6.971 -0.3634 -0.6783 -0.4857
   57MOL    O1131483   6.969   6.507   6.938  0.1369  0.0671  0.0506
   57MOL    C1231484   7.100   6.496   6.985  0.1524 -0.7149 -0.2937
   57MOL    C1331485   7.208   6.523   6.875 -0.0708  0.1688 -0.1887
   57MOL    O1431486   6.923   6.697   7.052  0.5066  0.0605 -0.2741
   57MOL    C1531487   6.780   6.543   6.760  0.8208 -0.0983  0.4550
   57MOL    C1631488   6.680   6.569   6.663  0.5866 -1.2654 -0.2185
   57MOL    C1731489   6.663   6.487   6.547  0.4297  0.6858 -0.5785
   57MOL    C1831490   6.545   6.505   6.467  0.3065  0.8130  0.5135
   57MOL    H1931491   6.420   6.795   6.573 -0.8808 -0.6952  2.4096
   57MOL    H2031492   6.535   6.849   6.803  1.9958  0.8216  0.7359
   57MOL    H2131493   6.719   6.805   6.963 -0.7633  1.6550 -0.2535
   57MOL    H2231494   7.122   6.560   7.071  3.1663 -0.9748 -0.8013
   57MOL    H2331495   7.130   6.398   7.022  1.4408  0.3436  1.5771
   57MOL    H2431496   7.207   6.631   6.860 -3.9127 -0.0574 -2.3032
   57MOL    H2531497   7.299   6.491   6.926  1.0433  3.4094 -0.0279
   57MOL    H2631498   6.847   6.461   6.740  0.2423 -0.4384 -0.0906
   57MOL    H2731499   6.731   6.404   6.529  0.0153  0.2544 -0.1713
   57MOL    H2831500   6.523   6.435   6.388 -1.8932  0.8750  1.0225
   57MOL    H2931501   6.228   6.555   6.272 -1.2011 -3.7638  0.6457
   57MOL    O3031502   7.095   6.610   6.640 -0.2461 -0.0234 -0.1230
   57MOL    C3131503   7.132   6.496   6.652  0.1362 -0.0947 -0.5316
   57MOL    O3231504   7.186   6.446   6.762 -0.0263  0.2768 -0.1581
   57MOL    C3331505   7.115   6.397   6.541  0.0036 -0.2327 -0.1094
   57MOL    C3431506   7.155   6.424   6.411  0.7202 -0.5076  0.5347
   57MOL    C3531507   7.156   6.322   6.308  0.1861  0.2509  0.2032
   57MOL    C3631508   7.203   6.338   6.182  0.5206  0.3632 -0.0306
   57MOL    C3731509   7.192   6.237   6.080  0.1915 -0.3924 -0.0228
   57MOL    C3831510   7.123   6.123   6.110  0.3009  0.2616  0.7871
   57MOL    C3931511   7.080   6.038   5.999  0.0850 -0.1343  0.6962
   57MOL    O4031512   6.997   5.941   6.047  0.4248 -0.4468  0.2944
   57MOL    C4131513   6.937   5.846   5.962 -0.3283  0.3920  0.6975
   57MOL    C4231514   6.828   5.906   5.868 -0.4635 -0.9928  0.4523
   57MOL    O4331515   7.091   6.063   5.881 -0.5909 -0.1478  0.3469
   57MOL    C4431516   7.084   6.094   6.245 -0.7898 -1.1509  0.0609
   57MOL    C4531517   7.102   6.193   6.339 -0.2353  0.0132 -0.5077
   57MOL    C4631518   7.063   6.163   6.471 -0.5929  0.3484  0.1388
   57MOL    C4731519   7.063   6.267   6.565  0.0864 -0.0887 -0.0166
   57MOL    H4831520   7.187   6.524   6.386 -0.3464 -0.5716 -1.1460
   57MOL    H4931521   7.240   6.437   6.158  0.7780  0.2338 -0.1626
   57MOL    H5031522   7.230   6.254   5.980  0.8429 -0.9834  0.1224
   57MOL    H5131523   6.899   5.763   6.021  1.6146 -1.0532 -0.0551
   57MOL    H5231524   7.012   5.810   5.892 -0.7358 -1.9821  1.4442
   57MOL    H5331525   6.859   5.990   5.807 -0.9646  0.5068  2.2182
   57MOL    H5431526   6.772   5.836   5.806 -0.4010 -1.2216  0.6529
   57MOL    H5531527   7.035   6.003   6.277 -1.3835 -0.6209  0.6825
   57MOL    H5631528   7.028   6.063   6.490  0.0886  0.3412  1.3904
   57MOL    H5731529   7.035   6.252   6.668  1.5711  0.1339  0.4431
   57MOL    O5831530   6.637   5.765   6.010  0.7644 -0.7630 -0.1708
   57MOL    C5931531   6.648   5.887   6.026 -0.3841 -0.1650 -0.0902
   57MOL    O6031532   6.736   5.962   5.959  0.6227 -0.2457  0.2299
   57MOL    C6131533   6.565   5.969   6.123 -0.2161  0.5457 -0.2918
   57MOL    C6231534   6.481   5.900   6.216  0.4826  0.0934  0.8751
   57MOL    C6331535   6.397   5.975   6.300 -0.1783  0.8163  1.1077
   57MOL    C6431536   6.323   5.902   6.395  0.4697  0.1695 -0.3908
   57MOL    C6531537   6.252   5.973   6.498 -0.3646  0.5016 -0.3364
   57MOL    C6631538   6.259   6.116   6.497  0.0968  0.5396  0.6817
   57MOL    C6731539   6.180   6.195   6.593  0.1101  0.0779 -0.3765
   57MOL    O6831540   6.198   6.325   6.594  0.0196  0.1266  0.4682
   57MOL    C6931541   6.144   6.401   6.702  0.0733 -0.5426  0.6863
   57MOL    C7031542   6.254   6.470   6.789 -0.2786 -0.1030  0.1962
   57MOL    O7131543   6.122   6.132   6.686 -0.1449 -0.3133 -0.1820
   57MOL    C7231544   6.332   6.186   6.397  0.0246 -0.3136 -0.4255
   57MOL    C7331545   6.404   6.114   6.305 -1.0400  0.0057 -0.0544
   57MOL    C7431546   6.482   6.181   6.217 -0.5431  0.4406  0.5516
   57MOL    C7531547   6.562   6.110   6.124  0.1418 -0.2798  0.7979
   57MOL    H7631548   6.479   5.792   6.222 -0.9439  0.0178 -0.6640
   57MOL    H7731549   6.330   5.797   6.419  1.5541  0.2931 -0.1398
   57MOL    H7831550   6.204   5.919   6.578 -0.8353  1.6534  0.1646
   57MOL    H7931551   6.080   6.342   6.768 -1.1093  0.7958  0.7676
   57MOL    H8031552   6.091   6.484   6.655 -0.7821 -0.8161  1.1511
   57MOL    H8131553   6.302   6.544   6.725 -0.0077 -0.6566 -0.2466
   57MOL    H8231554   6.207   6.510   6.879 -0.9510  2.4752 -1.2322
   57MOL    H8331555   6.341   6.293   6.401  0.1061 -0.3445  0.5566
   57MOL    H8431556   6.483   6.289   6.220  0.6816  0.4627 -0.3847
   57MOL    H8531557   6.628   6.179   6.074  0.0732 -0.2199  0.7903
   57MOL    O8631558   6.359   6.474   7.052 -0.0477 -0.1013 -0.0537
   57MOL    C8731559   6.406   6.399   6.963 -0.4869  0.2297  0.2090
   57MOL    O8831560   6.348   6.377   6.841  0.5471  0.8173  0.1335
   57MOL    C8931561   6.543   6.333   6.978  0.8052  0.4279  0.0973
   57MOL    C9031562   6.581   6.239   6.881 -0.1857 -0.7997  0.1203
   57MOL    C9131563   6.706   6.183   6.883 -0.5957 -0.6361  0.6133
   57MOL    C9231564   6.751   6.104   6.774  0.1944  0.0850 -0.4482
   57MOL    C9331565   6.883   6.051   6.767  0.0302 -0.3306 -0.3989
   57MOL    C9431566   6.969   6.075   6.874  0.6894  0.2013  0.2549
   57MOL    C9531567   7.104   6.008   6.882  0.1639 -0.3521  0.4954
   57MOL    O9631568   7.094   5.872   6.860 -0.0233 -0.5766  0.7725
   57MOL    C9731569   7.195   5.796   6.926 -0.2263  0.4165  0.6068
   57MOL    C9831570   7.158   5.763   7.076  0.1463 -0.3804 -0.3630
   57MOL    O9931571   7.207   6.073   6.900  0.2579  0.2865  0.0191
   57MOL   C10031572   6.929   6.164   6.980 -1.1662 -0.3824 -0.6051
   57MOL   C10131573   6.799   6.224   6.981 -0.1027  0.1086  0.6165
   57MOL   C10231574   6.765   6.318   7.079  0.3840 -0.3273 -0.1336
   57MOL   C10331575   6.638   6.372   7.071 -0.1022 -0.5535  0.5714
   57MOL   H10431576   6.502   6.199   6.819 -1.3763  0.2650  0.9125
   57MOL   H10531577   6.687   6.103   6.687  0.6956  0.1062 -0.8157
   57MOL   H10631578   6.915   5.986   6.687  1.1931 -0.6488  0.3154
   57MOL   H10731579   7.296   5.837   6.916  0.5852 -1.0222  2.4174
   57MOL   H10831580   7.179   5.703   6.871  0.3507  1.7792 -1.9299
   57MOL   H10931581   7.235   5.814   7.135 -0.8660  0.8069 -0.0553
   57MOL   H11031582   7.068   5.819   7.102 -0.2799 -1.6981  1.0823
   57MOL   H11131583   7.004   6.188   7.053  1.2634 -1.5450 -2.6243
   57MOL   H11231584   6.828   6.356   7.158  1.2988 -4.0004  0.9693
   57MOL   H11331585   6.612   6.451   7.141  0.9846  0.1473  0.1826
   57MOL   O11431586   7.380   5.589   7.117 -0.8984  0.1421 -0.2086
   57MOL   C11531587   7.267   5.553   7.145 -0.0162 -0.5656  0.5128
   57MOL   O11631588   7.151   5.624   7.109 -0.6980  0.3352  0.0669
   57MOL   C11731589   7.233   5.440   7.235  1.1961  0.2892 -0.2594
   57MOL   C11831590   7.096   5.419   7.272 -0.3535  0.0791 -0.3973
   57MOL   C11931591   7.063   5.316   7.359  0.4402  0.8192  0.1604
   57MOL   C12031592   6.927   5.292   7.397  0.4567  0.0387  0.2008
   57MOL   C12131593   6.892   5.177   7.472 -0.4496  0.2248 -0.0472
   57MOL   C12231594   6.996   5.085   7.510  0.2083  0.3893 -1.0672
   57MOL   C12331595   6.963   4.953   7.570 -0.3685  0.7325  0.2217
   57MOL   O12431596   7.060   4.903   7.636  0.1495 -0.3776  0.0289
   57MOL   C12531597   7.059   4.770   7.678  0.8486 -0.5020 -0.3339
   57MOL   C12631598   7.186   4.726   7.619  0.6297 -0.3154  0.2516
   57MOL   O12731599   6.862   4.896   7.547  1.0499  0.2529  0.0621
   57MOL   C12831600   7.131   5.116   7.478  0.5366 -0.1409  0.6566
   57MOL   C12931601   7.166   5.226   7.404 -0.2498 -0.4653  1.0074
   57MOL   C13031602   7.301   5.253   7.372  0.3578  0.4628 -0.3658
   57MOL   C13131603   7.329   5.355   7.284 -0.0073  0.6342  0.1675
   57MOL   H13231604   7.018   5.480   7.229  0.2910 -0.0946 -1.8569
   57MOL   H13331605   6.849   5.354   7.354 -0.5953 -2.3678 -1.4997
   57MOL   H13431606   6.793   5.142   7.496  0.1567 -0.3758  1.7314
   57MOL   H13531607   6.982   4.698   7.649 -1.8962  2.3701 -0.4730
   57MOL   H13631608   7.061   4.761   7.787 -1.5763  2.4606  0.0385
   57MOL   H13731609   7.265   4.799   7.634  0.3823  0.5105 -2.2523
   57MOL   H13831610   7.211   4.636   7.676  0.1690 -0.5798  0.0379
   57MOL   H13931611   7.214   5.052   7.502 -0.0786 -0.5385  1.7486
   57MOL   H14031612   7.385   5.192   7.400 -2.0998 -2.4031  0.9569
   57MOL   H14131613   7.432   5.368   7.254  0.1766 -0.2016  0.4262
   57MOL   O14231614   7.354   4.580   7.477 -0.4481  0.7309  0.3008
   57MOL   C14331615   7.254   4.624   7.424 -0.6279 -0.1029  0.4657
   57MOL   O14431616   7.165   4.698   7.486 -0.5598 -0.6664 -0.0787
   57MOL   C14531617   7.222   4.627   7.278  0.8131 -0.6565  0.1268
   57MOL   C14631618   7.111   4.687   7.214  0.3707 -0.3771  0.0829
   57MOL   C14731619   7.100   4.699   7.072 -0.1370 -0.6077 -0.0871
   57MOL   C14831620   6.984   4.759   7.011 -0.4883 -0.1760 -0.4036
   57MOL   C14931621   6.965   4.756   6.875 -0.7944  0.6204  0.5778
   57MOL   C15031622   7.065   4.695   6.792  0.0913 -0.2124 -0.1278
   57MOL   C15131623   7.041   4.695   6.648 -0.2405 -0.3649  0.5937
   57MOL   O15231624   7.097   4.589   6.590  0.2085  0.8215 -0.5506
   57MOL   C15331625   7.069   4.569   6.456  1.1181 -0.7813  0.4088
   57MOL   C15431626   6.931   4.497   6.431 -0.4708 -0.0449  0.3634
   57MOL   O15531627   6.967   4.769   6.589  0.2296  0.0700  0.0810
   57MOL   C15631628   7.180   4.630   6.846  0.1092 -0.0431 -0.7984
   57MOL   C15731629   7.196   4.634   6.987 -0.7064 -0.9584  0.1949
   57MOL   C15831630   7.304   4.569   7.042  0.2663 -0.0072 -0.1084
   57MOL   C15931631   7.321   4.579   7.186  0.0022  0.1629 -0.8026
   57MOL   H16031632   7.045   4.737   7.284  0.2264 -3.1558  1.9939
   57MOL   H16131633   6.915   4.809   7.078 -0.2428 -1.0187  0.4961
   57MOL   H16231634   6.877   4.798   6.829 -0.6777  0.9769  0.6697
   57MOL   H16331635   7.143   4.495   6.425  1.6723 -1.1247  2.4274
   57MOL   H16431636   7.089   4.658   6.396 -0.5476 -0.4448  0.3190
   57MOL   H16531637   6.941   4.407   6.490 -0.1364 -0.7226 -0.6996
   57MOL   H16631638   6.845   4.550   6.472 -0.5214 -0.9426  1.4222
   57MOL   H16731639   7.249   4.572   6.787 -2.0053 -1.8453 -1.6015
   57MOL   H16831640   7.384   4.534   6.978  0.7090 -0.8042  0.8704
   57MOL   H16931641   7.419   4.558   7.227  0.0294  2.8584  0.6311
   57MOL   O17031642   6.987   4.273   6.290 -0.0523  0.2248 -0.6737
   57MOL   C17131643   6.926   4.366   6.238  1.0572  0.2606 -1.2432
   57MOL   O17231644   6.906   4.481   6.299 -0.2644  0.4100  0.6801
   57MOL   C17331645   6.865   4.349   6.106 -0.1190  0.1207 -0.3340
   57MOL   C17431646   6.847   4.214   6.067  0.2925  0.4275 -0.6587
   57MOL   C17531647   6.765   4.192   5.953 -0.5907 -0.0485  0.0990
   57MOL   C17631648   6.727   4.062   5.915  0.8433  0.1793  0.1069
   57MOL   C17731649   6.638   4.036   5.811  1.4351  0.0867  1.1834
   57MOL   C17831650   6.597   4.145   5.725 -0.9538  0.6176 -1.0680
   57MOL   C17931651   6.514   4.121   5.601  0.4308  0.6087 -0.1149
   57MOL   O18031652   6.506   4.229   5.517  0.7248 -0.5082  0.1242
   57MOL   C18131653   6.415   4.223   5.408  0.3049 -0.1414 -0.3912
   57MOL   C18231654   6.507   4.182   5.293  0.0174  0.6657 -0.5243
   57MOL   O18331655   6.463   4.009   5.575  0.6780 -0.8300  0.4638
   57MOL   C18431656   6.642   4.276   5.758  0.6060  0.1842 -0.7013
   57MOL   C18531657   6.721   4.300   5.871 -0.5072 -0.0488  0.4918
   57MOL   C18631658   6.757   4.433   5.903 -0.2248 -0.4031  0.5104
   57MOL   C18731659   6.824   4.454   6.019 -0.0016 -0.3553  0.4563
   57MOL   H18831660   6.883   4.134   6.129  2.4897  0.1664 -2.2055
   57MOL   H18931661   6.766   3.979   5.972 -0.1908 -0.7994 -0.5851
   57MOL   H19031662   6.608   3.937   5.779  1.5486 -0.2377  2.0709
   57MOL   H19131663   6.377   4.325   5.404 -0.0441 -0.2651 -0.2000
   57MOL   H19231664   6.322   4.168   5.418 -0.8844  2.0091  0.7149
   57MOL   H19331665   6.593   4.249   5.288 -2.3387  3.7534 -2.3244
   57MOL   H19431666   6.529   4.076   5.303 -0.6816  0.6290  0.7267
   57MOL   H19531667   6.597   4.355   5.700  1.0302  0.1834 -1.0340
   57MOL   H19631668   6.728   4.514   5.838 -3.4250 -0.8508  1.3118
   57MOL   H19731669   6.848   4.556   6.045  1.1289 -0.5870  0.3328
   57MOL   O19831670   6.299   4.021   5.181  0.2836  0.2396  0.6119
   57MOL   C19931671   6.347   4.112   5.119  0.0598  0.1913  0.3962
   57MOL   O20031672   6.441   4.200   5.168 -0.1089 -0.5186 -0.0715
   57MOL   C20131673   6.318   4.125   4.975 -1.4125 -0.3510 -0.9250
   57MOL   C20231674   6.418   4.180   4.896  0.2368  0.2299  1.1644
   57MOL   C20331675   6.408   4.196   4.753  0.6265 -0.5082 -0.8076
   57MOL   C20431676   6.507   4.259   4.674 -0.1389 -0.8359 -0.2625
   57MOL   C20531677   6.486   4.282   4.536 -0.6749 -0.1234 -0.3300
   57MOL   C20631678   6.368   4.240   4.476  0.8353  1.0742 -0.2200
   57MOL   C20731679   6.340   4.255   4.331 -0.1403 -0.2580 -0.3862
   57MOL   O20831680   6.433   4.329   4.270  0.3777  0.5017 -0.5948
   57MOL   C20931681   6.423   4.340   4.129 -0.3259  1.2711 -0.1688
   57MOL   C21031682   6.339   4.460   4.082 -0.1250 -0.2458 -0.3161
   57MOL   O21131683   6.238   4.210   4.278  0.2445 -0.1413  0.2769
   57MOL   C21231684   6.270   4.175   4.554  0.1514 -0.1848  0.1263
   57MOL   C21331685   6.287   4.154   4.694  0.7880  0.1742 -0.6848
   57MOL   C21431686   6.185   4.088   4.774 -0.3452 -0.0700 -0.2311
   57MOL   C21531687   6.204   4.072   4.913 -0.7438 -0.0938  0.0866
   57MOL   H21631688   6.515   4.210   4.932  0.1116  2.2668 -0.0938
   57MOL   H21731689   6.601   4.293   4.715 -0.0340 -0.3400 -0.8937
   57MOL   H21831690   6.560   4.334   4.477 -1.1804 -0.7610 -1.5384
   57MOL   H21931691   6.375   4.251   4.089 -1.3621  1.2713  1.0435
   57MOL   H22031692   6.528   4.347   4.101  0.1708 -1.3444  0.8490
   57MOL   H22131693   6.250   4.467   4.144  1.1161  2.5396  1.2426
   57MOL   H22231694   6.381   4.560   4.094 -1.3659  0.5842 -2.5287
   57MOL   H22331695   6.178   4.145   4.506  0.1297  2.1762 -1.3739
   57MOL   H22431696   6.094   4.049   4.732 -1.6910  0.5740  2.0370
   57MOL   H22531697   6.130   4.022   4.972 -2.2638  2.0310  0.0248
   57MOL   O22631698   6.463   4.566   3.863 -0.3837 -0.2939  0.1773
   57MOL   C22731699   6.373   4.480   3.847 -0.2797 -0.3427 -0.0915
   57MOL   O22831700   6.305   4.429   3.947 -0.2888  0.0335  0.7963
   57MOL   C22931701   6.339   4.431   3.715  0.6492 -0.4322 -1.0741
   57MOL   C23031702   6.254   4.320   3.696 -0.3675 -0.6212 -0.7158
   57MOL   C23131703   6.250   4.257   3.570 -0.4794  1.0019 -0.3636
   57MOL   C23231704   6.169   4.141   3.553  0.3542  0.0848 -0.3784
   57MOL   C23331705   6.176   4.066   3.437 -0.1858  0.4357 -0.6135
   57MOL   C23431706   6.271   4.101   3.339  0.2824 -0.8728  0.2641
   57MOL   C23531707   6.285   4.031   3.207 -0.3341  0.9690  0.4697
   57MOL   O23631708   6.205   3.912   3.209 -0.6980 -0.0452  0.5059
   57MOL   C23731709   6.162   3.856   3.086  0.4179  0.1790  0.2135
   57MOL   C23831710   6.013   3.833   3.078  0.3643  0.0972 -0.3529
   57MOL   O23931711   6.353   4.067   3.111 -0.0262 -0.8683  0.1141
   57MOL   C24031712   6.352   4.216   3.354 -0.5505 -0.0873 -0.3449
   57MOL   C24131713   6.335   4.297   3.470 -0.3110  0.5757 -0.4053
   57MOL   C24231714   6.413   4.412   3.487  0.6994  0.7694 -0.8998
   57MOL   C24331715   6.418   4.480   3.608 -0.9640 -0.1706  0.1150
   57MOL   H24431716   6.199   4.271   3.775 -2.1374  0.9186 -0.9760
   57MOL   H24531717   6.094   4.111   3.625  1.0680  1.1105  0.8012
   57MOL   H24631718   6.124   3.972   3.431 -0.7311  0.6184  0.8667
   57MOL   H24731719   6.223   3.768   3.068 -1.0063 -0.6083 -0.9054
   57MOL   H24831720   6.191   3.926   3.008 -0.2697  0.3409  0.0920
   57MOL   H24931721   5.989   3.750   3.013  1.6490 -1.8145  1.5342
   57MOL   H25031722   5.988   3.794   3.176  1.3461  2.3539  0.8442
   57MOL   H25131723   6.419   4.245   3.274 -0.0635  0.7570  0.3503
   57MOL   H25231724   6.472   4.451   3.405 -0.7542  2.1507 -1.3044
   57MOL   H25331725   6.477   4.569   3.623 -0.1424 -0.9981  1.9856
   57MOL   O25431726   5.997   4.005   2.846 -0.2917 -0.1757 -0.3663
   57MOL   C25531727   5.960   4.042   2.960  0.1770  0.5214 -0.3325
   57MOL   O25631728   5.951   3.964   3.072  0.7007  0.0186  0.1851
   57MOL   C25731729   5.928   4.185   2.995 -0.5287 -0.3908 -0.2594
   57MOL   C25831730   5.955   4.233   3.127  0.2961  0.4379 -0.2664
   57MOL   C25931731   5.933   4.372   3.162  0.0785  0.5355  0.1194
   57MOL   C26031732   5.957   4.430   3.288  0.0021  0.2938  0.4579
   57MOL   C26131733   5.909   4.559   3.323 -0.1396  0.4374 -0.9957
   57MOL   C26231734   5.823   4.630   3.235 -0.7174 -0.2501 -0.2155
   57MOL   C26331735   5.776   4.770   3.264  0.1856  0.1331  0.6790
   57MOL   O26431736   5.802   4.805   3.390 -0.1087  0.4296  0.2672
   57MOL   C26531737   5.753   4.932   3.439 -0.2297 -0.1949 -0.1998
   57MOL   C26631738   5.863   5.038   3.403 -0.7802 -0.0649 -0.5003
   57MOL   O26731739   5.724   4.847   3.179  0.0238  0.3793 -0.2271
   57MOL   C26831740   5.807   4.578   3.104 -0.1026  0.0960  0.0288
   57MOL   C26931741   5.862   4.449   3.068 -0.2749  0.3040  0.0718
   57MOL   C27031742   5.846   4.403   2.935  0.1976 -0.2016 -0.5193
   57MOL   C27131743   5.881   4.271   2.895  0.9910 -0.0050 -0.7726
   57MOL   H27231744   6.000   4.166   3.199  0.2675  1.1798  0.4554
   57MOL   H27331745   6.009   4.382   3.369 -1.9483  1.1918  2.3039
   57MOL   H27431746   5.935   4.592   3.423 -0.9115 -2.6251  0.2896
   57MOL   H27531747   5.727   4.934   3.545 -0.7163  2.4695 -0.3252
   57MOL   H27631748   5.661   4.958   3.386  0.4645 -0.5464 -1.5972
   57MOL   H27731749   5.930   5.013   3.321  0.4740  0.7017  0.2779
   57MOL   H27831750   5.811   5.133   3.392 -0.4730  0.1841  0.1404
   57MOL   H27931751   5.736   4.623   3.036 -1.5222 -2.1262 -0.0360
   57MOL   H28031752   5.784   4.453   2.862  0.2807 -0.1701 -0.5677
   57MOL   H28131753   5.856   4.226   2.800 -0.6132 -0.8871  0.0619
   57MOL   O28231754   6.094   5.172   3.407 -0.2159  0.6476  0.4363
   57MOL   C28331755   6.050   5.120   3.513 -0.1297 -0.8015 -0.5745
   57MOL   O28431756   5.945   5.035   3.515 -0.2462 -0.8869 -0.4316
   57MOL   C28531757   6.102   5.150   3.652  0.7434  0.0252  0.3435
   57MOL   C28631758   6.222   5.219   3.657  0.0908 -0.4872 -0.7290
   57MOL   C28731759   6.288   5.236   3.779  0.1257 -0.2540 -0.8363
   57MOL   C28831760   6.416   5.299   3.784 -0.5226 -0.0860  0.0829
   57MOL   C28931761   6.477   5.314   3.908  0.6345  0.2468 -0.1720
   57MOL   C29031762   6.425   5.270   4.031  0.0914  0.2332  0.3565
   57MOL   C29131763   6.495   5.281   4.163 -0.3720 -0.3408 -0.2210
   57MOL   O29231764   6.611   5.340   4.148 -0.2520 -0.3065 -0.2485
   57MOL   C29331765   6.679   5.376   4.269  0.6522 -0.2451 -0.3093
   57MOL   C29431766   6.824   5.367   4.227  0.3253 -0.2690 -0.1511
   57MOL   O29531767   6.448   5.251   4.271 -0.5575  0.7608  0.8139
   57MOL   C29631768   6.299   5.205   4.025 -0.1181 -1.0479 -0.4157
   57MOL   C29731769   6.235   5.189   3.900 -0.2016 -0.0208  0.5511
   57MOL   C29831770   6.106   5.122   3.894 -1.3310 -0.2807 -0.4000
   57MOL   C29931771   6.048   5.099   3.772  0.2574 -0.0735 -0.2887
   57MOL   H30031772   6.276   5.252   3.569 -0.1516 -0.0680 -0.7231
   57MOL   H30131773   6.467   5.326   3.693 -0.2660 -0.0240  0.2430
   57MOL   H30231774   6.573   5.363   3.908  0.5767  0.3782  2.0101
   57MOL   H30331775   6.650   5.330   4.363  0.1524 -0.9219 -0.7824
   57MOL   H30431776   6.668   5.484   4.278  1.5322 -0.2867  1.3517
   57MOL   H30531777   6.836   5.382   4.120 -1.4460  1.3027 -0.1606
   57MOL   H30631778   6.876   5.450   4.276  0.2137 -0.8842  1.0094
   57MOL   H30731779   6.258   5.169   4.118 -0.2606 -0.6593 -0.3282
   57MOL   H30831780   6.057   5.083   3.983  0.2556 -1.9971 -0.2531
   57MOL   H30931781   5.957   5.041   3.775  0.1483  0.1095 -0.0352
   57MOL   O31031782   6.916   5.163   4.071 -0.0520  0.0096 -0.1112
   57MOL   C31131783   6.925   5.151   4.194  0.1117  0.1310  0.3121
   57MOL   O31231784   6.876   5.238   4.272  0.4930  0.0792  0.0339
   57MOL   C31331785   6.997   5.042   4.265  0.3741 -0.3000 -0.5662
   57MOL   C31431786   7.065   4.945   4.194 -0.3566 -0.3252  0.2044
   57MOL   C31531787   7.114   4.829   4.263  0.5173  0.4596  0.0383
   57MOL   C31631788   7.158   4.722   4.192 -0.1268  0.5712 -0.0867
   57MOL   C31731789   7.209   4.614   4.264 -0.3984 -0.0086  0.1363
   57MOL   C31831790   7.210   4.612   4.411 -0.0856  0.3063 -0.7277
   57MOL   C31931791   7.257   4.496   4.491 -0.4721 -0.0079 -0.0470
   57MOL   O32031792   7.273   4.380   4.416  0.4228 -0.1203 -0.3203
   57MOL   C32131793   7.324   4.263   4.479 -0.8306 -0.5387  0.2779
   57MOL   C32231794   7.213   4.201   4.566  0.3465  0.3471 -0.2013
   57MOL   O32331795   7.268   4.502   4.613  0.0568  0.3505  0.4291
   57MOL   C32431796   7.169   4.724   4.477 -0.4127  0.3262 -0.0883
   57MOL   C32531797   7.118   4.833   4.404 -0.1780 -0.5084 -0.1236
   57MOL   C32631798   7.061   4.939   4.479 -0.3434  0.2382  0.7994
   57MOL   C32731799   6.995   5.042   4.406 -0.5782  0.5021 -0.7779
   57MOL   H32831800   7.067   4.949   4.086 -3.1113  2.4034  0.1854
   57MOL   H32931801   7.159   4.722   4.084 -0.3279 -0.3050 -0.0976
   57MOL   H33031802   7.251   4.533   4.207  1.4372  1.1048 -0.1035
   57MOL   H33131803   7.415   4.288   4.533 -1.1412 -0.5024  0.7927
   57MOL   H33231804   7.354   4.189   4.405 -0.4981  0.7083 -0.8455
   57MOL   H33331805   7.254   4.112   4.612  0.0643  1.7081  2.8043
   57MOL   H33431806   7.201   4.274   4.647  0.1837  0.1227 -0.0233
   57MOL   H33531807   7.167   4.728   4.585  1.7354 -1.3939  0.0471
   57MOL   H33631808   7.061   4.948   4.586 -0.6201 -0.2461  0.8426
   57MOL   H33731809   6.942   5.117   4.463  0.3760 -1.0660  2.3126
   57MOL   O33831810   7.195   3.986   4.399  0.9561  0.2988 -0.0348
   57MOL   C33931811   7.097   4.060   4.405 -0.2796  0.5116  0.6345
   57MOL   O34031812   7.096   4.161   4.490 -0.2779 -0.2163  0.6335
   57MOL   C34131813   6.973   4.041   4.329  0.6994  1.1534 -0.0457
   57MOL   C34231814   6.934   3.918   4.279  0.0402  0.0671  0.3138
   57MOL   C34331815   6.819   3.899   4.202 -0.0124 -0.1306  0.0848
   57MOL   C34431816   6.798   3.775   4.144  0.2167  0.3928  0.1830
   57MOL   C34531817   6.668   3.748   4.086 -0.2217  0.0427  0.2001
   57MOL   C34631818   6.568   3.850   4.080  0.3322 -0.6417 -0.3318
   57MOL   C34731819   6.437   3.836   4.014 -0.5712 -0.2858 -0.1322
   57MOL   O34831820   6.369   3.947   4.012  0.2906 -0.5079 -0.0730
   57MOL   C34931821   6.237   3.957   3.951 -1.2930 -0.3751  0.1772
   57MOL   C35031822   6.125   3.909   4.048  0.6470  0.3530  0.8550
   57MOL   O35131823   6.387   3.733   3.977  0.0579 -0.0470 -0.3438
   57MOL   C35231824   6.600   3.976   4.136 -0.5042 -1.0425  0.2080
   57MOL   C35331825   6.726   4.002   4.195  0.2090 -0.3093 -0.1193
   57MOL   C35431826   6.757   4.129   4.252  0.7567 -0.4395  0.8630
   57MOL   C35531827   6.879   4.146   4.319  0.0168  0.5379 -0.5230
   57MOL   H35631828   7.007   3.838   4.280 -0.5735 -0.5005  0.4961
   57MOL   H35731829   6.870   3.695   4.153  0.4291  0.5448 -0.2025
   57MOL   H35831830   6.653   3.655   4.034 -1.2035  0.5427 -0.4255
   57MOL   H35931831   6.228   3.907   3.854 -1.9963 -2.5874  1.3629
   57MOL   H36031832   6.228   4.065   3.934 -0.0437 -0.3743 -0.6350
   57MOL   H36131833   6.162   3.903   4.150  1.5276  1.3363  0.6022
   57MOL   H36231834   6.045   3.984   4.043  0.3171  0.0911  1.9007
   57MOL   H36331835   6.521   4.049   4.149 -1.4030 -1.8403 -0.7103
   57MOL   H36431836   6.692   4.214   4.238 -1.4660 -2.7237 -3.8336
   57MOL   H36531837   6.899   4.246   4.354 -0.7231 -0.2440  2.2004
   57MOL   O36631838   5.953   3.857   3.841 -0.4081 -0.0691  0.1315
   57MOL   C36731839   5.981   3.763   3.913 -0.5064  0.2636 -0.3625
   57MOL   O36831840   6.070   3.777   4.019  0.0577 -0.4337 -0.5433
   57MOL   C36931841   5.934   3.625   3.879 -0.4962 -0.9212  0.8736
   57MOL   C37031842   5.958   3.523   3.974 -0.3584  0.6500  0.8458
   57MOL   C37131843   5.914   3.392   3.943  0.3611 -0.5794  0.5185
   57MOL   C37231844   5.920   3.292   4.040  0.3558  0.3193  0.0719
   57MOL   C37331845   5.883   3.157   4.020  0.0989  0.1839 -0.1638
   57MOL   C37431846   5.820   3.125   3.895  0.6333  0.3215  0.4488
   57MOL   C37531847   5.776   2.987   3.866 -0.2226 -0.1382  0.4896
   57MOL   O37631848   5.865   2.903   3.910 -0.1521  0.4029  0.0468
   57MOL   C37731849   5.830   2.765   3.953 -0.2898 -0.0273 -0.3624
   57MOL   C37831850   5.769   2.754   4.092  0.0270 -0.2936  0.3187
   57MOL   O37931851   5.675   2.959   3.807  0.2112  0.5373  0.0097
   57MOL   C38031852   5.788   3.230   3.801 -0.2274  0.0604  0.4025
   57MOL   C38131853   5.841   3.358   3.824  0.4183  0.7264  0.1704
   57MOL   C38231854   5.809   3.458   3.730 -0.1316 -0.2952 -0.0539
   57MOL   C38331855   5.853   3.590   3.763  0.0915  0.0414 -0.2740
   57MOL   H38431856   6.024   3.536   4.059 -0.6331 -2.1920  1.5260
   57MOL   H38531857   5.970   3.319   4.132  0.5852  1.1603 -0.2917
   57MOL   H38631858   5.900   3.077   4.090  1.3512  1.6414  1.2253
   57MOL   H38731859   5.929   2.719   3.947  0.3292  1.1427  0.5885
   57MOL   H38831860   5.764   2.704   3.891  0.0972 -0.6196 -0.1937
   57MOL   H38931861   5.669   2.798   4.092  0.2375  0.1945 -0.5511
   57MOL   H39031862   5.752   2.652   4.126  2.1220 -0.5047  0.8189
   57MOL   H39131863   5.741   3.190   3.712 -0.8925  0.1954  0.6942
   57MOL   H39231864   5.751   3.436   3.641 -0.5938 -0.7263  0.3487
   57MOL   H39331865   5.820   3.671   3.700  0.5186  1.0250  0.7359
   57MOL   O39431866   5.980   2.635   4.218 -0.7040 -0.3329  0.1049
   57MOL   C39531867   5.950   2.753   4.234 -0.6800  0.4016  0.0833
   57MOL   O39631868   5.851   2.828   4.183 -0.1422 -0.0250 -0.1100
   57MOL   C39731869   6.024   2.842   4.338  0.6066 -0.2233  0.3414
   57MOL   C39831870   5.989   2.977   4.365 -0.3372 -0.5277  0.7670
   57MOL   C39931871   6.048   3.038   4.475 -0.8933  0.3346  0.7003
   57MOL   C40031872   6.006   3.165   4.513  0.6523  0.5965 -0.1277
   57MOL   C40131873   6.085   3.242   4.594 -0.6765 -0.0230 -0.0767
   57MOL   C40231874   6.183   3.181   4.674  0.5253  0.6408  0.0547
   57MOL   C40331875   6.252   3.253   4.786  0.0382  0.2345 -0.1018
   57MOL   O40431876   6.214   3.377   4.803 -0.4179  0.0809 -0.4636
   57MOL   C40531877   6.244   3.454   4.924  0.8064  0.0540 -1.1384
   57MOL   C40631878   6.114   3.445   5.014 -0.7385  0.4330 -0.0564
   57MOL   O40731879   6.334   3.199   4.861  0.1998  1.1813 -0.3882
   57MOL   C40831880   6.211   3.044   4.660  0.7590 -1.0656  0.7417
   57MOL   C40931881   6.147   2.976   4.556 -0.2258 -0.0208 -0.1061
   57MOL   C41031882   6.193   2.852   4.509  0.5616  0.5844 -0.2288
   57MOL   C41131883   6.131   2.779   4.406 -0.9850 -0.3336  0.7025
   57MOL   H41231884   5.911   3.025   4.308 -0.9107 -0.3056  1.7280
   57MOL   H41331885   5.922   3.219   4.473 -0.0016 -0.2786  0.0565
   57MOL   H41431886   6.063   3.344   4.622 -0.2905  0.4385 -1.3730
   57MOL   H41531887   6.281   3.555   4.906  0.7668  0.2890  0.0308
   57MOL   H41631888   6.327   3.404   4.974  1.0972  1.6796  0.0592
   57MOL   H41731889   6.083   3.341   5.014 -1.2948  0.5963 -1.2233
   57MOL   H41831890   6.127   3.464   5.121  2.8437 -1.3907 -0.0938
   57MOL   H41931891   6.296   3.007   4.715  1.3849  0.7762  1.0731
   57MOL   H42031892   6.268   2.798   4.566 -0.6713  1.1784  2.0316
   57MOL   H42131893   6.165   2.682   4.373 -0.1729  0.7617 -1.7537
   57MOL   O42231894   6.099   3.726   5.007 -0.3165  0.2720 -0.3477
   57MOL   C42331895   6.011   3.653   4.954 -0.2870 -0.4921 -0.0784
   57MOL   O42431896   6.018   3.519   4.944 -0.0062 -0.0637 -0.4836
   57MOL   C42531897   5.896   3.704   4.865  0.2725  0.5431 -0.5883
   57MOL   C42631898   5.870   3.840   4.880 -0.0165 -0.3015  0.0069
   57MOL   C42731899   5.773   3.896   4.789  0.2843  0.0566  0.7720
   57MOL   C42831900   5.743   4.038   4.793 -0.3075  0.8918 -0.0725
   57MOL   C42931901   5.652   4.090   4.697 -0.8881  0.3297  0.0717
   57MOL   C43031902   5.587   4.010   4.607 -0.0545 -0.2209  0.6774
   57MOL   C43131903   5.482   4.074   4.516 -0.7352 -0.1818 -1.0766
   57MOL   O43231904   5.495   4.203   4.517  0.3760 -0.4643 -0.5492
   57MOL   C43331905   5.409   4.290   4.451 -0.0156  0.7974 -0.0524
   57MOL   C43431906   5.457   4.305   4.307 -0.4347 -0.3226  0.4103
   57MOL   O43531907   5.405   4.003   4.453 -0.3336 -0.2702  0.4171
   57MOL   C43631908   5.614   3.871   4.608  0.2507  0.4453  0.1337
   57MOL   C43731909   5.710   3.812   4.694 -0.7372 -0.4441 -0.7428
   57MOL   C43831910   5.734   3.675   4.693  0.0058 -0.6801  0.2402
   57MOL   C43931911   5.833   3.620   4.775 -0.1361  0.0770  0.2900
   57MOL   H44031912   5.926   3.903   4.947 -2.2203 -0.4744  2.0704
   57MOL   H44131913   5.788   4.111   4.859  2.5915 -0.9393  0.0492
   57MOL   H44231914   5.639   4.197   4.692 -0.0514  0.4062 -0.7917
   57MOL   H44331915   5.409   4.388   4.499  0.1283  0.6662  0.2136
   57MOL   H44431916   5.305   4.263   4.468  0.3169  0.4259  1.3752
   57MOL   H44531917   5.419   4.407   4.299  1.5330  0.2757 -1.7637
   57MOL   H44631918   5.566   4.294   4.302 -0.1906  2.3202 -1.0896
   57MOL   H44731919   5.564   3.814   4.531 -0.3774  0.9636  0.1542
   57MOL   H44831920   5.681   3.617   4.619 -0.5443  0.8323 -0.5802
   57MOL   H44931921   5.864   3.518   4.758 -2.4626 -0.2116 -2.7194
   57MOL   O45031922   5.331   4.348   4.078  0.0033 -0.0107 -0.4619
   57MOL   C45131923   5.324   4.238   4.128  0.0712  0.1429  0.3924
   57MOL   O45231924   5.390   4.197   4.238 -0.0896  0.0820 -0.7808
   57MOL   C45331925   5.215   4.141   4.074 -0.2475  0.4976 -0.0712
   57MOL   C45431926   5.132   4.168   3.965  0.1555  0.2318  0.0388
   57MOL   C45531927   5.041   4.074   3.917  0.6132  0.0780 -0.1579
   57MOL   C45631928   4.964   4.107   3.802 -0.7586  0.2133  0.0639
   57MOL   C45731929   4.864   4.015   3.764  0.0550 -0.5695  0.0820
   57MOL   C45831930   4.844   3.889   3.828  0.4365 -0.5739 -0.3100
   57MOL   C45931931   4.739   3.796   3.773 -0.1393  0.7220  0.1456
   57MOL   O46031932   4.758   3.669   3.807  0.4913  0.1749 -0.3559
   57MOL   C46131933   4.678   3.560   3.767 -0.7040 -0.5390 -0.4700
   57MOL   C46231934   4.579   3.518   3.874  0.3499  0.7146  0.2879
   57MOL   O46331935   4.641   3.827   3.704  0.3046  0.0590 -0.0284
   57MOL   C46431936   4.927   3.856   3.938 -0.4617 -0.4327 -1.0208
   57MOL   C46531937   5.034   3.945   3.977  0.3550  0.0956 -0.1174
   57MOL   C46631938   5.110   3.919   4.092 -0.1767  1.5433  0.6163
   57MOL   C46731939   5.205   4.011   4.137 -1.1941 -0.1743  0.2182
   57MOL   H46831940   5.138   4.268   3.925 -0.3805  0.2134 -0.0776
   57MOL   H46931941   4.977   4.196   3.743 -1.4567 -0.2213 -0.7622
   57MOL   H47031942   4.813   4.031   3.670  0.5220  1.2360  0.1278
   57MOL   H47131943   4.753   3.482   3.754 -1.8855 -1.8449  0.4144
   57MOL   H47231944   4.639   3.578   3.667 -3.9297 -0.7963  0.6844
   57MOL   H47331945   4.623   3.500   3.972  0.6861 -0.7187 -0.1169
   57MOL   H47431946   4.506   3.598   3.887 -2.0346 -1.0567 -1.7398
   57MOL   H47531947   4.906   3.763   3.988 -0.6542 -1.3065 -2.6719
   57MOL   H47631948   5.102   3.822   4.140 -0.0343  0.3928 -1.6080
   57MOL   H47731949   5.268   3.977   4.218  0.7203 -0.4534 -1.3416
   57MOL   O47831950   4.357   3.417   3.987 -0.2309 -0.4920 -0.5962
   57MOL   C47931951   4.389   3.381   3.876 -0.6977 -0.5346  0.3980
   57MOL   O48031952   4.508   3.414   3.822  0.7632 -0.0877  0.2698
   57MOL   C48131953   4.306   3.284   3.794  0.3927  0.2320  0.5912
   57MOL   C48231954   4.328   3.260   3.654  0.3187 -0.8850  0.2666
   57MOL   C48331955   4.247   3.165   3.580 -0.1285 -0.0748 -0.0566
   57MOL   C48431956   4.278   3.133   3.447  0.0772 -0.8592 -0.5652
   57MOL   C48531957   4.206   3.040   3.381 -0.4880 -0.4889  0.2984
   57MOL   C48631958   4.105   2.973   3.446  0.2385 -0.3778 -0.4678
   57MOL   C48731959   4.032   2.860   3.380 -0.6904 -0.3775  0.1986
   57MOL   O48831960   4.091   2.821   3.257 -0.1178  0.1016  0.5630
   57MOL   C48931961   4.025   2.722   3.192 -0.4202  0.0792 -0.2611
   57MOL   C49031962   4.101   2.719   3.064  0.1266  0.2799 -0.6220
   57MOL   O49131963   3.935   2.799   3.426 -0.1999 -0.4758  0.5355
   57MOL   C49231964   4.066   3.005   3.583 -1.2125  0.2203  0.3980
   57MOL   C49331965   4.143   3.101   3.651  0.0915  0.4493  0.0451
   57MOL   C49431966   4.117   3.126   3.787 -0.4458 -0.5634 -0.0997
   57MOL   C49531967   4.190   3.223   3.858  0.4217  0.3299  1.3014
   57MOL   H49631968   4.419   3.297   3.609 -0.2866  1.0276  0.5549
   57MOL   H49731969   4.362   3.181   3.399  1.0408 -1.0961  0.8628
   57MOL   H49831970   4.222   3.016   3.277 -0.8922 -0.7369  0.2896
   57MOL   H49931971   3.918   2.734   3.178 -0.3438 -1.2572 -2.1072
   57MOL   H50031972   4.041   2.631   3.250 -0.3238  0.3439  0.1344
   57MOL   H50131973   4.203   2.692   3.092 -0.3198 -0.0706  0.6920
   57MOL   H50231974   4.052   2.634   3.016  2.4385 -0.4775 -1.6946
   57MOL   H50331975   3.981   2.961   3.632 -0.0238 -1.9601  0.5760
   57MOL   H50431976   4.035   3.080   3.841  1.1649 -0.6780  2.3311
   57MOL   H50531977   4.179   3.246   3.963  3.0179 -1.2380  1.9730
   57MOL   O50631978   4.299   2.914   3.016 -0.3207 -0.6267  0.3919
   57MOL   C50731979   4.191   2.924   2.955 -0.1938 -0.1853  0.3221
   57MOL   O50831980   4.082   2.838   2.986  0.1548  0.6603  0.1016
   57MOL   C50931981   4.161   3.020   2.842  0.1407  0.0651  0.6413
   57MOL   C51031982   4.037   3.029   2.776 -0.0606  0.4137 -0.5042
   57MOL   C51131983   4.005   3.135   2.686 -0.3191  0.0161 -0.1559
   57MOL   C51231984   3.873   3.159   2.635 -0.3616  0.3595  0.9015
   57MOL   C51331985   3.851   3.255   2.541 -0.1192 -0.6503  0.0629
   57MOL   C51431986   3.962   3.321   2.480 -0.5828  0.1953  0.1399
   57MOL   C51531987   3.947   3.404   2.364 -0.2423  1.2008 -0.1818
   57MOL   O51631988   4.024   3.358   2.268 -0.3547 -0.9473 -0.5201
   57MOL   C51731989   4.003   3.407   2.133  0.2312 -0.4454  0.0698
   57MOL   C51831990   3.908   3.309   2.059 -0.3070 -0.1038 -0.6262
   57MOL   O51931991   3.856   3.487   2.348  0.5954 -0.2351 -0.0122
   57MOL   C52031992   4.090   3.307   2.536  0.4405  0.0881  0.5469
   57MOL   C52131993   4.108   3.220   2.644 -0.8454 -0.2284  0.3212
   57MOL   C52231994   4.231   3.217   2.713 -0.8441  0.0640 -0.1563
   57MOL   C52331995   4.260   3.115   2.810 -0.0271 -0.1059 -0.0613
   57MOL   H52431996   3.959   2.958   2.799  1.0893 -0.3036  1.2443
   57MOL   H52531997   3.791   3.101   2.676  0.1016  0.9571  2.7427
   57MOL   H52631998   3.753   3.287   2.508 -0.2500  0.0088  1.0362
   57MOL   H52731999   4.102   3.410   2.088  0.9491 -3.0937  1.3546
   57MOL   H52832000   3.968   3.510   2.129 -0.3498 -0.6744 -1.2215
   57MOL   H52932001   3.881   3.344   1.959  0.2373 -0.1447 -0.7884
   57MOL   H53032002   3.952   3.211   2.040 -0.1709 -0.0836 -0.4179
   57MOL   H53132003   4.172   3.368   2.502  0.2151 -1.4611 -3.0205
   57MOL   H53232004   4.306   3.291   2.693 -1.1632  0.1427 -1.1025
   57MOL   H53332005   4.361   3.108   2.845  0.1391  1.6728 -0.1275
   57MOL   O53432006   3.710   3.149   1.969 -0.2844  0.0838  0.3743
   57MOL   C53532007   3.690   3.227   2.059 -0.0415  0.2926 -0.2681
   57MOL   O53632008   3.782   3.304   2.117 -0.3117  0.5765 -0.7231
   57MOL   C53732009   3.554   3.241   2.118  0.6675  0.2452 -0.0939
   57MOL   C53832010   3.441   3.207   2.039 -0.1082  0.1291  0.4787
   57MOL   C53932011   3.309   3.223   2.091  0.2921  0.7829 -1.1293
   57MOL   C54032012   3.194   3.186   2.015 -0.1927 -0.4285  0.4666
   57MOL   C54132013   3.068   3.209   2.067  0.3571  0.7627  0.2474
   57MOL   C54232014   3.051   3.266   2.195  0.6810  1.1741  0.2660
   57MOL   C54332015   2.909   3.295   2.237  0.3841  0.1385 -0.2618
   57MOL   O54432016   2.816   3.221   2.179 -0.1082 -0.6791  1.0711
   57MOL   C54532017   2.675   3.267   2.180  0.3867  0.3049 -0.0100
   57MOL   C54632018   2.621   3.244   2.040 -0.2834 -0.6721  0.3876
   57MOL   O54732019   2.882   3.374   2.324  0.5089  0.2303  0.1488
   57MOL   C54832020   3.161   3.304   2.276 -0.0278 -0.3410 -0.5616
   57MOL   C54932021   3.290   3.280   2.222 -0.2383  0.7430  0.5083
   57MOL   C55032022   3.406   3.315   2.295 -0.0647  0.2436 -0.3726
   57MOL   C55132023   3.539   3.306   2.240  0.5630 -0.2522  0.4941
   57MOL   H55232024   3.460   3.166   1.941 -0.3669 -1.8252  1.2231
   57MOL   H55332025   3.216   3.151   1.915  0.1850  1.9550 -0.3075
   57MOL   H55432026   2.982   3.182   2.008 -0.2802  1.6106  0.7772
   57MOL   H55532027   2.662   3.365   2.226  0.1593  0.0972  0.3742
   57MOL   H55632028   2.619   3.196   2.241 -1.9735  1.8064 -0.3363
   57MOL   H55732029   2.512   3.244   2.045 -0.2380 -1.0929  1.7517
   57MOL   H55832030   2.652   3.140   2.027  0.2739 -0.6836  1.6791
   57MOL   H55932031   3.145   3.334   2.378 -1.9138  0.5041 -1.0997
   57MOL   H56032032   3.392   3.357   2.394  1.1328 -1.3203  0.4695
   57MOL   H56132033   3.630   3.333   2.292  0.8968  1.5487 -0.9762
   57MOL   H56232034   2.653   3.318   1.967 -2.3900  0.9065  1.0076
   58MOL     O132035   2.421   8.191   8.007  0.5642  0.1978 -0.1664
   58MOL     C232036   2.481   8.096   8.059  1.0747 -0.9229  0.1005
   58MOL     O332037   2.434   7.969   8.038  0.8333  0.4272 -0.1464
   58MOL     C432038   2.601   8.106   8.144  0.2617  0.6311 -0.0789
   58MOL     C532039   2.697   7.997   8.154 -0.4300  0.2015  0.4814
   58MOL     C632040   2.802   7.995   8.248 -0.8045 -0.2868 -0.1573
   58MOL     C732041   2.870   7.878   0.037 -0.2921  0.4384  0.1526
   58MOL     C832042   2.945   7.875   0.158  0.4371 -0.3062  0.0483
   58MOL     C932043   2.960   7.995   0.232 -0.7760 -0.4971  1.0486
   58MOL    C1032044   3.024   8.004   0.361 -0.2276 -0.5708 -0.2205
   58MOL    O1132045   3.057   7.877   0.405  0.3068 -0.5272  0.1383
   58MOL    C1232046   3.063   7.856   0.546  0.4569  0.0653  0.2616
   58MOL    C1332047   2.923   7.863   0.616  0.3189 -0.2074 -0.2126
   58MOL    O1432048   3.027   8.112   0.422 -0.4604  0.0628 -0.2281
   58MOL    C1532049   2.899   8.115   0.186  0.3544  0.5449 -0.4599
   58MOL    C1632050   2.817   8.117   0.070 -0.3923  0.0244 -0.4133
   58MOL    C1732051   2.759   8.240   0.028 -0.5379 -0.1636 -0.1114
   58MOL    C1832052   2.638   8.230   8.207 -0.4021  0.5095  0.2669
   58MOL    H1932053   2.670   7.906   8.103  1.5178  0.2812 -0.7449
   58MOL    H2032054   2.864   7.787   8.227  0.3130  0.5972 -0.1547
   58MOL    H2132055   2.992   7.781   0.184  0.4112 -0.5114 -0.6311
   58MOL    H2232056   3.095   7.752   0.555 -3.0844 -1.0601  0.7840
   58MOL    H2332057   3.139   7.925   0.584 -1.1478  1.5956  0.7692
   58MOL    H2432058   2.860   7.791   0.564 -2.3812  0.0047  2.6514
   58MOL    H2532059   2.934   7.816   0.713  1.6480 -0.1587 -0.3216
   58MOL    H2632060   2.916   8.206   0.242 -0.9793  1.2580 -1.1649
   58MOL    H2732061   2.791   0.083   0.073 -1.0382 -0.1163  0.1489
   58MOL    H2832062   2.585   0.071   8.180  1.1661  0.9866 -1.3457
   58MOL    H2932063   2.458   7.913   8.110 -0.6355 -0.9547 -0.7267
   58MOL    O3032064   2.688   7.943   0.483 -0.6220 -0.0346  0.0790
   58MOL    C3132065   2.748   8.027   0.549 -0.5561 -0.1562  0.2567
   58MOL    O3232066   2.859   7.994   0.628  0.5282 -0.3782  0.3176
   58MOL    C3332067   2.722   8.173   0.544 -0.1318 -0.5207  0.2519
   58MOL    C3432068   2.808   0.007   0.625  0.2030  1.4583  0.0280
   58MOL    C3532069   2.791   0.150   0.621 -0.1790 -0.5137  0.0356
   58MOL    C3632070   2.876   0.235   0.691  0.7973 -0.1326  0.0727
   58MOL    C3732071   2.871   0.378   0.675  0.7396 -0.4356  0.0073
   58MOL    C3832072   2.785   0.430   0.574  0.4928 -0.5608 -0.3057
   58MOL    C3932073   2.769   0.574   0.547 -0.2968 -0.2079  0.2298
   58MOL    O4032074   2.832   0.650   0.639  0.1450  0.7946  0.6677
   58MOL    C4132075   2.828   0.793   0.632  0.1985  0.1542 -0.6016
   58MOL    C4232076   2.946   0.845   0.547 -0.5436  0.2979  0.3205
   58MOL    O4332077   2.695   0.613   0.454 -0.7595 -0.0039  0.2501
   58MOL    C4432078   2.695   0.343   0.503 -0.1892 -0.7404 -0.0118
   58MOL    C4532079   2.704   0.207   0.526 -0.4909  0.3300 -0.5316
   58MOL    C4632080   2.608   0.124   0.467  0.3494  0.4589 -0.0286
   58MOL    C4732081   2.618   8.229   0.463 -0.9400  0.5040 -0.0271
   58MOL    H4832082   2.885   8.212   0.686 -0.9398  0.0421  0.4702
   58MOL    H4932083   2.946   0.195   0.763  1.5434 -1.3072 -1.2865
   58MOL    H5032084   2.949   0.433   0.724  2.6629 -2.3695 -0.7850
   58MOL    H5132085   2.849   0.826   0.734 -0.3207 -4.0844  0.9629
   58MOL    H5232086   2.732   0.835   0.603 -0.5339 -0.8455  0.3202
   58MOL    H5332087   3.039   0.807   0.591  0.6570  2.8110  0.0673
   58MOL    H5432088   2.930   0.826   0.441 -1.8561  1.1991  0.3401
   58MOL    H5532089   2.631   0.383   0.425  1.4011  1.0936 -0.4035
   58MOL    H5632090   2.531   0.179   0.415 -0.6058 -0.7803  0.0638
   58MOL    H5732091   2.551   8.172   0.401 -2.2646  2.8692 -0.8418
   58MOL    O5832092   2.793   1.024   0.410 -0.4998 -0.4962  0.5313
   58MOL    C5932093   2.862   1.068   0.499  0.5432  0.2334  0.8000
   58MOL    O6032094   2.943   0.983   0.576 -0.7115 -0.3207  0.0658
   58MOL    C6132095   2.868   1.207   0.535  0.5955 -0.6102  0.4471
   58MOL    C6232096   2.937   1.250   0.653 -0.0238  0.0671 -0.5104
   58MOL    C6332097   2.921   1.387   0.693  0.3037 -0.0426  0.0308
   58MOL    C6432098   2.973   1.415   0.818 -0.6097 -0.4333 -0.3287
   58MOL    C6532099   2.972   1.549   0.856  0.2987 -1.0214  0.1275
   58MOL    C6632100   2.914   1.655   0.777  0.3300 -0.1487  0.2401
   58MOL    C6732101   2.908   1.798   0.820  1.0330  0.1604 -0.0387
   58MOL    O6832102   2.960   1.811   0.942  0.0308  0.2768  0.2969
   58MOL    C6932103   2.984   1.944   0.992  0.1533  0.4783 -0.0497
   58MOL    C7032104   3.107   2.002   0.911  0.4617  0.0546 -0.7089
   58MOL    O7132105   2.860   1.893   0.753  0.0071  0.2583  0.0260
   58MOL    C7232106   2.852   1.622   0.657  0.3006  0.6031  0.0649
   58MOL    C7332107   2.856   1.487   0.609  0.3998 -0.1265 -0.1214
   58MOL    C7432108   2.800   1.439   0.492  0.1668 -0.1119  0.4571
   58MOL    C7532109   2.807   1.301   0.454  0.0044  0.0766 -0.5189
   58MOL    H7632110   2.985   1.178   0.719  0.4755 -1.2451 -2.2692
   58MOL    H7732111   3.030   1.341   0.873 -0.4730  0.1273  0.2855
   58MOL    H7832112   3.037   1.586   0.934 -0.6233  3.9050 -1.2670
   58MOL    H7932113   3.009   1.953   1.098 -0.0399 -1.4968  0.1722
   58MOL    H8032114   2.903   2.015   0.975  1.2230  1.3642 -1.6364
   58MOL    H8132115   3.085   1.998   0.804  2.2418  0.5004 -1.1138
   58MOL    H8232116   3.123   2.105   0.943 -0.7271  0.7244 -2.1998
   58MOL    H8332117   2.792   1.694   0.602 -2.5887 -1.4244  0.4643
   58MOL    H8432118   2.763   1.516   0.427 -0.9360  0.4639  1.7400
   58MOL    H8532119   2.763   1.263   0.362 -0.1705  1.5174 -1.0425
   58MOL    O8632120   3.219   1.940   1.173 -0.2409  0.0156  0.7025
   58MOL    C8732121   3.279   1.913   1.070  0.2048 -0.3169  0.2153
   58MOL    O8832122   3.230   1.935   0.944 -0.1906  0.8237 -0.5520
   58MOL    C8932123   3.406   1.840   1.069 -0.0060  0.9098 -0.3233
   58MOL    C9032124   3.461   1.796   1.188 -0.8155 -0.2904  0.5459
   58MOL    C9132125   3.585   1.726   1.185  1.2342 -0.8494  0.1318
   58MOL    C9232126   3.639   1.671   1.299 -0.1084 -0.4832  0.8128
   58MOL    C9332127   3.759   1.594   1.295  0.2707 -0.8029  0.1952
   58MOL    C9432128   3.830   1.578   1.172  0.3076  0.1386  0.1495
   58MOL    C9532129   3.965   1.511   1.177  0.8347 -0.4839 -1.0051
   58MOL    O9632130   4.034   1.534   1.058 -0.4194 -0.0268  0.0417
   58MOL    C9732131   4.148   1.447   1.034  0.0380  0.1517 -0.3915
   58MOL    C9832132   4.103   1.302   0.990 -0.0467 -1.1400  0.2464
   58MOL    O9932133   4.004   1.446   1.273  0.0789  0.3927 -0.2356
   58MOL   C10032134   3.768   1.622   1.052  0.1406 -0.0359 -0.6629
   58MOL   C10132135   3.647   1.697   1.061 -0.3084 -0.8708  0.2315
   58MOL   C10232136   3.588   1.743   0.941  0.3419 -0.0017 -0.3224
   58MOL   C10332137   3.468   1.812   0.945 -0.0741 -0.8219  0.0005
   58MOL   H10432138   3.405   1.797   1.281  0.4534 -3.2188  1.4133
   58MOL   H10532139   3.604   1.692   1.399  0.6856 -0.0378  1.0060
   58MOL   H10632140   3.802   1.556   1.386 -1.0886  0.5518  1.4210
   58MOL   H10732141   4.215   1.452   1.119  1.0587  1.0532 -1.2177
   58MOL   H10832142   4.199   1.496   0.950 -0.4095  0.3886 -0.5294
   58MOL   H10932143   4.013   1.274   1.045  1.3108 -2.9756  1.6005
   58MOL   H11032144   4.080   1.301   0.884  0.1724 -1.6794  0.2029
   58MOL   H11132145   3.815   1.597   0.958  0.9374  1.1960 -0.6044
   58MOL   H11232146   3.644   1.732   0.849  2.1124 -0.5340  0.7968
   58MOL   H11332147   3.426   1.850   0.853  0.8641  1.4876  0.5013
   58MOL   O11432148   4.324   1.256   0.824  0.4603  0.0170  0.5118
   58MOL   C11532149   4.307   1.194   0.929  0.3227 -0.1900 -0.5276
   58MOL   O11632150   4.208   1.213   1.019 -0.1425  0.6235 -0.3208
   58MOL   C11732151   4.394   1.075   0.962  0.2863  0.6655 -0.3625
   58MOL   C11832152   4.353   0.982   1.056 -0.0610 -1.1603 -0.2166
   58MOL   C11932153   4.433   0.868   1.084 -0.4853  0.6236  0.0670
   58MOL   C12032154   4.398   0.778   1.189 -0.0361 -0.1221  0.8415
   58MOL   C12132155   4.479   0.668   1.217 -0.1662 -0.2239  0.1125
   58MOL   C12232156   4.607   0.654   1.154  0.1703 -0.3902 -0.6092
   58MOL   C12332157   4.690   0.541   1.194  0.1903  0.1619 -0.1566
   58MOL   O12432158   4.643   0.484   1.309 -0.1291  0.2414 -0.0622
   58MOL   C12532159   4.678   0.348   1.332  0.3699  0.0129 -0.2063
   58MOL   C12632160   4.762   0.326   1.459 -0.2134 -0.2678 -0.5376
   58MOL   O12732161   4.780   0.504   1.125  0.1273 -0.0549  0.0240
   58MOL   C12832162   4.647   0.744   1.050 -0.0255  0.6901  0.2699
   58MOL   C12932163   4.553   0.840   1.011 -0.6538 -0.0814 -0.2308
   58MOL   C13032164   4.594   0.935   0.915  0.0284  0.3682  0.2876
   58MOL   C13132165   4.516   1.049   0.890 -0.1698  0.1751 -0.1993
   58MOL   H13232166   4.264   1.004   1.112  0.3892  2.9362 -0.9677
   58MOL   H13332167   4.307   0.800   1.244 -1.4081  1.7365 -2.0560
   58MOL   H13432168   4.451   0.608   1.302 -1.4757 -1.2228 -1.0077
   58MOL   H13532169   4.729   0.296   1.251 -1.2489  0.1510 -1.3381
   58MOL   H13632170   4.583   0.295   1.331  0.2433  0.2588 -1.5334
   58MOL   H13732171   4.866   0.308   1.429 -0.3703 -0.8264 -0.7383
   58MOL   H13832172   4.770   0.418   1.518  3.2632 -1.2939  0.7141
   58MOL   H13932173   4.740   0.726   0.998 -0.5434  2.2407 -1.2461
   58MOL   H14032174   4.679   0.925   0.850 -0.2437  0.6359 -0.1084
   58MOL   H14132175   4.547   1.117   0.812 -2.2889 -0.0518 -1.2646
   58MOL   O14232176   4.575   0.330   1.658 -0.5155  0.7111  0.2459
   58MOL   C14332177   4.618   0.223   1.621 -0.3896 -0.2255  0.2749
   58MOL   O14432178   4.724   0.213   1.533  0.1034  0.1371  0.1106
   58MOL   C14532179   4.558   0.096   1.655 -0.1371  0.3997 -0.0415
   58MOL   C14632180   4.456   0.095   1.756  0.0298  0.4117  0.2079
   58MOL   C14732181   4.405   8.223   1.802 -0.4131  0.0087  0.6749
   58MOL   C14832182   4.310   8.227   1.901 -0.1720  0.5879 -0.1748
   58MOL   C14932183   4.249   8.107   1.944  0.0046  0.9395 -1.0070
   58MOL   C15032184   4.294   7.983   1.887  1.3326 -0.0739  0.5659
   58MOL   C15132185   4.228   7.858   1.925  0.1167  0.2690 -0.9595
   58MOL   O15232186   4.231   7.767   1.829 -0.4139  0.2174 -0.3366
   58MOL   C15332187   4.175   7.639   1.861  0.8498  0.2120 -0.1179
   58MOL   C15432188   4.023   7.637   1.860  0.2126 -0.0501  0.2900
   58MOL   O15532189   4.166   7.846   2.031 -0.2470 -0.3381 -0.3810
   58MOL   C15632190   4.396   7.983   1.790 -0.5128  0.5291  0.4822
   58MOL   C15732191   4.450   8.100   1.746 -0.1599 -0.0117 -0.4516
   58MOL   C15832192   4.542   8.103   1.638 -0.2565  0.9082  0.1954
   58MOL   C15932193   4.601   8.219   1.597 -0.1313  1.0958  0.8038
   58MOL   H16032194   4.430   0.184   1.811 -0.0363 -0.0219  0.8830
   58MOL   H16132195   4.273   0.071   1.941 -0.7264  1.2564 -2.1896
   58MOL   H16232196   4.158   8.112   2.002  0.4781 -0.0868 -0.1660
   58MOL   H16332197   4.204   7.625   1.966 -0.3184  2.7243  0.5669
   58MOL   H16432198   4.211   7.555   1.802 -0.7406 -1.2024  0.8669
   58MOL   H16532199   3.990   7.741   1.861  0.5662  0.0613  1.1684
   58MOL   H16632200   3.992   7.585   1.770 -0.9245  0.9108  0.1141
   58MOL   H16732201   4.426   7.895   1.735  1.0059  1.7184 -0.6337
   58MOL   H16832202   4.584   8.010   1.599  1.5594  1.2937  1.1672
   58MOL   H16932203   4.676   8.216   1.518 -1.7066 -2.0725 -0.6823
   58MOL   O17032204   3.783   7.505   1.918  0.5549 -0.1615 -0.1147
   58MOL   C17132205   3.874   7.504   2.000 -0.8834 -0.1662  0.2945
   58MOL   O17232206   3.985   7.573   1.983  0.2709 -0.3647  0.8366
   58MOL   C17332207   3.865   7.433   2.131 -0.3043 -0.2893 -0.0715
   58MOL   C17432208   3.749   7.364   2.150  0.9079 -0.0693 -0.3597
   58MOL   C17532209   3.734   7.290   2.274  0.3731  0.7671 -0.2011
   58MOL   C17632210   3.615   7.221   2.307  0.2691 -0.3754 -0.2490
   58MOL   C17732211   3.602   7.158   2.436  0.2626  0.2827  0.5780
   58MOL   C17832212   3.707   7.157   2.529 -0.2885 -0.8734  0.4606
   58MOL   C17932213   3.699   7.079   2.657  0.2668 -0.6657  0.1820
   58MOL   O18032214   3.810   7.102   2.735  0.1945 -0.2296  0.6449
   58MOL   C18132215   3.854   7.058   2.863  0.0481  0.0945 -0.6650
   58MOL   C18232216   3.908   6.914   2.864  0.5847  0.0129  0.1575
   58MOL   O18332217   3.605   7.004   2.689  0.2495  0.2869 -0.3817
   58MOL   C18432218   3.832   7.216   2.495 -0.2382  0.1739  0.0207
   58MOL   C18532219   3.842   7.285   2.371 -0.0015 -0.0523  0.4586
   58MOL   C18632220   3.963   7.355   2.339  0.1598  0.6280  0.0682
   58MOL   C18732221   3.971   7.430   2.220 -0.6859  0.0798 -0.7867
   58MOL   H18832222   3.669   7.358   2.078  1.2709  2.7640 -1.0874
   58MOL   H18932223   3.528   7.234   2.245 -0.2643  0.1908  0.5999
   58MOL   H19032224   3.514   7.103   2.464 -1.2289  1.9880 -0.6723
   58MOL   H19132225   3.766   7.052   2.927  1.5143  2.4101  1.6781
   58MOL   H19232226   3.925   7.125   2.910  1.2403 -1.8559  0.3596
   58MOL   H19332227   3.903   6.872   2.964  0.4009 -1.2716 -0.3809
   58MOL   H19432228   3.836   6.860   2.803  0.4729 -1.9115  1.9507
   58MOL   H19532229   3.918   7.220   2.560 -0.0758 -1.0463 -0.1030
   58MOL   H19632230   4.052   7.359   2.399 -1.0638 -0.2866  2.0136
   58MOL   H19732231   4.061   7.481   2.187 -0.1254  0.5085  1.3287
   58MOL   O19832232   4.151   6.978   2.993  0.9204 -0.0996  0.3088
   58MOL   C19932233   4.143   6.921   2.882 -0.2041 -0.1733  0.0610
   58MOL   O20032234   4.031   6.903   2.807  0.3621 -0.6442  0.4325
   58MOL   C20132235   4.269   6.885   2.803  0.4522  0.6222  0.2688
   58MOL   C20232236   4.397   6.909   2.858 -0.3488  0.4458 -0.8920
   58MOL   C20332237   4.511   6.891   2.785  0.5372 -0.2042 -0.0155
   58MOL   C20432238   4.634   6.929   2.847  0.2777 -0.3303  0.1980
   58MOL   C20532239   4.752   6.926   2.769 -0.8830 -0.5135  0.0397
   58MOL   C20632240   4.748   6.881   2.633 -0.9080  0.6571  0.2864
   58MOL   C20732241   4.869   6.856   2.565 -0.6653 -0.1152  0.1442
   58MOL   O20832242   4.974   6.837   2.647 -0.7220 -0.3345 -0.1502
   58MOL   C20932243   5.092   6.784   2.592  0.2081  0.0354  0.0113
   58MOL   C21032244   5.203   6.885   2.606 -0.8645 -0.3829  0.3477
   58MOL   O21132245   4.879   6.835   2.445 -0.3502 -0.0948 -0.5382
   58MOL   C21232246   4.620   6.854   2.569 -0.2872 -0.3472 -0.2649
   58MOL   C21332247   4.501   6.861   2.646 -0.5099 -0.4838  0.2262
   58MOL   C21432248   4.371   6.836   2.587 -0.4408  0.0926  0.4478
   58MOL   C21532249   4.255   6.844   2.668  0.0178 -0.1623  0.3101
   58MOL   H21632250   4.399   6.956   2.956 -0.4144 -1.3586 -0.0178
   58MOL   H21732251   4.633   6.955   2.952  1.5232 -3.1470  0.9863
   58MOL   H21832252   4.846   6.956   2.813 -2.0788  2.7137  0.5807
   58MOL   H21932253   5.083   6.747   2.490  1.2005 -0.9892  0.2864
   58MOL   H22032254   5.127   6.695   2.644  0.5193  0.9213  1.3338
   58MOL   H22132255   5.203   6.938   2.702 -1.2048 -0.6220  0.4786
   58MOL   H22232256   5.300   6.836   2.597 -0.6228  0.3868 -1.3206
   58MOL   H22332257   4.625   6.813   2.469  1.9900 -0.1669 -0.2506
   58MOL   H22432258   4.361   6.826   2.480  1.1224 -1.2859  0.4104
   58MOL   H22532259   4.162   6.850   2.614  0.5468 -0.1625 -0.5976
   58MOL   O22632260   5.393   7.050   2.500 -0.1601  0.9000 -0.3427
   58MOL   C22732261   5.290   7.036   2.439  0.0275  0.5185  0.1648
   58MOL   O22832262   5.188   6.970   2.494  0.5308 -0.7121 -0.4110
   58MOL   C22932263   5.264   7.081   2.300  0.6811  0.8752 -0.1819
   58MOL   C23032264   5.368   7.132   2.219 -0.0103 -0.7401 -0.2526
   58MOL   C23132265   5.342   7.167   2.086 -0.0107  0.3117 -0.0939
   58MOL   C23232266   5.443   7.208   2.001 -0.4993 -0.5231  0.4290
   58MOL   C23332267   5.423   7.243   1.868  0.0931 -0.2085  0.3657
   58MOL   C23432268   5.288   7.242   1.819 -0.1815 -0.0941  0.2823
   58MOL   C23532269   5.272   7.285   1.680  0.3094  0.1271 -0.0265
   58MOL   O23632270   5.385   7.282   1.610  0.5385 -0.5472  0.9130
   58MOL   C23732271   5.391   7.325   1.472 -0.3316  0.1254 -0.0551
   58MOL   C23832272   5.383   7.475   1.443 -0.0321 -0.1640  0.1708
   58MOL   O23932273   5.163   7.326   1.640  0.0237  0.1526  0.3839
   58MOL   C24032274   5.184   7.194   1.901 -0.2034 -0.0660 -0.6556
   58MOL   C24132275   5.208   7.156   2.032 -0.0478 -0.0532 -0.1420
   58MOL   C24232276   5.098   7.123   2.114  0.2491  0.0337 -0.9458
   58MOL   C24332277   5.129   7.079   2.242 -0.8901 -0.2223 -0.1601
   58MOL   H24432278   5.468   7.136   2.260  0.1052 -1.2726 -0.4803
   58MOL   H24532279   5.548   7.223   2.019 -0.3474  1.6265 -1.9289
   58MOL   H24632280   5.501   7.298   1.817  0.0336 -1.3510 -0.9612
   58MOL   H24732281   5.313   7.271   1.418 -0.2178 -0.7128  0.6057
   58MOL   H24832282   5.486   7.294   1.429 -2.4359 -4.1844 -1.8466
   58MOL   H24932283   5.281   7.499   1.413  0.1433  0.4739  0.0798
   58MOL   H25032284   5.403   7.528   1.536  1.2810  0.4903 -0.4718
   58MOL   H25132285   5.081   7.180   1.872 -0.4668  0.1023  0.1914
   58MOL   H25232286   5.000   7.120   2.069 -0.2270  2.3320 -0.1002
   58MOL   H25332287   5.046   7.059   2.308 -0.4101  2.4547  1.3563
   58MOL   O25432288   5.392   7.403   1.177  0.3622  0.0038 -0.0786
   58MOL   C25532289   5.485   7.469   1.219  0.1155  0.3116 -0.5473
   58MOL   O25632290   5.489   7.508   1.347  0.1408 -0.2520 -0.1248
   58MOL   C25732291   5.610   7.492   1.141 -0.4401  0.6814 -0.3730
   58MOL   C25832292   5.710   7.592   1.173 -0.4302  0.4127  0.2887
   58MOL   C25932293   5.816   7.614   1.078  0.5398 -0.6897 -0.1722
   58MOL   C26032294   5.913   7.715   1.100  0.4213 -0.9334 -0.0820
   58MOL   C26132295   6.024   7.731   1.009  0.7262 -0.1241 -0.9915
   58MOL   C26232296   6.032   7.648   0.895  0.0717 -0.6796  0.1673
   58MOL   C26332297   6.154   7.657   0.808  0.4531 -0.7368 -0.4385
   58MOL   O26432298   6.260   7.710   0.869 -0.4848  0.0591  0.6241
   58MOL   C26532299   6.386   7.718   0.805  0.9934  0.0453  0.7160
   58MOL   C26632300   6.411   7.850   0.729  0.4525  0.0584  0.4734
   58MOL   O26732301   6.151   7.616   0.692 -0.4156  0.7463 -0.4959
   58MOL   C26832302   5.938   7.548   0.873  0.1086  0.4892  0.4662
   58MOL   C26932303   5.835   7.525   0.966 -0.3032  0.3753  0.3918
   58MOL   C27032304   5.745   7.422   0.945  0.7444  0.3281  0.0431
   58MOL   C27132305   5.635   7.401   1.037  0.7640  0.6786  0.3778
   58MOL   H27232306   5.700   7.636   1.271  0.6585  1.8942 -0.2415
   58MOL   H27332307   5.915   7.779   1.186  0.6027 -1.9211  0.6497
   58MOL   H27432308   6.093   7.811   1.034  1.1940 -0.5017 -1.0530
   58MOL   H27532309   6.402   7.625   0.751 -1.3408 -0.0688  0.1761
   58MOL   H27632310   6.462   7.715   0.884  2.5049 -0.2270 -0.7039
   58MOL   H27732311   6.505   7.827   0.680  1.0013 -0.3195  1.6866
   58MOL   H27832312   6.335   7.858   0.651 -0.1457 -1.2493  0.8974
   58MOL   H27932313   5.952   7.496   0.779  1.1313 -0.1421  0.9512
   58MOL   H28032314   5.755   7.352   0.864 -0.7454 -1.4887  1.3710
   58MOL   H28132315   5.562   7.325   1.015 -1.8883  2.8578  1.2202
   58MOL   O28232316   6.650   7.974   0.794 -0.2851 -0.2604  0.4768
   58MOL   C28332317   6.548   8.014   0.848 -0.4535 -0.0004 -0.2377
   58MOL   O28432318   6.431   7.967   0.810 -0.0797  0.4689  0.0388
   58MOL   C28532319   6.544   8.127   0.945 -0.2187  0.7198  0.3825
   58MOL   C28632320   6.645   8.227   0.941  0.7450 -0.4855  0.3026
   58MOL   C28732321   6.641   0.090   1.029 -0.0836  0.0432  0.5787
   58MOL   C28832322   6.753   0.173   1.042 -0.1190 -0.7244  0.1671
   58MOL   C28932323   6.752   0.275   1.139 -0.1200 -0.0769  0.2719
   58MOL   C29032324   6.637   0.297   1.224 -0.2503  0.6940 -0.2464
   58MOL   C29132325   6.651   0.404   1.328 -0.8035 -0.7315 -0.3059
   58MOL   O29232326   6.548   0.436   1.402  0.4418 -0.4486 -0.0005
   58MOL   C29332327   6.556   0.538   1.499  0.7157  0.2491  0.6236
   58MOL   C29432328   6.560   0.481   1.644 -0.4976 -0.8156  0.1890
   58MOL   O29532329   6.763   0.457   1.352  0.0859 -0.1712 -0.3253
   58MOL   C29632330   6.527   0.208   1.215  0.3306 -0.1580  0.0165
   58MOL   C29732331   6.534   0.109   1.119 -0.0554  0.3823 -0.2979
   58MOL   C29832332   6.431   0.018   1.115 -1.0179  0.5250 -0.0171
   58MOL   C29932333   6.436   8.157   1.031 -0.3287 -0.3279  0.2208
   58MOL   H30032334   6.725   8.218   0.869  0.5864  0.6764 -0.0277
   58MOL   H30132335   6.839   0.154   0.979 -0.2222  1.5119 -0.7027
   58MOL   H30232336   6.837   0.341   1.151 -2.5818  2.8141  2.5499
   58MOL   H30332337   6.457   0.583   1.504 -0.5454 -2.4132  0.2937
   58MOL   H30432338   6.628   0.616   1.475 -0.2826  0.4442 -2.0106
   58MOL   H30532339   6.512   0.555   1.709  0.4068  1.4450 -1.6409
   58MOL   H30632340   6.502   0.390   1.657 -2.8051  1.1191  4.7407
   58MOL   H30732341   6.450   0.215   1.291  3.6037 -0.1527  3.5180
   58MOL   H30832342   6.348   0.032   1.182 -0.4533  0.1902  0.7591
   58MOL   H30932343   6.362   8.080   1.044  0.7060 -0.9789  2.6404
   58MOL   O31032344   6.768   0.679   1.684 -0.2084 -0.5073  0.4042
   58MOL   C31132345   6.771   0.561   1.725  0.4083 -0.1381  0.3589
   58MOL   O31232346   6.690   0.459   1.696  0.0615 -0.3220  0.3403
   58MOL   C31332347   6.868   0.518   1.829  0.0795 -0.6251 -0.4281
   58MOL   C31432348   6.880   0.385   1.882  0.4451  0.3795  0.1908
   58MOL   C31532349   6.994   0.352   1.959  0.5458  0.4875  0.0918
   58MOL   C31632350   7.012   0.220   2.011  0.0666 -0.0432 -0.7910
   58MOL   C31732351   7.120   0.188   2.089 -0.4084  0.4857 -0.2039
   58MOL   C31832352   7.218   0.286   2.120 -0.3634 -0.0474 -0.2499
   58MOL   C31932353   7.343   0.257   2.184  0.1754 -0.1311 -0.0729
   58MOL   O32032354   7.346   0.125   2.232 -0.5772  0.4007 -0.7156
   58MOL   C32132355   7.466   0.070   2.291 -0.0881  0.3357  0.6828
   58MOL   C32232356   7.498   0.143   2.411 -0.4570 -0.9023 -0.6028
   58MOL   O32332357   7.427   0.343   2.194 -0.2066 -0.2085  0.0290
   58MOL   C32432358   7.194   0.419   2.076 -0.4713  0.5037 -0.7055
   58MOL   C32532359   7.087   0.453   1.991  0.2796  0.3759  0.3174
   58MOL   C32632360   7.062   0.587   1.958 -0.9015 -0.8255  0.5709
   58MOL   C32732361   6.960   0.623   1.877  0.1339  0.2357  0.8184
   58MOL   H32832362   6.801   0.315   1.857  1.1721 -0.5045  0.3820
   58MOL   H32932363   6.937   0.144   1.991 -1.6426  1.1561  0.9017
   58MOL   H33032364   7.125   0.085   2.118  0.5549  0.5949  0.0476
   58MOL   H33132365   7.545   0.072   2.215 -0.8343 -0.9517 -0.1521
   58MOL   H33232366   7.456   8.213   2.314  0.7591  0.2378  0.5974
   58MOL   H33332367   7.601   0.123   2.441 -0.4344  0.2013  0.0604
   58MOL   H33432368   7.487   0.249   2.388 -2.2219 -1.2549 -1.4970
   58MOL   H33532369   7.264   0.500   2.089 -2.6078  2.5090 -1.3141
   58MOL   H33632370   7.132   0.658   1.999 -0.7928 -1.1432  0.9342
   58MOL   H33732371   6.955   0.726   1.844 -0.5733 -0.3987 -1.1592
   58MOL   O33832372   7.568   8.192   2.594  0.1453 -0.2805 -0.2148
   58MOL   C33932373   7.464   0.014   2.606 -0.3488  0.4330 -0.8029
   58MOL   O34032374   7.414   0.102   2.516  0.4304  0.4101  0.0998
   58MOL   C34132375   7.380   0.000   2.721  0.0481  0.5909  0.1489
   58MOL   C34232376   7.384   8.125   2.792 -0.2817  0.1985 -0.0326
   58MOL   C34332377   7.292   8.111   2.900  0.3833  0.3972  0.1941
   58MOL   C34432378   7.292   7.990   2.969  0.3262  0.4416 -0.7115
   58MOL   C34532379   7.201   7.980   3.075  0.1375 -0.5044  0.3525
   58MOL   C34632380   7.117   8.091   3.115 -0.4346  0.1550  0.5695
   58MOL   C34732381   7.028   8.076   3.239  0.4919  0.8719 -0.1979
   58MOL   O34832382   6.962   8.184   3.273  0.0687  0.0570  0.8284
   58MOL   C34932383   6.886   8.188   3.390 -0.9899 -0.6483 -0.2739
   58MOL   C35032384   6.738   8.138   3.363 -0.4978 -0.0511 -0.5643
   58MOL   O35132385   7.022   7.975   3.307  0.3379  0.0829  0.0812
   58MOL   C35232386   7.111   8.200   3.036 -0.4812 -0.4260 -0.0344
   58MOL   C35332387   7.197   8.214   2.924 -0.4455 -0.5432 -0.5067
   58MOL   C35432388   7.192   0.083   2.854  0.7301  0.0346  0.8438
   58MOL   C35532389   7.281   0.093   2.747 -0.6759  0.1955  0.4613
   58MOL   H35632390   7.460   8.050   2.776  1.5288  1.3130  2.7895
   58MOL   H35732391   7.358   7.908   2.943 -1.5365 -0.5643 -2.4357
   58MOL   H35832392   7.202   7.893   3.139  2.1754  0.6757  1.9800
   58MOL   H35932393   6.880   0.045   3.413 -1.0022 -0.7966  0.4239
   58MOL   H36032394   6.927   8.140   3.479 -2.2427 -0.5882  0.3532
   58MOL   H36132395   6.725   8.032   3.342 -2.0262 -0.0440  0.3139
   58MOL   H36232396   6.685   8.151   3.457  2.1980  0.3937  0.9723
   58MOL   H36332397   7.051   0.037   3.058  2.2364  1.3920  0.5278
   58MOL   H36432398   7.119   0.162   2.869  0.8341 -0.0156  1.6394
   58MOL   H36532399   7.275   0.187   2.694 -1.2176  0.7480  1.4708
   58MOL   O36632400   6.510   8.083   3.188 -0.5063  0.2134  0.2603
   58MOL   C36732401   6.565   8.191   3.189 -0.4285  0.8047  0.2812
   58MOL   O36832402   6.668   8.231   3.271 -0.4597  0.1492 -0.3091
   58MOL   C36932403   6.523   0.052   3.104  0.2889  0.0815  0.2999
   58MOL   C37032404   6.562   0.187   3.126  0.3294 -0.4886  0.1848
   58MOL   C37132405   6.530   0.288   3.034  0.3963 -0.2610 -0.5217
   58MOL   C37232406   6.574   0.421   3.063  0.1412 -0.1378  0.2132
   58MOL   C37332407   6.542   0.520   2.977 -0.2498  0.4483  0.1739
   58MOL   C37432408   6.464   0.497   2.862  0.0213 -0.0377  0.4612
   58MOL   C37532409   6.439   0.615   2.772 -0.3463  0.4667 -0.3746
   58MOL   O37632410   6.360   0.582   2.669 -0.0081 -0.3165 -0.9485
   58MOL   C37732411   6.361   0.660   2.554 -0.7737 -0.0232 -0.1466
   58MOL   C37832412   6.272   0.779   2.576  0.3741 -1.0637 -0.6192
   58MOL   O37932413   6.482   0.732   2.774 -0.4791  0.2723  0.2771
   58MOL   C38032414   6.429   0.364   2.830 -0.0677 -0.9643 -0.6776
   58MOL   C38132415   6.454   0.259   2.917  0.2159  0.1015  0.7472
   58MOL   C38232416   6.402   0.131   2.903  0.1998  0.1794 -0.2821
   58MOL   C38332417   6.437   0.032   2.998 -0.5547  0.4179  0.4057
   58MOL   H38432418   6.631   0.216   3.204 -0.6234 -2.7183  1.8903
   58MOL   H38532419   6.634   0.452   3.148  1.7512 -0.9934 -0.5794
   58MOL   H38632420   6.583   0.614   3.010 -1.4302  0.9258  0.3109
   58MOL   H38732421   6.326   0.611   2.463 -0.5548  1.3050 -0.9575
   58MOL   H38832422   6.467   0.680   2.536 -0.6865  0.2425  0.6484
   58MOL   H38932423   6.272   0.819   2.677 -1.0509 -0.3804 -0.8845
   58MOL   H39032424   6.308   0.854   2.505  1.8802 -2.6171 -1.5367
   58MOL   H39132425   6.370   0.352   2.740 -0.5102 -2.0496 -0.2451
   58MOL   H39232426   6.347   0.106   2.814 -0.6678  0.1678  0.2608
   58MOL   H39332427   6.395   8.183   2.984 -2.0237  0.9331  1.1021
   58MOL   O39432428   6.094   0.669   2.753  0.4222 -0.3417 -0.2560
   58MOL   C39532429   6.052   0.700   2.641 -0.5096 -0.3950 -0.0333
   58MOL   O39632430   6.133   0.747   2.551  0.2475 -0.2312 -0.0040
   58MOL   C39732431   5.909   0.690   2.592  0.3891  0.4035  0.2921
   58MOL   C39832432   5.881   0.681   2.454  0.3409 -0.1283 -0.3976
   58MOL   C39932433   5.744   0.667   2.408  0.6921 -0.7132  0.1595
   58MOL   C40032434   5.719   0.669   2.270 -0.0793  0.6302 -0.6840
   58MOL   C40132435   5.586   0.658   2.226  0.0258 -0.4206 -0.7693
   58MOL   C40232436   5.477   0.647   2.316  0.6200  0.4599 -0.1384
   58MOL   C40332437   5.339   0.643   2.263  0.4556 -0.3573 -0.2718
   58MOL   O40432438   5.251   0.597   2.349  0.2451  0.3780 -0.5620
   58MOL   C40532439   5.114   0.619   2.331  0.3588  0.1862 -0.0644
   58MOL   C40632440   5.086   0.772   2.361  0.0527 -0.0107 -0.2971
   58MOL   O40732441   5.305   0.692   2.155  1.0176 -0.2816 -0.1591
   58MOL   C40832442   5.504   0.635   2.454 -0.4808 -0.2721  0.6795
   58MOL   C40932443   5.637   0.653   2.499  0.3143  0.4506 -0.1118
   58MOL   C41032444   5.668   0.648   2.633  0.3435 -0.2137  0.7169
   58MOL   C41132445   5.798   0.669   2.685 -0.3151 -0.4164  0.3887
   58MOL   H41232446   5.956   0.688   2.376 -0.7893  0.7614 -1.4276
   58MOL   H41332447   5.807   0.684   2.210  0.2042  0.2456 -0.3658
   58MOL   H41432448   5.564   0.670   2.121  0.5217 -1.0367 -0.9484
   58MOL   H41532449   5.050   0.553   2.390  2.0908 -1.6863 -0.2108
   58MOL   H41632450   5.090   0.603   2.225 -2.3270  0.9758  0.3874
   58MOL   H41732451   5.147   0.837   2.298  1.1699  1.5999  2.3351
   58MOL   H41832452   4.981   0.775   2.334  0.1723 -0.0336 -0.7565
   58MOL   H41932453   5.417   0.631   2.517 -0.2493  3.1102  1.3010
   58MOL   H42032454   5.581   0.643   2.697  0.0458  0.2432  0.3546
   58MOL   H42132455   5.812   0.680   2.791  2.5008 -3.2159  0.3900
   58MOL   O42232456   5.306   0.896   2.445 -0.4801  0.5345  0.2895
   58MOL   C42332457   5.231   0.850   2.530  0.4493  0.1910  0.2730
   58MOL   O42432458   5.114   0.791   2.499  0.5099 -0.3178  0.1814
   58MOL   C42532459   5.250   0.859   2.678 -0.8533  0.6951 -0.2874
   58MOL   C42632460   5.362   0.926   2.726 -0.1265  0.3593 -0.4317
   58MOL   C42732461   5.381   0.945   2.861 -0.3335  0.1809 -0.5264
   58MOL   C42832462   5.494   1.014   2.906 -0.5174 -0.2269 -0.1316
   58MOL   C42932463   5.511   1.021   3.043  0.2372  0.0974  0.0004
   58MOL   C43032464   5.421   0.971   3.140 -0.1148 -0.0646  0.0319
   58MOL   C43132465   5.453   0.984   3.288  0.3791 -0.6019  0.2783
   58MOL   O43232466   5.580   1.017   3.313  0.4034 -0.5559  0.2721
   58MOL   C43332467   5.627   1.063   3.436  0.4191 -0.3926  0.4045
   58MOL   C43432468   5.614   0.962   3.552 -0.3528  0.4731  0.7592
   58MOL   O43532469   5.371   0.970   3.374  0.2643  0.4285  0.6735
   58MOL   C43632470   5.298   0.923   3.087 -0.0836  0.2649 -0.0504
   58MOL   C43732471   5.280   0.902   2.951 -0.4726 -0.1153 -0.4754
   58MOL   C43832472   5.172   0.831   2.900  0.8775  1.0077 -0.1196
   58MOL   C43932473   5.155   0.811   2.762  0.2047  0.2636 -0.9162
   58MOL   H44032474   5.437   0.967   2.660 -0.0988 -0.4304 -0.8887
   58MOL   H44132475   5.568   1.060   2.843  1.1247  0.1268  2.0238
   58MOL   H44232476   5.583   1.090   3.086  0.4695 -1.1410  1.6737
   58MOL   H44332477   5.576   1.157   3.459  1.3506  0.6278 -1.6306
   58MOL   H44432478   5.732   1.085   3.420 -0.1315  0.5590 -2.0481
   58MOL   H44532479   5.512   0.927   3.565 -0.5801 -0.6057 -3.1754
   58MOL   H44632480   5.667   0.871   3.526 -1.3749 -0.4170  1.7503
   58MOL   H44732481   5.220   0.882   3.149 -0.3901  1.2595  0.2270
   58MOL   H44832482   5.084   0.809   2.959 -0.2883  1.1180 -1.7686
   58MOL   H44932483   5.066   0.760   2.728  0.1545  0.0032 -0.4037
   58MOL   O45032484   5.551   1.186   3.709  0.2347 -0.5822  0.1585
   58MOL   C45132485   5.653   1.125   3.730  0.7296 -0.4735  0.1052
   58MOL   O45232486   5.684   1.013   3.666  0.5396 -0.1397  0.0088
   58MOL   C45332487   5.754   1.165   3.836 -0.2857 -0.0415  0.2569
   58MOL   C45432488   5.706   1.221   3.954  0.1205  0.0322  0.2455
   58MOL   C45532489   5.804   1.270   4.040  0.4000 -0.3691 -0.3854
   58MOL   C45632490   5.761   1.330   4.160  0.5728  0.2132  0.0125
   58MOL   C45732491   5.849   1.403   4.237 -0.7841  0.4715  0.1082
   58MOL   C45832492   5.986   1.415   4.200 -0.4581  0.4261 -0.1171
   58MOL   C45932493   6.081   1.484   4.293 -0.1293 -0.1327 -0.6312
   58MOL   O46032494   6.018   1.539   4.398  0.0641 -0.0132 -0.2369
   58MOL   C46132495   6.091   1.626   4.489  0.2673 -0.3640  0.3161
   58MOL   C46232496   6.119   1.760   4.420 -0.0255 -0.3802  0.1881
   58MOL   O46332497   6.208   1.496   4.282 -0.0654  0.1141  0.4862
   58MOL   C46432498   6.033   1.342   4.091  0.6276 -0.2365  0.6638
   58MOL   C46532499   5.938   1.275   4.008 -0.0845 -0.0158  0.5150
   58MOL   C46632500   5.984   1.212   3.888 -0.4043 -0.3856  0.1797
   58MOL   C46732501   5.893   1.152   3.805  0.7410  0.3769  0.0063
   58MOL   H46832502   5.600   1.221   3.972  0.1782 -0.6847  0.6120
   58MOL   H46932503   5.658   1.322   4.192  0.7707 -1.2617  0.3360
   58MOL   H47032504   5.807   1.451   4.324  0.2978  1.0797  0.3134
   58MOL   H47132505   6.179   1.576   4.531 -0.3766 -0.0536  2.0439
   58MOL   H47232506   6.029   1.644   4.577 -1.3484 -1.2607 -0.6136
   58MOL   H47332507   6.064   1.774   4.327 -0.0845  1.3915  0.4770
   58MOL   H47432508   6.077   1.836   4.484  0.1182  0.6456 -0.9191
   58MOL   H47532509   6.139   1.342   4.069  0.8214  1.9433  1.4510
   58MOL   H47632510   6.090   1.210   3.872 -0.2789 -0.8803  1.0512
   58MOL   H47732511   5.914   1.087   3.721  0.0676 -0.4197  0.4493
   58MOL   O47832512   6.288   1.876   4.605  0.3120 -0.3407  0.4611
   58MOL   C47932513   6.333   1.835   4.501 -0.0642 -0.1882  0.3078
   58MOL   O48032514   6.263   1.778   4.402  0.3395  0.5745  0.1609
   58MOL   C48132515   6.482   1.829   4.467 -1.2787  0.0812  0.3836
   58MOL   C48232516   6.564   1.932   4.527  0.3658  0.8138 -0.6019
   58MOL   C48332517   6.704   1.937   4.509  0.0283  0.4230 -0.5568
   58MOL   C48432518   6.781   2.034   4.577  0.0115 -0.8857  0.1055
   58MOL   C48532519   6.921   2.037   4.558  0.2724  0.6570  0.2757
   58MOL   C48632520   6.986   1.945   4.471 -0.4426 -0.3622  0.1200
   58MOL   C48732521   7.138   1.950   4.468  0.3477  0.1457  0.0203
   58MOL   O48832522   7.189   1.884   4.366  0.0157  0.1413  0.0699
   58MOL   C48932523   7.329   1.869   4.352  0.3013 -0.4109  0.3827
   58MOL   C49032524   7.428   1.987   4.345  0.5925  1.1079 -0.9035
   58MOL   O49132525   7.211   2.006   4.549  0.0185  0.1482 -0.4382
   58MOL   C49232526   6.908   1.846   4.404  0.0785  0.1386  0.1165
   58MOL   C49332527   6.763   1.840   4.421  0.4882 -0.1782  0.0934
   58MOL   C49432528   6.681   1.741   4.360  0.4304  0.6778  0.1312
   58MOL   C49532529   6.541   1.733   4.380  0.2571 -0.1895 -0.1589
   58MOL   H49632530   6.514   2.001   4.593 -0.5730 -0.7363  0.3621
   58MOL   H49732531   6.728   2.106   4.637  1.1563 -0.0696  0.1502
   58MOL   H49832532   6.982   2.098   4.622 -0.0319  0.5259  0.6917
   58MOL   H49932533   7.339   1.807   4.263 -0.9270 -0.9969  0.6428
   58MOL   H50032534   7.360   1.813   4.441  0.1814 -0.4578  0.3949
   58MOL   H50132535   7.407   2.070   4.413  1.9077 -0.1625  1.1058
   58MOL   H50232536   7.532   1.957   4.348  0.2688  0.0174 -0.3048
   58MOL   H50332537   6.953   1.769   4.343 -1.9124 -0.7027 -0.3249
   58MOL   H50432538   6.717   1.665   4.292 -2.3888 -0.5675 -0.0205
   58MOL   H50532539   6.488   1.651   4.334 -0.4244  1.0853 -1.6785
   58MOL   O50632540   7.237   2.169   4.228  0.1329  0.2149  0.2826
   58MOL   C50732541   7.343   2.138   4.170  0.2473 -0.7457  0.8323
   58MOL   O50832542   7.439   2.053   4.218 -0.2642 -0.0639 -0.4067
   58MOL   C50932543   7.369   2.191   4.031 -0.0130 -0.6607 -0.4457
   58MOL   C51032544   7.502   2.185   3.980 -0.3558  0.6955 -0.1177
   58MOL   C51132545   7.532   2.248   3.863 -0.1680 -0.4810  0.4836
   58MOL   C51232546   7.667   2.259   3.829 -0.0433 -0.7387 -0.0410
   58MOL   C51332547   7.701   2.321   3.707  1.0240  0.2001  0.1042
   58MOL   C51432548   7.600   2.354   3.610  0.3133  0.4858 -0.1692
   58MOL   C51532549   7.629   2.373   3.465 -0.4046  0.3123 -0.5304
   58MOL   O51632550   7.744   2.437   3.444  0.2827  0.3876 -0.2169
   58MOL   C51732551   7.795   2.445   3.312  0.4126  1.0404  0.1979
   58MOL   C51832552   7.846   2.590   3.289 -0.0178  0.7350 -0.3199
   58MOL   O51932553   7.552   2.343   3.368  0.1318 -0.3651 -0.3107
   58MOL   C52032554   7.468   2.343   3.649 -0.0215  0.3652 -0.6569
   58MOL   C52132555   7.430   2.304   3.779  0.7751 -0.2850 -0.0491
   58MOL   C52232556   7.297   2.296   3.825 -0.6095 -0.4490  0.7101
   58MOL   C52332557   7.270   2.255   3.957  0.5216  0.1569  0.5110
   58MOL   H52432558   7.578   2.146   4.046  0.2236  1.6173 -0.2245
   58MOL   H52532559   7.745   2.221   3.893 -0.2904 -0.1133  0.6321
   58MOL   H52632560   7.805   2.332   3.682  1.0237 -2.3696 -1.2811
   58MOL   H52732561   7.723   2.414   3.236  2.0539  1.1422 -1.4578
   58MOL   H52832562   7.880   2.377   3.311  0.5823  1.2508  0.2345
   58MOL   H52932563   7.860   2.647   3.381 -2.0495 -1.0143  1.1211
   58MOL   H53032564   7.944   2.609   3.245  0.9108 -2.7709  0.0891
   58MOL   H53132565   7.391   2.360   3.575  0.1401 -0.4681 -1.0222
   58MOL   H53232566   7.216   2.339   3.767 -1.6704 -2.1258  0.9102
   58MOL   H53332567   7.166   2.258   3.985 -0.1022 -1.2545 -1.5335
   58MOL   O53432568   7.591   2.666   3.349  0.3098 -0.0948  0.6408
   58MOL   C53532569   7.631   2.693   3.236  0.4998  0.1429 -0.1208
   58MOL   O53632570   7.751   2.654   3.195 -0.3230 -0.0670  0.4510
   58MOL   C53732571   7.560   2.765   3.126  0.1360  0.0139  0.3362
   58MOL   C53832572   7.629   2.808   3.016 -0.3850  0.0882 -0.0536
   58MOL   C53932573   7.554   2.853   2.898  0.4826 -0.0934 -0.5056
   58MOL   C54032574   7.623   2.885   2.776  0.0136  0.0232 -0.1008
   58MOL   C54132575   7.550   2.926   2.667  0.2364  0.5014  0.1606
   58MOL   C54232576   7.411   2.940   2.676  0.2681 -0.0974  0.1725
   58MOL   C54332577   7.328   2.984   2.559 -1.2637  0.2016 -0.1867
   58MOL   O54432578   7.395   2.970   2.445 -0.3138 -0.0392 -0.6225
   58MOL   C54532579   7.330   2.980   2.322 -0.0224  0.6554  0.9085
   58MOL   C54632580   7.437   2.988   2.213 -0.7734  0.0104 -0.1537
   58MOL   O54732581   7.209   3.008   2.563 -0.2042  0.7909  0.1302
   58MOL   C54832582   7.344   2.905   2.796  0.0971  0.4686 -0.2156
   58MOL   C54932583   7.414   2.867   2.910 -0.1819  1.3177 -0.7710
   58MOL   C55032584   7.346   2.835   3.034  0.0046  0.6287  0.3154
   58MOL   C55132585   7.420   2.779   3.141  1.0297 -0.1962 -0.0132
   58MOL   H55232586   7.733   2.779   3.010 -0.8497 -2.0682  1.8186
   58MOL   H55332587   7.730   2.895   2.771 -0.1243  0.8656 -1.9317
   58MOL   H55432588   7.612   2.955   2.583  2.1208 -0.3179  1.2214
   58MOL   H55532589   7.268   3.070   2.316  1.7203  1.9054  1.2985
   58MOL   H55632590   7.264   2.894   2.309  0.4378  0.7590 -2.4080
   58MOL   H55732591   7.528   2.933   2.237 -0.0021  0.7769 -1.2462
   58MOL   H55832592   7.462   3.092   2.190  3.4161 -0.2077  2.8671
   58MOL   H55932593   7.236   2.903   2.800  0.0834 -0.1503 -0.8487
   58MOL   H56032594   7.238   2.845   3.035  0.1571  2.3163  1.1289
   58MOL   H56132595   7.375   2.750   3.235  0.0133 -0.7080 -0.6411
   58MOL   H56232596   7.397   2.954   2.117 -1.2112 -1.4473  0.5374
   59MOL     O132597   2.716   4.974   4.043  0.0663 -0.1868  0.2997
   59MOL     C232598   2.791   5.024   4.123 -0.2811 -0.2573 -0.4693
   59MOL     O332599   2.910   5.084   4.095  0.5826 -0.0671 -0.0794
   59MOL     C432600   2.773   5.013   4.269 -0.4245 -0.0298 -0.6836
   59MOL     C532601   2.835   5.109   4.360 -0.1850 -0.1771  0.1631
   59MOL     C632602   2.810   5.101   4.495  0.2405 -0.9169 -0.3854
   59MOL     C732603   2.887   5.183   4.581 -0.1854 -0.6390  0.1577
   59MOL     C832604   2.861   5.175   4.718 -0.2075 -0.0210  0.2199
   59MOL     C932605   2.770   5.081   4.773  0.8400 -0.1152  0.4719
   59MOL    C1032606   2.721   5.097   4.907 -0.5023 -0.2361  0.2715
   59MOL    O1132607   2.791   5.184   4.978 -0.3995  0.1576 -0.0413
   59MOL    C1232608   2.758   5.194   5.119 -0.1772  0.2527 -0.0109
   59MOL    C1332609   2.849   5.287   5.201  0.8517  0.1375  0.3799
   59MOL    O1432610   2.625   5.032   4.950  0.2900 -0.1215  0.1964
   59MOL    C1532611   2.701   4.993   4.689  0.0992 -0.2042 -0.6896
   59MOL    C1632612   2.729   4.996   4.548  0.0043  0.4123 -0.0624
   59MOL    C1732613   2.672   4.901   4.464 -0.7782  0.2530 -0.0478
   59MOL    C1832614   2.698   4.905   4.323 -0.4234  0.5484 -0.1078
   59MOL    H1932615   2.898   5.188   4.321  2.9873 -1.9989  1.3496
   59MOL    H2032616   2.951   5.254   4.531  0.8829 -0.2051  2.1094
   59MOL    H2132617   2.908   5.245   4.786 -0.1323 -0.2562  0.4090
   59MOL    H2232618   2.654   5.226   5.124  0.0511  1.1000 -0.6232
   59MOL    H2332619   2.764   5.094   5.163  0.2702 -0.0938 -0.8419
   59MOL    H2432620   2.957   5.285   5.185  0.7475 -0.6362 -0.2473
   59MOL    H2532621   2.821   5.390   5.178 -1.2882 -0.4538  0.2064
   59MOL    H2632622   2.627   4.925   4.728  1.7697 -0.6397  1.8509
   59MOL    H2732623   2.606   4.823   4.498 -2.0412  1.2401 -0.1818
   59MOL    H2832624   2.653   4.836   4.253  0.4306 -0.5842  0.4589
   59MOL    H2932625   2.962   5.028   4.039 -1.1988 -0.4727 -1.3655
   59MOL    O3032626   3.021   5.151   5.361  0.2081  0.0470 -0.0800
   59MOL    C3132627   2.917   5.194   5.407  0.2421 -0.5238  0.0793
   59MOL    O3232628   2.823   5.270   5.335 -0.3664 -0.0335 -0.2275
   59MOL    C3332629   2.873   5.155   5.540  0.8812 -0.5400 -0.0604
   59MOL    C3432630   2.735   5.175   5.570 -0.0315  0.3409 -0.5164
   59MOL    C3532631   2.683   5.135   5.697 -0.6467  0.3249  0.8990
   59MOL    C3632632   2.551   5.146   5.733 -1.0249 -0.1486 -0.1045
   59MOL    C3732633   2.513   5.117   5.863  0.1202  0.0414 -0.2492
   59MOL    C3832634   2.607   5.060   5.957  0.3423 -0.8917  0.1948
   59MOL    C3932635   2.564   5.021   6.096  0.3899 -0.4983 -0.2411
   59MOL    O4032636   2.633   4.931   6.157 -0.5457  0.6370  0.1693
   59MOL    C4132637   2.610   4.898   6.299 -0.3964  0.1089  0.3326
   59MOL    C4232638   2.503   4.789   6.294 -0.5593 -0.3005 -0.0385
   59MOL    O4332639   2.471   5.080   6.158 -0.8768 -1.4072 -0.4079
   59MOL    C4432640   2.732   5.034   5.913  0.3870 -0.3440  0.4719
   59MOL    C4532641   2.772   5.071   5.784  0.1046 -0.3903  0.2035
   59MOL    C4632642   2.909   5.047   5.759  0.5382  0.4118 -0.0080
   59MOL    C4732643   2.954   5.080   5.630  0.2206  0.4768  0.5038
   59MOL    H4832644   2.670   5.229   5.503 -0.9528 -1.7605 -1.3569
   59MOL    H4932645   2.470   5.180   5.671 -2.2798 -2.0030  0.5055
   59MOL    H5032646   2.415   5.134   5.904  0.4546  0.0545  0.5448
   59MOL    H5132647   2.572   4.986   6.351  0.4294 -0.6065  2.2112
   59MOL    H5232648   2.705   4.868   6.343 -0.8946 -0.2101  1.2169
   59MOL    H5332649   2.493   4.755   6.397 -0.2220 -0.3868 -0.0346
   59MOL    H5432650   2.409   4.834   6.262  0.7966  1.4341 -1.7083
   59MOL    H5532651   2.811   4.991   5.973  1.1511 -2.8430 -2.2084
   59MOL    H5632652   2.981   5.012   5.831 -1.3652  1.1806  2.3584
   59MOL    H5732653   3.060   5.068   5.612  0.2343 -0.4350  1.1670
   59MOL    O5832654   2.392   4.545   6.268 -0.3038 -0.3221 -0.0469
   59MOL    C5932655   2.483   4.578   6.190  0.3899 -0.1748 -0.8443
   59MOL    O6032656   2.551   4.694   6.200 -0.2189  0.5809 -0.0340
   59MOL    C6132657   2.519   4.493   6.075  0.7489 -0.0349 -0.5195
   59MOL    C6232658   2.467   4.367   6.045 -0.6384 -0.2608  0.7052
   59MOL    C6332659   2.517   4.290   5.936  0.4058 -0.4350  0.0147
   59MOL    C6432660   2.478   4.155   5.913 -0.4533  0.2157  0.1106
   59MOL    C6532661   2.534   4.085   5.810 -0.2322 -0.1705 -0.0099
   59MOL    C6632662   2.642   4.135   5.739 -0.3912 -0.7030 -0.3206
   59MOL    C6732663   2.706   4.055   5.636  0.2354  0.0378 -0.5212
   59MOL    O6832664   2.622   3.958   5.581 -0.0611  0.3293  0.1161
   59MOL    C6932665   2.669   3.894   5.462  0.3101  0.0103  0.5551
   59MOL    C7032666   2.667   3.747   5.496 -0.2879  0.3167  0.2020
   59MOL    O7132667   2.820   4.083   5.594 -0.3021 -0.3653  0.2798
   59MOL    C7232668   2.678   4.271   5.755  0.4028 -0.3243  0.1689
   59MOL    C7332669   2.622   4.349   5.857 -0.0211  0.4769 -0.5205
   59MOL    C7432670   2.659   4.482   5.875  0.0164 -0.1626 -0.0305
   59MOL    C7532671   2.608   4.555   5.981  0.3024  0.4406  0.0194
   59MOL    H7632672   2.394   4.325   6.112 -0.1787 -0.1606  1.2745
   59MOL    H7732673   2.406   4.101   5.974  0.4097  0.0662  1.0157
   59MOL    H7832674   2.498   3.987   5.781 -0.3846 -0.0008 -0.3934
   59MOL    H7932675   2.766   3.930   5.426 -0.5369  1.1495 -0.6946
   59MOL    H8032676   2.592   3.919   5.389 -0.1636 -2.0482  0.3188
   59MOL    H8132677   2.724   3.718   5.585  0.5610 -0.3516 -0.5517
   59MOL    H8232678   2.563   3.718   5.510  0.3621 -2.0714  0.3723
   59MOL    H8332679   2.756   4.312   5.692  0.4265 -1.3536 -0.4804
   59MOL    H8432680   2.739   4.528   5.819  0.4633 -1.9454 -0.9060
   59MOL    H8532681   2.646   4.656   5.983  1.6761 -0.0245 -1.9441
   59MOL    O8632682   2.786   3.498   5.458  0.2147 -0.1588 -0.1849
   59MOL    C8732683   2.773   3.572   5.359  0.4244  0.1281 -0.1639
   59MOL    O8832684   2.709   3.691   5.369  0.5991 -0.1817 -0.1153
   59MOL    C8932685   2.802   3.539   5.220  0.3363 -0.6049  0.1612
   59MOL    C9032686   2.832   3.409   5.188 -0.2751 -0.4740  0.4460
   59MOL    C9132687   2.850   3.362   5.058 -0.1109  0.3585 -0.1471
   59MOL    C9232688   2.878   3.224   5.040  0.6968 -0.6069  0.0277
   59MOL    C9332689   2.894   3.184   4.907  0.2626  0.5499  0.2740
   59MOL    C9432690   2.870   3.262   4.795 -0.2129 -0.0687  0.6705
   59MOL    C9532691   2.885   3.202   4.658  0.2980  0.3430 -0.5524
   59MOL    O9632692   2.919   3.298   4.580  0.4424 -0.0291 -0.3562
   59MOL    C9732693   2.950   3.274   4.442 -0.0772  0.3552 -1.5508
   59MOL    C9832694   3.019   3.394   4.388 -0.2369 -0.3663  0.5583
   59MOL    O9932695   2.886   3.081   4.633 -0.0203  0.3793  0.7325
   59MOL   C10032696   2.830   3.399   4.821 -0.3160  0.2719  0.2072
   59MOL   C10132697   2.819   3.451   4.949  0.3463 -0.1136  1.0581
   59MOL   C10232698   2.785   3.587   4.975 -0.6244  0.3950  0.3989
   59MOL   C10332699   2.778   3.631   5.111 -0.2439 -0.5624 -0.1387
   59MOL   H10432700   2.853   3.347   5.275 -1.0627 -0.7103  0.4690
   59MOL   H10532701   2.904   3.161   5.125 -0.0617 -1.1845 -0.1645
   59MOL   H10632702   2.930   3.082   4.900  0.2782  0.3727  2.6070
   59MOL   H10732703   2.854   3.267   4.391  0.8559 -1.0932 -3.1395
   59MOL   H10832704   3.013   3.185   4.430  1.4631  1.0632  0.7812
   59MOL   H10932705   3.026   3.396   4.279 -0.9633 -0.6584  0.5064
   59MOL   H11032706   2.965   3.484   4.416  1.2192  0.4834  0.6969
   59MOL   H11132707   2.812   3.477   4.749  0.6104  1.1676  0.9406
   59MOL   H11232708   2.766   3.662   4.900 -0.3006 -1.4161 -1.5353
   59MOL   H11332709   2.754   3.734   5.131 -0.4791 -0.9535  1.7089
   59MOL   O11432710   3.226   3.258   4.289 -0.3106 -0.2132 -0.3295
   59MOL   C11532711   3.247   3.325   4.395 -0.9735  0.0564  0.3828
   59MOL   O11632712   3.152   3.400   4.452 -0.0777  0.1566 -0.7108
   59MOL   C11732713   3.383   3.315   4.459 -0.2817 -0.5650  0.5766
   59MOL   C11832714   3.410   3.397   4.571  0.6345  0.1341 -0.2041
   59MOL   C11932715   3.535   3.394   4.621 -0.2453 -0.2895  0.1429
   59MOL   C12032716   3.564   3.477   4.732  0.1582 -0.3609  0.1492
   59MOL   C12132717   3.694   3.480   4.779  0.2235 -0.2543 -1.4085
   59MOL   C12232718   3.796   3.392   4.736 -0.5081  0.2310 -0.7799
   59MOL   C12332719   3.941   3.376   4.782 -0.4563 -0.4980 -0.8932
   59MOL   O12432720   4.026   3.315   4.689  0.1899 -0.3853 -0.2516
   59MOL   C12532721   4.161   3.279   4.729 -0.2510  0.2458 -0.1581
   59MOL   C12632722   4.141   3.146   4.804  0.0867  0.5169 -0.8323
   59MOL   O12732723   3.976   3.408   4.893  0.4872 -0.3572  0.5581
   59MOL   C12832724   3.764   3.311   4.621 -0.1878  0.7749 -0.1965
   59MOL   C12932725   3.636   3.318   4.560 -0.1617  0.1546  0.4304
   59MOL   C13032726   3.608   3.226   4.457  0.3165  0.6234 -0.0763
   59MOL   C13132727   3.479   3.224   4.402  0.5334  0.3768  0.4489
   59MOL   H13232728   3.342   3.465   4.622  0.4681  1.0056 -1.5465
   59MOL   H13332729   3.490   3.535   4.785 -0.5030  0.6086 -1.8014
   59MOL   H13432730   3.704   3.551   4.860 -0.5717 -1.6064 -0.0904
   59MOL   H13532731   4.191   3.366   4.788  0.8141 -0.6795  0.6832
   59MOL   H13632732   4.220   3.270   4.638  0.6408 -1.1457  0.5403
   59MOL   H13732733   4.232   3.109   4.853  2.3646  3.9335 -2.2858
   59MOL   H13832734   4.066   3.158   4.882  0.0449  1.5981 -1.0289
   59MOL   H13932735   3.840   3.244   4.584  0.1653  0.9806  0.1572
   59MOL   H14032736   3.689   3.168   4.414  0.7200  1.6529 -0.7215
   59MOL   H14132737   3.452   3.160   4.319  1.2855  2.4408 -1.4196
   59MOL   O14232738   4.289   2.961   4.655 -0.2345  0.0671 -0.0116
   59MOL   C14332739   4.166   2.969   4.643  0.1857  0.5296  0.1377
   59MOL   O14432740   4.091   3.058   4.704 -0.6796 -0.2812 -0.5363
   59MOL   C14532741   4.095   2.885   4.543 -0.0003 -0.1644  0.0616
   59MOL   C14632742   4.169   2.777   4.485 -0.2965  0.4439  0.0993
   59MOL   C14732743   4.105   2.687   4.393 -0.2287  0.5366 -0.0810
   59MOL   C14832744   4.180   2.574   4.351  0.2329 -0.0921 -0.2206
   59MOL   C14932745   4.116   2.489   4.259  0.1072 -0.4893 -0.0677
   59MOL   C15032746   3.986   2.512   4.208 -0.4163 -0.0633  0.7884
   59MOL   C15132747   3.934   2.420   4.103 -0.0077  0.1786 -0.1529
   59MOL   O15232748   3.835   2.471   4.035  0.3399 -0.9758 -0.0498
   59MOL   C15332749   3.789   2.405   3.910 -0.4241  0.9285  0.5081
   59MOL   C15432750   3.637   2.417   3.886 -0.4562  0.9292 -0.8018
   59MOL   O15532751   4.000   2.326   4.058  0.1128 -0.4144 -0.1940
   59MOL   C15632752   3.915   2.625   4.258  0.2949  0.1549  0.3971
   59MOL   C15732753   3.972   2.705   4.360 -0.1874 -0.1167  0.8553
   59MOL   C15832754   3.897   2.809   4.420 -0.0181  0.7736  0.8031
   59MOL   C15932755   3.958   2.903   4.508 -0.2556  1.1957 -0.8362
   59MOL   H16032756   4.274   2.766   4.509 -0.6190  0.3391  1.5271
   59MOL   H16132757   4.275   2.547   4.393  0.2644  1.1414  0.5105
   59MOL   H16232758   4.180   2.410   4.222  1.9930  0.9086  0.0915
   59MOL   H16332759   3.816   2.300   3.898 -1.4174  0.6327  0.7844
   59MOL   H16432760   3.839   2.455   3.827  0.3308  1.5652  1.3368
   59MOL   H16532761   3.579   2.363   3.961  1.1595  1.1658  0.6546
   59MOL   H16632762   3.596   2.518   3.889 -1.3761  0.5642 -0.8297
   59MOL   H16732763   3.816   2.655   4.227  0.1846 -2.1189 -1.6242
   59MOL   H16832764   3.794   2.832   4.400  0.4169  0.1151 -2.4145
   59MOL   H16932765   3.894   2.982   4.545 -0.1897  1.5617 -1.5036
   59MOL   O17032766   3.595   2.552   3.643  0.1473  0.2631 -0.0046
   59MOL   C17132767   3.592   2.427   3.645  0.5953  0.4328  0.0729
   59MOL   O17232768   3.613   2.354   3.761  0.6352  0.0331  0.0752
   59MOL   C17332769   3.550   2.352   3.522  0.4701 -0.4448  0.2144
   59MOL   C17432770   3.510   2.435   3.405  0.3740  0.2363  0.0004
   59MOL   C17532771   3.496   2.371   3.277 -0.5832  0.2903  0.6493
   59MOL   C17632772   3.476   2.441   3.155 -0.3993 -0.2052 -0.5310
   59MOL   C17732773   3.451   2.373   3.037  0.6748  0.3412 -0.7303
   59MOL   C17832774   3.456   2.230   3.038 -0.0036 -0.2687  0.2472
   59MOL   C17932775   3.454   2.150   2.913  1.0230  0.3247  0.1049
   59MOL   O18032776   3.394   2.222   2.810 -0.0555  0.0999 -0.0063
   59MOL   C18132777   3.376   2.158   2.686  0.0671 -0.1982  0.6449
   59MOL   C18232778   3.368   2.256   2.568  0.5589 -0.5675 -0.1409
   59MOL   O18332779   3.489   2.035   2.905  0.7072  0.1109 -0.2788
   59MOL   C18432780   3.486   2.158   3.153  0.2341  0.0133 -0.3448
   59MOL   C18532781   3.507   2.232   3.271 -0.1841 -0.0819  0.0442
   59MOL   C18632782   3.531   2.154   3.387  0.3876  0.6220 -0.0068
   59MOL   C18732783   3.551   2.214   3.514  0.5110  0.0097  0.5265
   59MOL   H18832784   3.490   2.541   3.412 -1.8319 -0.1594 -0.0399
   59MOL   H18932785   3.449   2.546   3.153 -0.2074 -0.0268  3.1251
   59MOL   H19032786   3.444   2.427   2.943  0.4323  2.1098  0.2924
   59MOL   H19132787   3.279   2.108   2.689 -0.7541  1.4756  3.0122
   59MOL   H19232788   3.462   2.092   2.682  1.1630  1.1947  0.9066
   59MOL   H19332789   3.265   2.293   2.560  0.3543 -1.3236 -1.1547
   59MOL   H19432790   3.422   2.347   2.592 -0.6766 -0.1295  1.0631
   59MOL   H19532791   3.476   2.051   3.152  1.5246 -0.1141 -0.3975
   59MOL   H19632792   3.538   2.046   3.384 -1.5532  0.5051 -0.7158
   59MOL   H19732793   3.598   2.160   3.594  2.8451  1.7067  0.3691
   59MOL   O19832794   3.203   2.101   2.419 -0.2936  0.4602  0.0401
   59MOL   C19932795   3.323   2.110   2.390  0.0676  0.7539  0.4964
   59MOL   O20032796   3.413   2.193   2.454 -0.3186 -0.4014  0.5340
   59MOL   C20132797   3.386   2.033   2.279  0.3704  1.0488  0.1746
   59MOL   C20232798   3.317   1.922   2.224  0.1846 -0.5047 -0.1385
   59MOL   C20332799   3.384   1.854   2.120  0.2164 -0.0401  0.3988
   59MOL   C20432800   3.317   1.741   2.064 -0.8108 -0.5079  0.4127
   59MOL   C20532801   3.369   1.669   1.955  0.1655 -0.0662 -0.7176
   59MOL   C20632802   3.494   1.706   1.904 -0.4581 -1.0538  0.1800
   59MOL   C20732803   3.559   1.637   1.792 -0.2982 -0.3668  0.0734
   59MOL   O20832804   3.482   1.554   1.723 -0.1296  0.6722  0.0702
   59MOL   C20932805   3.540   1.482   1.618 -0.5840 -0.4089 -0.6508
   59MOL   C21032806   3.592   1.341   1.665  0.7045  0.2290  0.0409
   59MOL   O21132807   3.678   1.653   1.770 -0.3884  0.6660 -0.4476
   59MOL   C21232808   3.563   1.814   1.963  0.5124  0.3268  0.9078
   59MOL   C21332809   3.516   1.883   2.071 -0.4698  0.1199  0.1357
   59MOL   C21432810   3.585   1.993   2.129 -0.3719  0.3525  1.1793
   59MOL   C21532811   3.518   2.057   2.238  0.4104 -0.2569 -0.5471
   59MOL   H21632812   3.220   1.892   2.259  0.5024  0.2430  1.4054
   59MOL   H21732813   3.217   1.717   2.098 -0.4561 -1.2144  0.9532
   59MOL   H21832814   3.315   1.581   1.924 -2.3749  1.1285  0.1486
   59MOL   H21932815   3.633   1.528   1.582  1.5083 -2.0359  2.4449
   59MOL   H22032816   3.467   1.475   1.537  0.9172  0.4919 -2.1243
   59MOL   H22132817   3.657   1.306   1.586  2.4492  0.3628  1.3923
   59MOL   H22232818   3.659   1.356   1.750 -0.7875 -2.0212  1.6570
   59MOL   H22332819   3.659   1.839   1.920  1.2757 -1.5890  1.4614
   59MOL   H22432820   3.684   2.023   2.097 -0.4851 -0.8781 -0.3955
   59MOL   H22532821   3.569   2.137   2.290  0.1580 -0.3010 -0.2324
   59MOL   O22632822   3.487   1.161   1.504 -0.4242  0.4450 -0.0589
   59MOL   C22732823   3.434   1.169   1.615 -0.8681  0.2228  0.5501
   59MOL   O22832824   3.490   1.253   1.703  0.6520  0.1439  0.1358
   59MOL   C22932825   3.311   1.090   1.675 -0.3778 -0.9553  0.0808
   59MOL   C23032826   3.239   1.007   1.586 -0.5629 -1.6024 -1.0260
   59MOL   C23132827   3.134   0.932   1.632  0.1791  0.0126  0.0436
   59MOL   C23232828   3.073   0.852   1.534 -0.5528  0.5603  0.4165
   59MOL   C23332829   2.953   0.783   1.567  0.9802 -0.0487  1.0915
   59MOL   C23432830   2.907   0.789   1.702 -0.5292  0.4004  0.0897
   59MOL   C23532831   2.792   0.708   1.745 -0.0003  0.0494 -0.3835
   59MOL   O23632832   2.763   0.702   1.882  0.2343  0.3766  0.5640
   59MOL   C23732833   2.664   0.622   1.934 -0.3295 -0.0594  0.5000
   59MOL   C23832834   2.723   0.521   2.031 -0.8308 -0.3600 -0.9683
   59MOL   O23932835   2.727   0.644   1.662  0.4642 -0.3757 -0.1886
   59MOL   C24032836   2.980   0.860   1.803 -0.7630 -0.7632  0.4458
   59MOL   C24132837   3.091   0.940   1.766  0.1612  0.2293 -0.0959
   59MOL   C24232838   3.155   1.025   1.856 -0.1531  0.2393 -0.2051
   59MOL   C24332839   3.273   1.092   1.816 -0.4804 -0.0920  0.0609
   59MOL   H24432840   3.257   1.015   1.480  0.4579 -1.7756 -0.8756
   59MOL   H24532841   3.111   0.852   1.433  1.4523 -2.0186  1.1253
   59MOL   H24632842   2.899   0.719   1.498  1.2296  1.4929 -0.5857
   59MOL   H24732843   2.603   0.570   1.860 -0.8351  0.7559  0.3324
   59MOL   H24832844   2.588   0.690   1.974  1.6726  1.9932  0.9059
   59MOL   H24932845   2.685   0.422   2.006 -0.9741 -0.0844 -1.8706
   59MOL   H25032846   2.831   0.526   2.028 -0.8048  3.4485  1.9703
   59MOL   H25132847   2.940   0.866   1.903 -2.2141 -0.8675 -0.1164
   59MOL   H25232848   3.147   1.029   1.963 -0.1576  0.1339 -0.2016
   59MOL   H25332849   3.321   1.159   1.885  1.1709 -0.5683 -0.5937
   59MOL   O25432850   2.814   0.719   2.197 -0.5563 -0.2006  0.6261
   59MOL   C25532851   2.714   0.653   2.225  0.4179 -0.0232 -1.1469
   59MOL   O25632852   2.664   0.553   2.155 -0.1072  0.1553 -0.9689
   59MOL   C25732853   2.622   0.685   2.338 -0.2876  0.5873 -0.3424
   59MOL   C25832854   2.496   0.628   2.365 -0.2086 -0.2521  0.1268
   59MOL   C25932855   2.421   0.669   2.480 -0.3269  0.3073 -0.6862
   59MOL   C26032856   2.291   0.616   2.502 -0.3211 -0.1588 -0.2028
   59MOL   C26132857   2.205   0.669   2.602 -0.6359  0.3671 -0.0883
   59MOL   C26232858   2.251   0.776   2.679 -0.0230  0.3622 -0.3887
   59MOL   C26332859   2.169   0.833   2.786 -0.5666  0.1372 -0.3754
   59MOL   O26432860   2.041   0.801   2.788  0.3333  0.0728  0.1407
   59MOL   C26532861   1.941   0.862   2.884 -1.0138  0.0811 -0.6071
   59MOL   C26632862   1.819   0.888   2.808  0.9937  0.0233  0.3601
   59MOL   O26732863   2.215   0.912   2.871 -0.2681 -0.2821  0.1798
   59MOL   C26832864   2.375   0.837   2.650  1.0472  0.0593  0.7163
   59MOL   C26932865   2.461   0.779   2.553 -0.7406 -0.9362 -0.6283
   59MOL   C27032866   2.578   0.848   2.519  0.2770 -0.2171 -0.2749
   59MOL   C27132867   2.662   0.798   2.416  0.2560  0.2802  0.9940
   59MOL   H27232868   2.460   0.550   2.299  0.6291 -0.9991  0.5382
   59MOL   H27332869   2.260   0.528   2.447  1.3663 -1.1918  0.4414
   59MOL   H27432870   2.110   0.630   2.634 -0.9284 -0.2769 -1.6880
   59MOL   H27532871   1.983   0.953   2.928 -0.9802 -0.3063  0.1775
   59MOL   H27632872   1.932   0.785   2.961  2.6510 -0.3855 -0.5633
   59MOL   H27732873   1.806   0.826   2.720  4.3249 -1.0313  0.5648
   59MOL   H27832874   1.731   0.877   2.873  0.6065  0.2333 -0.1239
   59MOL   H27932875   2.394   0.930   2.702 -2.1904  1.5808 -0.6474
   59MOL   H28032876   2.605   0.938   2.573 -0.3262 -0.2993  0.1593
   59MOL   H28132877   2.749   0.854   2.387 -1.6523  1.2352 -3.2402
   59MOL   O28232878   1.615   0.990   2.664 -0.3712 -0.1602  0.3497
   59MOL   C28332879   1.702   1.065   2.707 -0.6569 -0.4141  0.2445
   59MOL   O28432880   1.810   1.019   2.770 -0.3073  0.1783 -0.4826
   59MOL   C28532881   1.703   1.214   2.695  0.5827 -0.0841 -0.2231
   59MOL   C28632882   1.806   1.298   2.742  0.2171 -0.1109  0.0081
   59MOL   C28732883   1.799   1.436   2.740 -0.0939  0.3302 -0.3752
   59MOL   C28832884   1.905   1.513   2.795 -0.1419  0.2093  0.0354
   59MOL   C28932885   1.898   1.650   2.797 -0.4433 -0.1978 -0.9672
   59MOL   C29032886   1.776   1.716   2.766  0.1690  0.0168 -0.3015
   59MOL   C29132887   1.760   1.857   2.790  0.1492 -0.0857  0.6612
   59MOL   O29232888   1.859   1.908   2.862 -0.3623  0.0671 -0.2548
   59MOL   C29332889   1.848   2.041   2.903  0.1085 -0.7309  0.1880
   59MOL   C29432890   1.718   2.078   2.980 -0.7485 -0.0179 -0.0775
   59MOL   O29532891   1.667   1.923   2.742  0.0876 -0.3040  0.3871
   59MOL   C29632892   1.668   1.641   2.713 -0.2966 -0.5234  0.3352
   59MOL   C29732893   1.677   1.499   2.703 -0.5126 -0.4828 -0.2482
   59MOL   C29832894   1.576   1.424   2.649  0.0479 -0.2171  0.1613
   59MOL   C29932895   1.582   1.281   2.646 -0.4172  0.2385 -0.2540
   59MOL   H30032896   1.893   1.249   2.782  1.4802  2.5685  0.6868
   59MOL   H30132897   1.994   1.470   2.839  0.3227  1.0805 -0.0409
   59MOL   H30232898   1.979   1.708   2.839 -0.3623  0.6468 -2.2660
   59MOL   H30332899   1.847   2.097   2.810  0.6625  0.9831  1.2065
   59MOL   H30432900   1.934   2.061   2.967 -0.8932 -1.1565  1.6957
   59MOL   H30532901   1.715   2.186   2.968 -0.5649  0.1177  1.0665
   59MOL   H30632902   1.624   2.036   2.945 -0.0317 -1.0236 -0.8440
   59MOL   H30732903   1.586   1.697   2.672 -0.8924 -2.0685 -0.6337
   59MOL   H30832904   1.489   1.482   2.623  0.2296  0.0940  0.2490
   59MOL   H30932905   1.496   1.225   2.613 -1.3493  1.6947 -0.2944
   59MOL   O31032906   1.878   2.246   3.119 -0.4691 -0.1238 -0.1246
   59MOL   C31132907   1.815   2.158   3.183 -0.9422 -0.3438 -0.4121
   59MOL   O31232908   1.742   2.060   3.119  0.4439 -0.0706 -0.0526
   59MOL   C31332909   1.810   2.160   3.338 -0.8531  0.0309  0.3712
   59MOL   C31432910   1.761   2.052   3.412 -0.8987 -0.3234 -0.5530
   59MOL   C31532911   1.762   2.059   3.554  0.3894  0.0777  0.2144
   59MOL   C31632912   1.722   1.947   3.626 -0.1846 -0.3667 -0.0665
   59MOL   C31732913   1.729   1.953   3.770  0.1429 -0.3696 -0.0294
   59MOL   C31832914   1.781   2.069   3.835 -1.3204  0.2140 -0.1605
   59MOL   C31932915   1.790   2.069   3.987 -0.0780 -0.3262  0.1380
   59MOL   O32032916   1.825   2.192   4.040  0.4121 -0.8332 -0.4206
   59MOL   C32132917   1.847   2.208   4.179  0.4135 -0.7292  0.0375
   59MOL   C32232918   1.858   2.360   4.207 -0.1300 -0.2470  0.0932
   59MOL   O32332919   1.775   1.966   4.052  0.0801 -0.2253 -0.2093
   59MOL   C32432920   1.823   2.179   3.759 -0.0801 -0.1835  0.6366
   59MOL   C32532921   1.815   2.173   3.619  0.0801  0.0772  0.6928
   59MOL   C32632922   1.869   2.279   3.547  0.7476 -0.4241 -0.0092
   59MOL   C32732923   1.862   2.274   3.407 -0.8254  0.4522  0.0010
   59MOL   H32832924   1.722   1.969   3.355  1.3915 -0.4364 -2.0165
   59MOL   H32932925   1.698   1.852   3.581  1.8502 -0.4790 -0.9969
   59MOL   H33032926   1.697   1.866   3.826 -2.1215 -0.3813 -1.2528
   59MOL   H33132927   1.934   2.153   4.216  0.6041  0.0306  0.7374
   59MOL   H33232928   1.766   2.177   4.245  0.0684 -0.4470 -0.2534
   59MOL   H33332929   1.757   2.391   4.230  0.0311 -0.3342  0.9156
   59MOL   H33432930   1.923   2.393   4.288 -0.6345  0.2111  0.3112
   59MOL   H33532931   1.862   2.264   3.813 -2.2879  0.4463  1.3161
   59MOL   H33632932   1.927   2.353   3.600  1.7658 -1.3071  0.1494
   59MOL   H33732933   1.904   2.354   3.349  1.2718 -1.2121 -0.8713
   59MOL   O33832934   1.820   2.633   4.197  0.7233 -0.6719  0.2078
   59MOL   C33932935   1.867   2.575   4.103 -0.2430  0.1967  0.3039
   59MOL   O34032936   1.900   2.448   4.105 -0.2224 -0.1437  0.0299
   59MOL   C34132937   1.902   2.649   3.981  0.0866 -0.3761  0.0260
   59MOL   C34232938   1.970   2.592   3.876 -0.1609 -0.1183 -0.0948
   59MOL   C34332939   1.997   2.670   3.762 -0.0846 -0.4019 -0.1235
   59MOL   C34432940   2.065   2.620   3.649  0.0874  0.5852  0.2007
   59MOL   C34532941   2.105   2.704   3.544 -0.3222  0.3022 -0.1575
   59MOL   C34632942   2.082   2.842   3.546  0.5609  0.1109 -0.8673
   59MOL   C34732943   2.131   2.935   3.438 -0.6231 -0.6897  0.8152
   59MOL   O34832944   2.192   2.873   3.336 -0.0622  0.0881  0.7371
   59MOL   C34932945   2.262   2.946   3.235 -0.0639  0.2769 -0.6664
   59MOL   C35032946   2.397   2.877   3.213  0.4403 -0.3141 -0.4365
   59MOL   O35132947   2.130   3.058   3.445 -0.5459 -0.5213  0.7340
   59MOL   C35232948   2.010   2.893   3.656 -0.3402 -1.0499 -0.0219
   59MOL   C35332949   1.963   2.809   3.762 -0.2367 -0.0351 -0.1940
   59MOL   C35432950   1.897   2.866   3.868  0.6359  0.1890 -0.2232
   59MOL   C35532951   1.860   2.784   3.979  0.3225  0.1591  0.3276
   59MOL   H35632952   1.976   2.484   3.872 -0.7746 -0.2020  1.0504
   59MOL   H35732953   2.090   2.515   3.644 -1.3077  0.0617  2.8466
   59MOL   H35832954   2.161   2.649   3.471 -1.1023 -0.0909 -0.4727
   59MOL   H35932955   2.280   3.048   3.269 -1.4312  0.6237 -0.9567
   59MOL   H36032956   2.199   2.944   3.146 -0.7153  1.0328 -0.2283
   59MOL   H36132957   2.381   2.774   3.179  0.6109 -1.5517  3.0466
   59MOL   H36232958   2.441   2.931   3.129 -2.9732  0.4059 -1.8385
   59MOL   H36332959   1.988   2.998   3.667 -0.1173 -1.1158  1.1760
   59MOL   H36432960   1.882   2.973   3.874 -0.5793 -0.0496  1.5907
   59MOL   H36532961   1.803   2.832   4.057 -0.9248  1.6092 -1.4277
   59MOL   O36632962   2.658   2.794   3.197 -0.3457 -0.6569  0.0046
   59MOL   C36732963   2.611   2.837   3.303  0.7784  0.4332 -0.4416
   59MOL   O36832964   2.479   2.881   3.322 -0.1545 -0.3390  0.1020
   59MOL   C36932965   2.697   2.865   3.423 -0.7881  0.3224  0.2391
   59MOL   C37032966   2.650   2.863   3.558  0.0044 -0.3592  0.5324
   59MOL   C37132967   2.735   2.892   3.665 -0.6568  0.1603  0.4875
   59MOL   C37232968   2.696   2.874   3.794  0.2501  0.0856 -0.2563
   59MOL   C37332969   2.794   2.877   3.898 -0.9612 -0.7421 -0.0739
   59MOL   C37432970   2.929   2.919   3.867  0.8668 -0.3728 -0.0826
   59MOL   C37532971   3.024   2.921   3.982 -0.5674  0.3019  0.3174
   59MOL   O37632972   3.147   2.982   3.958  0.3282 -0.1588 -0.8173
   59MOL   C37732973   3.223   3.012   4.079  0.6065  0.1058  0.2481
   59MOL   C37832974   3.282   2.887   4.153 -0.1169 -0.0295  0.0032
   59MOL   O37932975   3.002   2.855   4.087  0.2521 -0.1809 -0.0550
   59MOL   C38032976   2.965   2.957   3.736  0.9482 -0.4451 -0.2445
   59MOL   C38132977   2.870   2.936   3.633 -0.2451  0.4568  0.0637
   59MOL   C38232978   2.910   2.948   3.500 -0.0917 -0.6360  0.2746
   59MOL   C38332979   2.833   2.899   3.399  0.2314  0.1645 -0.4352
   59MOL   H38432980   2.552   2.833   3.592  0.2662 -0.3029  1.3279
   59MOL   H38532981   2.595   2.848   3.822  0.1851  1.9938  1.3250
   59MOL   H38632982   2.772   2.848   3.999 -2.1331  0.2857 -0.0174
   59MOL   H38732983   3.148   3.049   4.148 -1.2970 -3.8496  0.4443
   59MOL   H38832984   3.308   3.079   4.070 -1.2322  2.3054 -1.3608
   59MOL   H38932985   3.270   2.897   4.261  1.8763 -1.2963  0.3530
   59MOL   H39032986   3.230   2.795   4.126 -1.2959  0.4738  0.4951
   59MOL   H39132987   3.062   2.998   3.715  0.3655  0.8108 -0.5378
   59MOL   H39232988   3.010   2.985   3.483 -0.3495 -0.2212 -0.3638
   59MOL   H39332989   2.874   2.892   3.299  1.6626  1.3806  0.0264
   59MOL   O39432990   3.398   2.836   3.901  0.0132  0.3956 -0.4127
   59MOL   C39532991   3.469   2.862   4.004 -1.1336  0.0512 -0.2505
   59MOL   O39632992   3.419   2.894   4.124 -0.3359  0.0029  0.1705
   59MOL   C39732993   3.616   2.873   4.004  0.3939 -0.3432  0.1120
   59MOL   C39832994   3.679   2.806   3.901 -0.4830  0.4440 -0.0533
   59MOL   C39932995   3.820   2.806   3.907  0.4787  0.0546 -0.1577
   59MOL   C40032996   3.884   2.729   3.808  1.0784 -0.5086  0.6952
   59MOL   C40132997   4.022   2.732   3.806 -0.1849  0.5811 -0.0827
   59MOL   C40232998   4.096   2.798   3.904 -0.1878  0.4836  0.2558
   59MOL   C40332999   4.246   2.788   3.914 -0.5910  0.7842  0.1217
   59MOL   O40433000   4.309   2.744   3.789  0.1654  0.1810  0.7048
   59MOL   C40533001   4.448   2.704   3.782  0.0263 -0.3143  0.3354
   59MOL   C40633002   4.543   2.822   3.779  0.4129  0.1592  1.1463
   59MOL   O40733003   4.308   2.820   4.014 -0.7938 -0.0247  0.1822
   59MOL   C40833004   4.028   2.858   4.011  0.2152 -0.2400  0.6273
   59MOL   C40933005   3.893   2.863   4.011 -0.1536 -0.0550  0.3266
   59MOL   C41033006   3.826   2.929   4.111 -0.1240 -0.8532  1.0146
   59MOL   C41133007   3.689   2.927   4.115 -0.6756 -0.2902  0.6777
   59MOL   H41233008   3.638   2.756   3.815  1.3162  3.1367 -2.5751
   59MOL   H41333009   3.831   2.672   3.733 -0.5720  0.8551  0.8067
   59MOL   H41433010   4.071   2.654   3.749 -3.5691 -1.5640 -0.2294
   59MOL   H41533011   4.446   2.642   3.693  0.4706 -0.2396  0.2723
   59MOL   H41633012   4.467   2.646   3.872  0.8738  1.8860  1.6350
   59MOL   H41733013   4.515   2.890   3.860 -1.6697  1.9932 -1.0446
   59MOL   H41833014   4.643   2.789   3.807  1.5633  1.5318 -1.2342
   59MOL   H41933015   4.085   2.912   4.086  1.7846 -0.1462 -0.6015
   59MOL   H42033016   3.880   2.981   4.189  0.6571  1.2135 -0.8577
   59MOL   H42133017   3.643   2.966   4.205 -0.5338  1.0652  0.1730
   59MOL   O42233018   4.629   2.722   3.544  0.5063  0.4747  0.0322
   59MOL   C42333019   4.605   2.843   3.552  0.3302  1.0390  0.2974
   59MOL   O42433020   4.543   2.892   3.659 -0.2741  0.4134 -0.6256
   59MOL   C42533021   4.615   2.951   3.444  0.5418  0.3605 -0.0069
   59MOL   C42633022   4.622   3.084   3.489 -0.9335 -0.2007 -0.5150
   59MOL   C42733023   4.610   3.183   3.389 -0.0868 -1.0460  0.4482
   59MOL   C42833024   4.620   3.318   3.425  0.3647 -0.5556 -0.4915
   59MOL   C42933025   4.597   3.424   3.326 -0.2530 -0.3552  0.3371
   59MOL   C43033026   4.593   3.393   3.188 -0.0531 -0.8634  0.3003
   59MOL   C43133027   4.595   3.509   3.096  0.2042  0.8146 -0.0044
   59MOL   O43233028   4.599   3.470   2.970  0.3824  0.0819  0.0621
   59MOL   C43333029   4.569   3.571   2.872  0.0979 -0.5086  0.8803
   59MOL   C43433030   4.418   3.594   2.864  0.1335 -0.1526  0.0126
   59MOL   O43533031   4.586   3.631   3.124  0.1049 -0.3781 -1.2041
   59MOL   C43633032   4.601   3.256   3.153 -0.9358 -0.5111  0.0033
   59MOL   C43733033   4.604   3.152   3.255  0.6415 -0.1917 -0.4228
   59MOL   C43833034   4.593   3.017   3.216 -0.3233 -0.3868 -0.1956
   59MOL   C43933035   4.603   2.915   3.313  0.7447  0.9715 -0.1861
   59MOL   H44033036   4.631   3.113   3.593 -0.2437  1.2937 -0.9725
   59MOL   H44133037   4.646   3.354   3.523  0.6638  0.7770 -1.0444
   59MOL   H44233038   4.598   3.522   3.370  0.7389  0.3292 -1.1634
   59MOL   H44333039   4.595   3.534   2.773  3.4759 -0.1636  1.5912
   59MOL   H44433040   4.630   3.660   2.887 -2.0785  1.1935 -0.0352
   59MOL   H44533041   4.363   3.500   2.869 -0.1769 -0.0966 -2.0299
   59MOL   H44633042   4.378   3.654   2.947  0.9504  0.3379  0.0534
   59MOL   H44733043   4.591   3.220   3.052  0.2572 -1.3564  0.1839
   59MOL   H44833044   4.576   2.983   3.115 -1.3058  1.0826 -0.5443
   59MOL   H44933045   4.586   2.811   3.289  0.9735  1.0715 -0.7985
   59MOL   O45033046   4.398   3.858   2.779 -0.4880  0.3826  0.4519
   59MOL   C45133047   4.357   3.761   2.711  0.4848  0.0311 -0.2229
   59MOL   O45233048   4.367   3.636   2.737  0.0539  0.0822 -0.3046
   59MOL   C45333049   4.296   3.773   2.569 -0.0509 -0.3689  0.2364
   59MOL   C45433050   4.348   3.879   2.482 -0.1722 -0.0477 -0.1544
   59MOL   C45533051   4.292   3.898   2.357  1.1233 -0.6142 -0.3680
   59MOL   C45633052   4.330   3.997   2.267  0.1885  0.9384 -0.7861
   59MOL   C45733053   4.264   4.019   2.146  0.7790  0.4024 -0.1194
   59MOL   C45833054   4.160   3.940   2.105  0.3319 -0.2416  0.8786
   59MOL   C45933055   4.103   3.964   1.968 -0.0084  0.3502  0.7173
   59MOL   O46033056   3.986   3.907   1.950  0.0676 -0.7490 -0.3857
   59MOL   C46133057   3.930   3.902   1.817 -0.3324 -0.9782 -0.3983
   59MOL   C46233058   3.920   3.759   1.764 -0.5859 -0.2738 -0.4585
   59MOL   O46333059   4.158   4.029   1.881 -0.4514  0.4559  0.3036
   59MOL   C46433060   4.122   3.831   2.195 -0.5316 -0.4375  0.0727
   59MOL   C46533061   4.184   3.814   2.319 -0.3507 -0.2150 -0.3804
   59MOL   C46633062   4.130   3.718   2.407  0.7160  0.5366 -0.8201
   59MOL   C46733063   4.185   3.691   2.534 -0.2572  0.1753 -0.3270
   59MOL   H46833064   4.419   3.957   2.505 -0.9115  0.3852  0.6971
   59MOL   H46933065   4.413   4.063   2.285  2.1166 -1.3215 -1.2068
   59MOL   H47033066   4.291   4.105   2.086  1.4969  1.5106  1.7511
   59MOL   H47133067   3.988   3.959   1.745 -1.5274  2.3708  1.2181
   59MOL   H47233068   3.830   3.945   1.823  0.9360  1.9148  0.9144
   59MOL   H47333069   3.866   3.697   1.834 -1.8763 -0.7977 -1.8926
   59MOL   H47433070   3.850   3.768   1.681 -0.6926  0.9722 -0.2447
   59MOL   H47533071   4.039   3.768   2.167 -0.5418 -0.5004  0.2425
   59MOL   H47633072   4.037   3.671   2.378  0.2989  0.3137  0.8446
   59MOL   H47733073   4.155   3.611   2.601  1.0831 -0.3264 -0.3011
   59MOL   O47833074   4.096   3.616   1.904 -0.7290 -0.0990 -0.2399
   59MOL   C47933075   4.127   3.656   1.793  0.4724 -1.0799 -0.1485
   59MOL   O48033076   4.045   3.713   1.716  0.0653  0.0721 -0.2477
   59MOL   C48133077   4.257   3.640   1.734 -0.0498 -0.2803  0.1003
   59MOL   C48233078   4.295   3.702   1.615  0.0736 -0.6680  0.9875
   59MOL   C48333079   4.425   3.688   1.566 -0.2375  0.0161 -0.4084
   59MOL   C48433080   4.466   3.751   1.445  0.6377  0.1293 -0.8491
   59MOL   C48533081   4.603   3.739   1.406 -0.5590 -0.0489 -0.3895
   59MOL   C48633082   4.698   3.669   1.481 -0.5567 -0.8889 -0.2564
   59MOL   C48733083   4.840   3.675   1.434 -0.0846  0.6085  0.1471
   59MOL   O48833084   4.926   3.598   1.507  0.0888 -0.6708  0.1778
   59MOL   C48933085   5.065   3.629   1.503 -0.2658  0.3236  1.1915
   59MOL   C49033086   5.093   3.768   1.560  0.7082 -0.1159  0.0733
   59MOL   O49133087   4.876   3.753   1.348 -0.3347 -0.1818 -0.0805
   59MOL   C49233088   4.657   3.601   1.599 -0.2814 -0.2697 -0.4573
   59MOL   C49333089   4.523   3.613   1.636 -0.2929  0.0084  0.3059
   59MOL   C49433090   4.483   3.541   1.747 -0.3586 -0.0054 -0.0743
   59MOL   C49533091   4.355   3.561   1.805  0.2848  0.4366 -0.9694
   59MOL   H49633092   4.224   3.755   1.553  1.2800  1.3652  1.3329
   59MOL   H49733093   4.399   3.813   1.387  1.6710  0.8720 -1.2454
   59MOL   H49833094   4.638   3.784   1.314 -0.1761  0.4889  0.0236
   59MOL   H49933095   5.104   3.613   1.403 -2.1034 -0.4555  0.5801
   59MOL   H50033096   5.111   3.552   1.565  0.6867 -1.9719 -2.2414
   59MOL   H50133097   5.034   3.839   1.502  0.0384 -1.2857 -0.6800
   59MOL   H50233098   5.061   3.776   1.663  1.5931  3.4183  0.1574
   59MOL   H50333099   4.720   3.526   1.645 -0.4463 -0.1047  0.0375
   59MOL   H50433100   4.552   3.478   1.800  1.5831  3.0802  1.2357
   59MOL   H50533101   4.322   3.513   1.896 -1.8028  1.3427 -1.2131
   59MOL   O50633102   5.306   3.637   1.690  0.8775 -0.0086 -0.4506
   59MOL   C50733103   5.331   3.739   1.620  0.7168 -0.1992 -0.1648
   59MOL   O50833104   5.234   3.801   1.551  0.4769  0.1009  0.8674
   59MOL   C50933105   5.462   3.814   1.612  0.5554  0.9429  0.7578
   59MOL   C51033106   5.576   3.758   1.670 -0.5680  0.0731  0.6225
   59MOL   C51133107   5.699   3.820   1.649  0.2063  0.5052 -0.1758
   59MOL   C51233108   5.808   3.763   1.720  0.2362  0.0828  0.3671
   59MOL   C51333109   5.932   3.830   1.714 -0.5178 -0.5747 -1.0682
   59MOL   C51433110   5.944   3.948   1.643 -0.4198 -0.6655  0.0970
   59MOL   C51533111   6.081   4.005   1.619  0.2009  0.3818  0.6696
   59MOL   O51633112   6.087   4.099   1.521  0.0645  0.1659 -0.0115
   59MOL   C51733113   6.215   4.166   1.496 -0.2894 -0.4836  0.2404
   59MOL   C51833114   6.233   4.285   1.593  0.5221 -0.8375  0.1185
   59MOL   O51933115   6.185   3.972   1.681  0.7352  0.2867  0.4058
   59MOL   C52033116   5.840   4.004   1.570 -0.1283  0.4013  0.3232
   59MOL   C52133117   5.715   3.938   1.577 -0.1656 -0.6900 -1.2568
   59MOL   C52233118   5.597   3.996   1.525  0.1020  0.6749 -0.2542
   59MOL   C52333119   5.472   3.933   1.539 -0.3445  0.0100 -0.2975
   59MOL   H52433120   5.566   3.666   1.727 -3.1997 -0.4450 -0.5950
   59MOL   H52533121   5.789   3.684   1.791 -0.6299  0.3031  0.3859
   59MOL   H52633122   6.022   3.787   1.755  0.1438 -0.2116 -2.1132
   59MOL   H52733123   6.208   4.204   1.394  2.3406 -1.6242 -0.4048
   59MOL   H52833124   6.301   4.099   1.500  0.8712  1.0216  0.7819
   59MOL   H52933125   6.147   4.349   1.573  1.0761  0.0456  0.5182
   59MOL   H53033126   6.227   4.247   1.695  3.3297 -0.6235  0.4156
   59MOL   H53133127   5.868   4.095   1.520 -2.6936  0.8507 -0.3296
   59MOL   H53233128   5.597   4.091   1.473  0.6938  2.7843  3.4124
   59MOL   H53333129   5.382   3.969   1.493  0.4225 -0.2989 -2.0784
   59MOL   O53433130   6.479   4.211   1.682 -0.1557 -0.4149 -0.6786
   59MOL   C53533131   6.462   4.325   1.629 -0.1879  0.3979 -0.6497
   59MOL   O53633132   6.348   4.360   1.567 -0.5386  0.2140 -0.5635
   59MOL   C53733133   6.566   4.426   1.607 -0.9682 -0.8016 -0.0500
   59MOL   C53833134   6.553   4.523   1.502  0.4326 -0.7500  0.1506
   59MOL   C53933135   6.649   4.625   1.490 -0.0363 -0.8970 -0.2778
   59MOL   C54033136   6.643   4.715   1.382 -0.5291 -0.7137  0.3747
   59MOL   C54133137   6.737   4.819   1.365  0.3447  0.2258 -0.1563
   59MOL   C54233138   6.842   4.831   1.462 -0.0160  0.2293  0.0455
   59MOL   C54333139   6.941   4.945   1.454 -0.7386 -0.9324  0.4668
   59MOL   O54433140   6.912   5.035   1.355 -0.3761 -0.0043  0.0934
   59MOL   C54533141   6.994   5.152   1.333  0.3413  0.2769  0.7505
   59MOL   C54633142   6.983   5.218   1.191 -0.4348 -0.4510  0.8294
   59MOL   O54733143   7.037   4.954   1.531 -0.3575 -0.8506 -0.2517
   59MOL   C54833144   6.855   4.732   1.568 -0.0953  0.2661 -0.2639
   59MOL   C54933145   6.760   4.627   1.577 -0.1255  0.1729  0.5598
   59MOL   C55033146   6.772   4.533   1.678 -0.2472 -0.1225  0.0546
   59MOL   C55133147   6.682   4.427   1.691  0.0270  0.2571  0.0393
   59MOL   H55233148   6.476   4.518   1.427  0.8597 -0.9912 -0.2706
   59MOL   H55333149   6.562   4.701   1.312 -0.7566  1.6210  0.1422
   59MOL   H55433150   6.744   4.888   1.283 -0.3708  2.0374  1.2658
   59MOL   H55533151   7.098   5.131   1.357  0.3664 -0.8215 -0.2842
   59MOL   H55633152   6.963   5.221   1.411  1.7082  1.5096  0.2540
   59MOL   H55733153   7.009   5.136   1.123 -0.2829 -0.6492  1.1252
   59MOL   H55833154   7.043   5.308   1.180 -1.7516  0.2989 -0.3117
   59MOL   H55933155   6.938   4.739   1.636  2.2458  0.1710 -3.0036
   59MOL   H56033156   6.859   4.546   1.740  0.5441  5.5599 -1.9590
   59MOL   H56133157   6.707   4.358   1.771  0.0879  1.2851  0.9256
   59MOL   H56233158   6.879   5.237   1.167 -0.1051 -2.2915 -2.3415
   60MOL     O133159   3.431   7.128   1.868  0.1156  0.4977 -0.2249
   60MOL     C233160   3.401   7.130   1.984  0.0678 -0.6277  0.4808
   60MOL     O333161   3.343   7.241   2.037  0.6387 -0.0712 -0.1273
   60MOL     C433162   3.398   7.004   2.056 -0.4281 -0.0344 -0.2215
   60MOL     C533163   3.371   6.999   2.199  0.2669 -0.2801 -0.0292
   60MOL     C633164   3.369   6.881   2.275  0.4550 -0.2362  0.0108
   60MOL     C733165   3.352   6.885   2.416  0.4795  0.3537  0.6519
   60MOL     C833166   3.360   6.767   2.487 -0.0910 -0.6802 -0.4110
   60MOL     C933167   3.382   6.646   2.423 -0.1629  0.0189  0.6955
   60MOL    C1033168   3.366   6.520   2.498 -0.6528 -0.4642 -0.1574
   60MOL    O1133169   3.351   6.409   2.420  0.6667 -0.7869  0.1549
   60MOL    C1233170   3.337   6.281   2.485 -0.5278 -0.7481  0.2031
   60MOL    C1333171   3.216   6.266   2.578 -0.3169 -0.0659  0.5916
   60MOL    O1433172   3.368   6.517   2.619 -0.0444 -0.7841 -0.3487
   60MOL    C1533173   3.401   6.640   2.281 -0.0512  0.3604  0.3697
   60MOL    C1633174   3.398   6.760   2.206  0.6756 -0.0360  0.0366
   60MOL    C1733175   3.417   6.762   2.063 -0.2114  0.4846 -0.6734
   60MOL    C1833176   3.426   6.881   1.998 -0.0112 -0.1270 -0.5927
   60MOL    H1933177   3.357   7.090   2.255  3.6510  0.5826 -0.4835
   60MOL    H2033178   3.315   6.973   2.466 -3.0651  0.0468 -1.2526
   60MOL    H2133179   3.340   6.767   2.593 -0.9735 -2.0048 -0.5635
   60MOL    H2233180   3.314   6.214   2.402 -2.7283  0.9421 -0.5935
   60MOL    H2333181   3.423   6.236   2.534  0.2392  0.0155 -0.4365
   60MOL    H2433182   3.260   6.270   2.678  0.6400  2.0492  0.1166
   60MOL    H2533183   3.153   6.353   2.556 -1.9518 -1.5381 -0.6640
   60MOL    H2633184   3.426   6.545   2.236  0.3278  1.9773 -3.0474
   60MOL    H2733185   3.465   6.678   2.015 -0.4724 -0.1665  0.1750
   60MOL    H2833186   3.456   6.885   1.895  2.7737  2.9777  0.2631
   60MOL    H2933187   3.329   7.296   1.962  2.5101 -0.2854 -0.6744
   60MOL    O3033188   3.255   6.010   2.724  0.4010  0.0323  0.8061
   60MOL    C3133189   3.186   6.017   2.622 -0.1905  0.6316 -0.2334
   60MOL    O3233190   3.155   6.137   2.543  0.5351  0.4214 -0.8617
   60MOL    C3333191   3.133   5.900   2.551 -0.1294 -0.0610 -0.4564
   60MOL    C3433192   3.104   5.895   2.414  0.0175  0.6027  0.0217
   60MOL    C3533193   3.045   5.776   2.362 -0.2666  0.0766  0.2035
   60MOL    C3633194   3.014   5.772   2.228 -0.5766  0.1614 -0.2721
   60MOL    C3733195   2.983   5.646   2.165 -0.0855  0.3169  0.3855
   60MOL    C3833196   2.973   5.528   2.241  0.7141 -0.0457  0.5349
   60MOL    C3933197   2.952   5.399   2.173  0.2221  0.6106 -0.7060
   60MOL    O4033198   2.904   5.414   2.050 -0.1547 -0.2602  0.1879
   60MOL    C4133199   2.882   5.300   1.969  0.4861  0.0975 -0.4354
   60MOL    C4233200   2.757   5.226   2.018 -0.0796 -0.2700  0.0816
   60MOL    O4333201   2.987   5.294   2.228  0.0164 -0.5155  0.1516
   60MOL    C4433202   2.987   5.539   2.380  0.6579 -0.2390 -0.3482
   60MOL    C4533203   3.028   5.659   2.439  0.0696 -0.4449  0.5054
   60MOL    C4633204   3.062   5.667   2.571 -0.2258 -0.1903 -0.1432
   60MOL    C4733205   3.125   5.782   2.624  0.6610  0.2804 -1.0094
   60MOL    H4833206   3.112   5.982   2.351  0.8061  0.6833  0.2242
   60MOL    H4933207   3.027   5.856   2.161 -0.6260  0.2807 -0.1351
   60MOL    H5033208   2.980   5.640   2.058  0.9463  1.4599  0.2817
   60MOL    H5133209   2.970   5.237   1.971  1.0204  0.8796  2.3327
   60MOL    H5233210   2.875   5.334   1.866  0.6440 -0.0533 -0.4974
   60MOL    H5333211   2.761   5.129   1.968  1.0184 -1.3916  2.2846
   60MOL    H5433212   2.758   5.199   2.123 -1.5721 -0.2724  0.0949
   60MOL    H5533213   2.981   5.449   2.439  0.7418 -0.2428 -0.3464
   60MOL    H5633214   3.056   5.583   2.638  0.8704  0.5448  0.9047
   60MOL    H5733215   3.161   5.781   2.725  2.0945  1.3317 -1.4970
   60MOL    O5833216   2.550   5.126   1.870  0.0704 -0.0602  0.8229
   60MOL    C5933217   2.549   5.245   1.900  0.0515 -0.3613  0.0970
   60MOL    O6033218   2.642   5.299   1.981 -1.0798 -0.0792  0.0048
   60MOL    C6133219   2.451   5.359   1.871  0.5134  0.6582 -0.1277
   60MOL    C6233220   2.469   5.495   1.910 -0.1243  0.1596 -0.1799
   60MOL    C6333221   2.383   5.590   1.853  0.2103 -0.2718 -0.0166
   60MOL    C6433222   2.411   5.725   1.866  0.3634  0.0698 -0.5252
   60MOL    C6533223   2.319   5.822   1.820 -0.4232  0.9752 -0.5623
   60MOL    C6633224   2.200   5.779   1.756 -0.4971 -0.5254 -0.5375
   60MOL    C6733225   2.099   5.885   1.716  0.0373  0.7520  0.6727
   60MOL    O6833226   1.992   5.820   1.668  0.3768  0.2610  0.0606
   60MOL    C6933227   1.872   5.890   1.628 -0.3915 -0.3763 -0.4231
   60MOL    C7033228   1.781   5.943   1.737 -0.5924  0.0939 -0.1981
   60MOL    O7133229   2.110   6.005   1.719  0.2363  0.2435  0.6577
   60MOL    C7233230   2.175   5.644   1.737 -0.6872  0.3444  0.1541
   60MOL    C7333231   2.273   5.551   1.780  0.0751  0.7523  0.3227
   60MOL    C7433232   2.246   5.416   1.749 -0.2924  0.0615  0.6793
   60MOL    C7533233   2.337   5.318   1.794 -0.0430  0.1368 -0.1509
   60MOL    H7633234   2.552   5.528   1.971 -1.7292 -1.7082  3.1602
   60MOL    H7733235   2.510   5.755   1.898  0.3399 -0.0313 -0.3610
   60MOL    H7833236   2.340   5.926   1.838  0.9993  0.7112 -0.6732
   60MOL    H7933237   1.813   5.822   1.567  0.2594  0.0617 -1.5685
   60MOL    H8033238   1.894   5.975   1.563  3.9067  0.0660  1.4520
   60MOL    H8133239   1.799   5.897   1.834 -0.3347 -0.7757 -0.6469
   60MOL    H8233240   1.784   6.050   1.754 -1.5994  0.2998 -1.2157
   60MOL    H8333241   2.079   5.624   1.692 -1.9421  2.5627  1.7148
   60MOL    H8433242   2.154   5.401   1.695  0.0302  1.7635 -0.4061
   60MOL    H8533243   2.327   5.214   1.766  0.0568 -0.1682  0.9420
   60MOL    O8633244   1.632   6.038   1.528  0.0114 -0.3642 -0.0582
   60MOL    C8733245   1.575   5.973   1.614  0.5317 -0.1911 -0.1373
   60MOL    O8833246   1.645   5.911   1.707 -0.2700  0.3788 -0.4477
   60MOL    C8933247   1.423   5.949   1.617 -0.0696 -0.2536 -0.2244
   60MOL    C9033248   1.360   5.857   1.698 -0.8306 -0.4790  0.6018
   60MOL    C9133249   1.221   5.834   1.683  1.0529 -0.1770  0.8477
   60MOL    C9233250   1.155   5.729   1.750 -0.0893 -0.0833 -0.3508
   60MOL    C9333251   1.015   5.711   1.737  0.5068  0.3796 -0.0009
   60MOL    C9433252   0.942   5.795   1.645 -0.3239  0.0342  0.6722
   60MOL    C9533253   0.792   5.782   1.626  0.6314  0.2849  0.1493
   60MOL    O9633254   0.741   5.679   1.684  0.2738 -0.3306 -0.4421
   60MOL    C9733255   0.599   5.653   1.672  0.3680 -0.0816 -0.3903
   60MOL    C9833256   0.560   5.524   1.741  0.3147 -1.2012 -0.5754
   60MOL    O9933257   0.726   5.867   1.561 -0.0058  0.6260  0.6092
   60MOL   C10033258   1.011   5.901   1.580  0.3732  0.1005  0.4942
   60MOL   C10133259   1.148   5.912   1.593  0.1964  0.4250  0.2609
   60MOL   C10233260   1.210   6.014   1.517  0.2694  0.2048  0.4851
   60MOL   C10333261   1.353   6.020   1.516  0.6946 -0.3436 -0.2562
   60MOL   H10433262   1.420   5.790   1.757  1.5457  0.5471 -0.5696
   60MOL   H10533263   1.211   5.668   1.818  0.1192  0.1251 -0.3344
   60MOL   H10633264   0.960   5.631   1.784  1.1751 -0.7135 -1.0508
   60MOL   H10733265   0.572   5.644   1.566 -1.1268  2.1026 -0.2316
   60MOL   H10833266   0.551   5.743   1.711  2.8894  0.3984  1.7197
   60MOL   H10933267   0.603   5.536   1.841 -0.7185  2.5187 -0.5070
   60MOL   H11033268   0.452   5.513   1.747  0.1041  0.4019 -1.3213
   60MOL   H11133269   0.964   5.974   1.516  3.0768  1.4511 -0.0393
   60MOL   H11233270   1.155   6.071   1.444  0.6428  0.8103  0.6669
   60MOL   H11333271   1.408   6.092   1.457  1.6420 -1.1560 -0.3766
   60MOL   O11433272   0.447   5.271   1.666 -0.2425 -0.1413 -0.4486
   60MOL   C11533273   0.567   5.301   1.649  0.4307  0.9074  0.1595
   60MOL   O11633274   0.633   5.412   1.689 -0.1368 -0.0094  0.3968
   60MOL   C11733275   0.652   5.200   1.582  0.3616  0.6502  0.1585
   60MOL   C11833276   0.789   5.226   1.553 -0.0015  0.3985  0.4860
   60MOL   C11933277   0.865   5.134   1.478  0.3556  0.2911 -0.3225
   60MOL   C12033278   0.997   5.163   1.459  0.5847 -0.1924 -0.0184
   60MOL   C12133279   1.081   5.071   1.401  0.4597 -0.4700  0.0010
   60MOL   C12233280   1.031   4.948   1.349 -0.3233 -0.7268  0.2122
   60MOL   C12333281   1.124   4.849   1.289 -0.0110  0.3727  0.9840
   60MOL   O12433282   1.252   4.882   1.319  0.0156 -0.3402 -0.4599
   60MOL   C12533283   1.369   4.797   1.293  0.4487 -0.1391 -0.4004
   60MOL   C12633284   1.438   4.836   1.167  0.3322  0.3201 -0.2549
   60MOL   O12733285   1.091   4.740   1.236  0.9209 -0.1761 -0.2866
   60MOL   C12833286   0.886   4.923   1.357 -0.7984  0.4038 -0.8073
   60MOL   C12933287   0.803   5.016   1.431 -0.1175  0.0892  0.4701
   60MOL   C13033288   0.669   4.987   1.463  0.0886  0.4204  0.0800
   60MOL   C13133289   0.598   5.080   1.543  0.0656  0.2804 -0.4608
   60MOL   H13233290   0.854   5.309   1.579  3.0445 -1.4126 -1.0223
   60MOL   H13333291   1.041   5.258   1.486  1.8149 -1.4345  2.5435
   60MOL   H13433292   1.184   5.101   1.388  0.9703 -2.5625 -1.1155
   60MOL   H13533293   1.339   4.692   1.292  0.7153 -0.2642  1.5027
   60MOL   H13633294   1.443   4.810   1.373  1.0835 -0.4690 -0.9308
   60MOL   H13733295   1.423   4.943   1.151 -3.4455  0.1342  1.5115
   60MOL   H13833296   1.544   4.810   1.163  0.7084  2.1045 -4.7409
   60MOL   H13933297   0.839   4.841   1.303  1.6361 -1.5437 -0.0502
   60MOL   H14033298   0.619   4.896   1.434  1.1178 -0.0546 -0.2484
   60MOL   H14133299   0.497   5.049   1.567  0.9779 -2.0766  0.5092
   60MOL   O14233300   1.548   4.783   0.921 -0.1761  0.2432  0.0544
   60MOL   C14333301   1.439   4.737   0.947 -0.1335  0.0731  0.1981
   60MOL   O14433302   1.374   4.763   1.063 -0.0530  0.4019  0.2785
   60MOL   C14533303   1.370   4.646   0.855 -0.3498 -0.0160 -0.4305
   60MOL   C14633304   1.238   4.602   0.877  0.2787  0.0856 -0.0516
   60MOL   C14733305   1.173   4.514   0.787  0.2567  0.2565  0.1896
   60MOL   C14833306   1.042   4.466   0.814 -0.0185  0.9272  0.5372
   60MOL   C14933307   0.989   4.369   0.723 -0.1995  0.1218 -0.5972
   60MOL   C15033308   1.059   4.321   0.613  0.2540 -0.8609 -0.6677
   60MOL   C15133309   0.997   4.215   0.536  0.1399 -0.0027 -0.6420
   60MOL   O15233310   1.074   4.169   0.439 -0.2364  0.2248 -0.2717
   60MOL   C15333311   1.034   4.061   0.357 -0.5257 -0.4180 -0.4925
   60MOL   C15433312   1.113   3.938   0.413 -0.0111 -0.5526 -0.7983
   60MOL   O15533313   0.881   4.171   0.554 -0.0778  0.2890 -0.1018
   60MOL   C15633314   1.188   4.363   0.596  0.0254 -0.1699 -0.0260
   60MOL   C15733315   1.244   4.457   0.683  0.4080 -0.3094 -1.0205
   60MOL   C15833316   1.377   4.491   0.661  0.1027 -0.3436  0.0341
   60MOL   C15933317   1.440   4.593   0.746 -0.7452  0.5313  0.7178
   60MOL   H16033318   1.180   4.626   0.965  0.7108 -0.1881  0.3053
   60MOL   H16133319   0.974   4.506   0.887 -1.3079  1.6422 -1.0193
   60MOL   H16233320   0.887   4.339   0.742 -0.2683  0.0046 -1.1232
   60MOL   H16333321   1.086   4.081   0.264  2.0257 -0.8992  0.7734
   60MOL   H16433322   0.927   4.046   0.344 -0.4620 -0.9628 -0.4349
   60MOL   H16533323   1.203   3.963   0.468 -0.5413 -3.6156  1.5569
   60MOL   H16633324   1.048   3.883   0.481 -0.6971  0.8865 -0.2716
   60MOL   H16733325   1.243   4.333   0.508  1.6596  2.1281  0.1698
   60MOL   H16833326   1.439   4.448   0.583  1.1131  0.3335  0.4646
   60MOL   H16933327   1.539   4.634   0.726 -0.8363  0.8101  0.8298
   60MOL   O17033328   1.166   3.656   0.414  0.3545  0.0454  0.0905
   60MOL   C17133329   1.184   3.731   0.317  0.1816 -0.0329 -0.2811
   60MOL   O17233330   1.153   3.859   0.307 -0.0210 -0.1409  0.0285
   60MOL   C17333331   1.235   3.678   0.184  0.7834 -0.1714  0.4083
   60MOL   C17433332   1.242   3.540   0.167  0.6457 -0.4476 -0.1355
   60MOL   C17533333   1.270   3.486   0.043  0.1025  0.8956  0.1864
   60MOL   C17633334   1.257   3.349   0.005  0.2906  0.1090  0.1170
   60MOL   C17733335   1.292   3.303   8.124  0.2094  0.1977  0.1532
   60MOL   C17833336   1.343   3.390   8.030  0.2569  0.2785 -0.2613
   60MOL   C17933337   1.380   3.347   7.897 -0.8649  1.3529 -0.8550
   60MOL   O18033338   1.292   3.275   7.837  0.3288  0.2746  0.2576
   60MOL   C18133339   1.314   3.243   7.700  0.0553 -0.9561  0.5713
   60MOL   C18233340   1.177   3.215   7.637 -0.9932  0.0397  0.6015
   60MOL   O18333341   1.487   3.373   7.848 -0.2844 -0.6197 -0.4757
   60MOL   C18433342   1.358   3.525   8.064  0.4261 -0.4468  0.3822
   60MOL   C18533343   1.320   3.578   8.194  0.1198 -0.0127 -0.7397
   60MOL   C18633344   1.331   3.714   8.223 -0.1393 -0.0038 -0.2554
   60MOL   C18733345   1.292   3.761   0.094 -0.1812  0.2873 -0.3455
   60MOL   H18833346   1.195   3.480   0.243  0.3006 -0.2958 -0.2278
   60MOL   H18933347   1.199   3.277   0.060 -1.0529 -0.5703 -2.1091
   60MOL   H19033348   1.277   3.198   8.107 -1.0447  0.4263 -0.1783
   60MOL   H19133349   1.381   3.161   7.673 -1.0753 -2.0915  1.1998
   60MOL   H19233350   1.354   3.333   7.654 -1.8428  0.2056  1.1574
   60MOL   H19333351   1.109   3.295   7.667 -0.9978  0.1876  0.2096
   60MOL   H19433352   1.176   3.216   7.528  0.5131 -0.9194  0.5761
   60MOL   H19533353   1.393   3.602   7.996 -1.5955  0.8890  0.8062
   60MOL   H19633354   1.374   3.780   8.148  1.2690  2.6370  2.7273
   60MOL   H19733355   1.290   3.868   0.111 -3.0459 -0.0334  1.6688
   60MOL   O19833356   1.010   3.035   7.522 -0.0293  0.6135 -0.0538
   60MOL   C19933357   1.046   3.012   7.637  0.1056  0.4472 -0.8900
   60MOL   O20033358   1.129   3.091   7.696  0.0888  0.5680 -0.0994
   60MOL   C20133359   1.025   2.889   7.715  0.7686 -1.0965  0.0608
   60MOL   C20233360   1.109   2.853   7.820  0.1497 -0.1722 -0.1188
   60MOL   C20333361   1.081   2.736   7.892 -0.3351  0.0945 -0.1498
   60MOL   C20433362   1.174   2.689   7.990  0.1361 -0.6840  1.0448
   60MOL   C20533363   1.160   2.565   8.054 -0.2214 -0.3689  0.1863
   60MOL   C20633364   1.051   2.483   8.016 -0.6826 -0.1582  0.4348
   60MOL   C20733365   1.020   2.354   8.091  0.2105 -0.4166  0.9498
   60MOL   O20833366   1.132   2.300   8.144 -0.5059  0.2157 -0.8159
   60MOL   C20933367   1.132   2.188   8.234 -0.0264 -0.5672  0.5558
   60MOL   C21033368   1.107   2.256   0.126 -0.4562 -0.0395  0.1978
   60MOL   O21133369   0.909   2.308   8.111  0.2685  0.0034  0.0794
   60MOL   C21233370   0.953   2.530   7.923  0.1406  0.0558  0.2965
   60MOL   C21333371   0.968   2.653   7.858 -0.6330  0.1932  0.2433
   60MOL   C21433372   0.884   2.693   7.751 -0.2929 -0.0367  0.1643
   60MOL   C21533373   0.912   2.809   7.678 -0.8338  0.0535 -0.3514
   60MOL   H21633374   1.198   2.906   7.850 -0.8040  0.8824  0.9515
   60MOL   H21733375   1.259   2.753   8.013  0.6084 -1.4346  1.3906
   60MOL   H21833376   1.225   2.532   8.133  1.3942 -1.1070 -1.4457
   60MOL   H21933377   1.223   2.127   8.238  0.7200  0.5707  0.9312
   60MOL   H22033378   1.051   2.118   8.211 -0.6117  0.9953 -2.3382
   60MOL   H22133379   1.003   2.287   0.138 -0.8606 -1.0278 -0.7385
   60MOL   H22233380   1.126   2.184   0.207 -0.5515  0.5964  0.7904
   60MOL   H22333381   0.867   2.465   7.915  0.0324  0.2691 -0.2928
   60MOL   H22433382   0.799   2.629   7.729  0.9403 -2.4179  2.0503
   60MOL   H22533383   0.851   2.851   7.599 -0.5950  0.6963 -0.1946
   60MOL   O22633384   1.042   2.469   0.281 -0.0973  0.4458  0.4811
   60MOL   C22733385   1.145   2.475   0.212 -0.0200  0.3372  0.3163
   60MOL   O22833386   1.192   2.371   0.140 -0.4016 -0.5012  0.1653
   60MOL   C22933387   1.232   2.596   0.200 -0.0744  0.9129 -0.1374
   60MOL   C23033388   1.364   2.589   0.139 -0.5453  0.2208  0.3451
   60MOL   C23133389   1.450   2.704   0.131  0.4821  0.3405  0.0773
   60MOL   C23233390   1.579   2.696   0.056 -0.2019 -0.2453  0.2567
   60MOL   C23333391   1.650   2.818   0.050 -0.0742  0.7078 -0.4695
   60MOL   C23433392   1.603   2.945   0.099 -0.4875  0.0557  0.0085
   60MOL   C23533393   1.667   3.076   0.060 -0.3122  0.5334 -0.3228
   60MOL   O23633394   1.794   3.057   0.039 -0.3440  0.2308 -0.1009
   60MOL   C23733395   1.870   3.162   8.241  0.1854 -0.2254 -0.0107
   60MOL   C23833396   2.018   3.117   8.217 -0.9184 -0.4894  0.3994
   60MOL   O23933397   1.609   3.182   0.046 -0.4827 -0.6661 -0.9345
   60MOL   C24033398   1.486   2.939   0.177  0.0970  0.4626 -0.2159
   60MOL   C24133399   1.406   2.825   0.189 -0.1316 -0.3988  0.2307
   60MOL   C24233400   1.278   2.827   0.249  0.1792  0.1752 -0.2806
   60MOL   C24333401   1.190   2.716   0.257 -0.9604 -0.0245  0.0454
   60MOL   H24433402   1.396   2.497   0.094 -1.0722  0.3936 -0.3865
   60MOL   H24533403   1.626   2.607   0.017  1.3763  1.6234 -2.2113
   60MOL   H24633404   1.747   2.801   0.004  0.0196 -2.3849  0.7884
   60MOL   H24733405   1.845   3.242   0.062  0.7700  0.8605 -1.0266
   60MOL   H24833406   1.830   3.189   8.144  1.7677  0.8429 -0.3971
   60MOL   H24933407   2.088   3.196   8.190 -2.2177 -0.4140 -2.9468
   60MOL   H25033408   2.058   3.079   0.062 -2.8445  0.3437  1.5879
   60MOL   H25133409   1.446   3.034   0.210 -0.6939  0.1477 -0.2550
   60MOL   H25233410   1.244   2.920   0.292 -2.1371 -0.2513 -1.1392
   60MOL   H25333411   1.099   2.719   0.317  0.0618  0.6646  1.6039
   60MOL   O25433412   2.050   2.852   0.011 -0.1067  0.9490 -0.1084
   60MOL   C25533413   2.032   2.890   8.149  0.0965  0.0303  0.3112
   60MOL   O25633414   2.023   3.018   8.117 -0.3713  0.2119  0.1748
   60MOL   C25733415   2.036   2.794   8.037 -0.3702  0.5816  0.4764
   60MOL   C25833416   2.113   2.674   8.049  0.0790 -0.1619 -0.2904
   60MOL   C25933417   2.123   2.592   7.934 -0.2013  0.0870  0.1847
   60MOL   C26033418   2.197   2.470   7.946  0.1212 -0.4942  0.3667
   60MOL   C26133419   2.191   2.377   7.841 -0.0288  0.3165 -0.0100
   60MOL   C26233420   2.116   2.406   7.719  0.1746 -0.2031  0.0812
   60MOL   C26333421   2.117   2.307   7.606  0.3954  0.2033  0.4618
   60MOL   O26433422   2.183   2.192   7.631  0.0277 -0.3035  0.2464
   60MOL   C26533423   2.170   2.080   7.552 -0.3075  0.2243  0.4502
   60MOL   C26633424   2.027   2.016   7.556 -0.1733  0.1627 -0.5000
   60MOL   O26733425   2.058   2.326   7.498 -0.1563 -0.3422 -0.2823
   60MOL   C26833426   2.053   2.529   7.707  0.2180  0.1299  0.5655
   60MOL   C26933427   2.054   2.619   7.816 -0.2875  0.1244  0.0543
   60MOL   C27033428   1.983   2.737   7.805 -0.5115  0.8101 -0.4960
   60MOL   C27133429   1.973   2.827   7.913 -0.0908  0.5023  0.0468
   60MOL   H27233430   2.153   2.657   8.148  0.1211  1.5130 -0.0137
   60MOL   H27333431   2.268   2.444   8.023 -0.4870 -1.1155  0.7229
   60MOL   H27433432   2.256   2.291   7.844  0.3393  0.6134  0.6257
   60MOL   H27533433   2.235   2.000   7.586 -0.4494 -0.9238 -1.8845
   60MOL   H27633434   2.196   2.102   7.448  4.1681 -1.5355  1.0864
   60MOL   H27733435   1.960   2.088   7.509  0.7478  1.7285  0.5488
   60MOL   H27833436   2.031   1.929   7.490  0.6781  0.4216 -0.8030
   60MOL   H27933437   2.006   2.554   7.613  4.2213  0.6685 -1.3874
   60MOL   H28033438   1.949   2.766   7.707 -1.9669  1.5911  0.2283
   60MOL   H28133439   1.928   2.924   7.902 -0.5746  0.2376 -0.3503
   60MOL   O28233440   1.808   2.094   7.701 -0.2375  0.0731  0.1676
   60MOL   C28333441   1.894   2.019   7.748  0.6159  0.0182  0.0732
   60MOL   O28433442   1.997   1.971   7.689 -0.3141 -0.1749 -0.0537
   60MOL   C28533443   1.877   1.964   7.888  0.0502  1.1120  0.8104
   60MOL   C28633444   1.922   1.832   7.908 -1.1295 -0.2010 -0.2985
   60MOL   C28733445   1.922   1.772   8.034 -0.6000 -0.8443  0.1062
   60MOL   C28833446   1.972   1.643   8.055  0.3011  0.4551 -0.2298
   60MOL   C28933447   1.974   1.581   8.180  0.3406  1.0253 -1.0367
   60MOL   C29033448   1.929   1.655   0.034  0.5512  0.3127  0.1122
   60MOL   C29133449   1.935   1.597   0.173  0.1553 -0.0785 -0.3947
   60MOL   O29233450   1.991   1.476   0.179 -0.1428  0.0763  0.0730
   60MOL   C29333451   2.017   1.416   0.297 -0.1078 -0.2566 -0.2320
   60MOL   C29433452   2.141   1.339   0.311 -0.3152  0.6346  0.2610
   60MOL   O29533453   1.894   1.663   0.274  0.2747 -0.7369 -0.3142
   60MOL   C29633454   1.876   1.786   0.015  0.3979  0.4014 -0.0673
   60MOL   C29733455   1.868   1.844   8.138 -0.0876 -0.1544 -0.4145
   60MOL   C29833456   1.818   1.974   8.119 -0.3262 -0.3573  0.2175
   60MOL   C29933457   1.833   2.042   7.998  0.1561  0.0125 -0.3844
   60MOL   H30033458   1.945   1.769   7.824 -1.1104  0.1875 -0.5861
   60MOL   H30133459   2.026   1.589   7.979 -0.5170 -0.4044 -0.2090
   60MOL   H30233460   2.020   1.484   8.190 -0.4525  0.8347  1.3007
   60MOL   H30333461   1.928   1.352   0.301 -0.7085  0.6032  0.3565
   60MOL   H30433462   2.011   1.487   0.380 -0.7392 -0.4429 -0.1090
   60MOL   H30533463   2.134   1.254   0.243  1.1181  0.3749  0.4258
   60MOL   H30633464   2.230   1.399   0.296  0.7292 -0.8852  0.2909
   60MOL   H30733465   1.846   1.839   0.104 -2.2566 -1.9105  0.4813
   60MOL   H30833466   1.767   2.017   8.203 -0.6603 -0.7457  0.2142
   60MOL   H30933467   1.800   2.145   7.996  1.5930  0.5126  0.5294
   60MOL   O31033468   2.030   1.094   0.387 -0.1987 -0.1350 -0.4404
   60MOL   C31133469   2.083   1.170   0.472 -0.1162  0.6138  0.7346
   60MOL   O31233470   2.144   1.283   0.447  0.5910 -0.0077 -0.2862
   60MOL   C31333471   2.080   1.135   0.619  0.0388  0.1841  0.2183
   60MOL   C31433472   2.020   1.019   0.669 -0.1656  0.4042 -0.0869
   60MOL   C31533473   2.035   0.982   0.804  0.3723 -0.6625  0.0950
   60MOL   C31633474   1.972   0.865   0.853  1.0969  0.4825 -0.2127
   60MOL   C31733475   1.977   0.832   0.990 -0.1269  0.3408 -0.0664
   60MOL   C31833476   2.052   0.920   1.076  0.4558  0.2005 -0.3102
   60MOL   C31933477   2.048   0.895   1.224 -0.3256 -0.5551 -0.0126
   60MOL   O32033478   1.989   0.778   1.259 -0.4645 -0.6542 -0.9809
   60MOL   C32133479   1.990   0.742   1.404 -0.0341  0.1102  0.0879
   60MOL   C32233480   1.872   0.654   1.427  0.1245 -0.4562 -0.3463
   60MOL   O32333481   2.103   0.971   1.307 -0.4848 -0.5959 -0.0906
   60MOL   C32433482   2.108   1.035   1.029  0.4072 -0.1037  0.1487
   60MOL   C32533483   2.106   1.069   0.893 -0.3105 -0.0095  0.1753
   60MOL   C32633484   2.150   1.197   0.845 -0.4028 -0.1116  0.0301
   60MOL   C32733485   2.138   1.223   0.710  0.6154  0.0975 -0.6128
   60MOL   H32833486   1.966   0.953   0.602  1.2982 -0.8432 -0.0591
   60MOL   H32933487   1.916   0.798   0.790 -0.5994  3.1634 -1.6731
   60MOL   H33033488   1.933   0.737   1.014  0.8771  0.4313  2.2248
   60MOL   H33133489   1.988   0.824   1.476 -0.0972 -0.8865  1.2546
   60MOL   H33233490   2.085   0.689   1.416  0.4116  0.8000 -0.4060
   60MOL   H33333491   1.859   0.590   1.340 -0.4690 -0.4692 -0.2439
   60MOL   H33433492   1.885   0.580   1.507 -0.6906  0.1352  0.3374
   60MOL   H33533493   2.146   1.109   1.098 -0.6962  0.0713  0.5769
   60MOL   H33633494   2.199   1.272   0.905  0.6165  0.8883 -1.9858
   60MOL   H33733495   2.166   1.324   0.684  1.7182 -0.7026 -2.6619
   60MOL   O33833496   1.677   0.710   1.238  0.0877  0.1471 -0.2768
   60MOL   C33933497   1.659   0.736   1.356  0.2557 -0.4359  0.2762
   60MOL   O34033498   1.757   0.726   1.458 -0.9540 -0.0681  0.1168
   60MOL   C34133499   1.535   0.787   1.408 -0.4119  0.8219 -0.3894
   60MOL   C34233500   1.438   0.829   1.315  0.3289 -0.2537  1.5638
   60MOL   C34333501   1.322   0.893   1.362  0.0907  0.6433 -0.1312
   60MOL   C34433502   1.227   0.949   1.270  0.3838  0.0168  0.3513
   60MOL   C34533503   1.114   1.016   1.322 -0.1354  0.1200  0.3202
   60MOL   C34633504   1.100   1.039   1.459  0.7410  0.7478  0.4876
   60MOL   C34733505   0.979   1.100   1.509 -0.3331  0.0821 -0.1411
   60MOL   O34833506   0.904   1.163   1.413  0.3347 -0.9732  0.1399
   60MOL   C34933507   0.781   1.236   1.441  0.5834  0.9540 -0.5786
   60MOL   C35033508   0.671   1.140   1.410  0.0282  0.1670  0.8247
   60MOL   O35133509   0.941   1.091   1.626  0.1130 -0.3349 -0.2705
   60MOL   C35233510   1.198   0.985   1.546 -0.4446 -0.3925 -0.0536
   60MOL   C35333511   1.300   0.903   1.500 -0.6998  1.1663  0.0420
   60MOL   C35433512   1.394   0.859   1.600  0.0401 -0.5579  0.8248
   60MOL   C35533513   1.511   0.804   1.548 -0.4988 -0.6396 -0.3608
   60MOL   H35633514   1.458   0.813   1.210  3.1863  0.7912  1.8957
   60MOL   H35733515   1.235   0.930   1.164 -0.3790  1.2514  0.0613
   60MOL   H35833516   1.051   1.064   1.248 -2.4011 -0.6368  1.7145
   60MOL   H35933517   0.772   1.329   1.386  1.0124  0.9876 -0.5931
   60MOL   H36033518   0.772   1.249   1.549 -1.8767 -2.4819 -0.2784
   60MOL   H36133519   0.694   1.035   1.428 -2.0485 -0.4704 -0.1307
   60MOL   H36233520   0.589   1.145   1.482  0.5175 -0.7856  1.4700
   60MOL   H36333521   1.182   1.002   1.652  1.1560  1.7220 -0.1407
   60MOL   H36433522   1.380   0.874   1.706  0.0826 -0.2951  0.7920
   60MOL   H36533523   1.587   0.775   1.619 -0.3901 -0.2089 -0.3014
   60MOL   O36633524   0.754   0.986   1.178  0.4569  0.0071 -0.0771
   60MOL   C36733525   0.653   1.058   1.179  0.0116  0.0171 -0.2397
   60MOL   O36833526   0.624   1.153   1.277  0.0408  0.1350 -0.1833
   60MOL   C36933527   0.550   1.044   1.075  0.7801 -0.1715  0.1599
   60MOL   C37033528   0.568   0.954   0.964 -0.3158 -0.1792  0.1117
   60MOL   C37133529   0.473   0.944   0.859  1.0892  0.5160 -0.5529
   60MOL   C37233530   0.486   0.858   0.754 -0.0208 -0.6716  0.5857
   60MOL   C37333531   0.396   0.867   0.641 -0.1800 -0.3177 -0.2466
   60MOL   C37433532   0.291   0.963   0.644 -0.7953 -0.1414  0.3958
   60MOL   C37533533   0.197   0.960   0.527 -0.2200 -0.5992  0.4981
   60MOL   O37633534   0.120   1.070   0.521  0.6379 -0.8740 -0.1109
   60MOL   C37733535   0.036   1.091   0.412  0.4655  0.4350  0.1584
   60MOL   C37833536   8.226   1.225   0.382  0.1502  0.3379 -0.3514
   60MOL   O37933537   0.194   0.870   0.440  0.0888 -0.1235 -0.0014
   60MOL   C38033538   0.265   1.035   0.761 -0.2277  0.7719 -0.1702
   60MOL   C38133539   0.363   1.031   0.864  0.0641 -0.6662 -0.6347
   60MOL   C38233540   0.341   1.110   0.973 -0.2220 -0.1615 -0.6297
   60MOL   C38333541   0.429   1.115   1.081  0.0186 -0.3615 -0.0748
   60MOL   H38433542   0.660   0.898   0.970 -0.9116 -1.0122  1.4984
   60MOL   H38533543   0.574   0.795   0.750 -0.7281 -2.0227  4.4046
   60MOL   H38633544   0.409   0.795   0.561  3.9891 -0.5043  0.4901
   60MOL   H38733545   8.203   1.020   0.421  1.2072 -0.3999  0.4095
   60MOL   H38833546   0.088   1.055   0.323  2.1854 -0.7480  1.6155
   60MOL   H38933547   0.057   1.297   0.364 -0.6340  1.9168  2.2126
   60MOL   H39033548   8.170   1.215   0.289 -0.8450 -1.6991  0.4386
   60MOL   H39133549   0.172   1.089   0.773 -0.5098  0.0573  0.9290
   60MOL   H39233550   0.254   1.173   0.987 -1.4923 -1.4305 -2.5583
   60MOL   H39333551   0.408   1.177   1.167  0.3936 -0.2762 -0.0421
   60MOL   O39433552   8.170   1.486   0.421 -0.1648  0.4907  0.6490
   60MOL   C39533553   8.125   1.405   0.497 -0.9088 -0.0786  0.3424
   60MOL   O39633554   8.137   1.268   0.479 -0.5185  0.2310 -0.3404
   60MOL   C39733555   8.053   1.439   0.616  0.6015 -0.2365 -0.4453
   60MOL   C39833556   8.032   1.578   0.648  0.3805 -0.2432 -0.1277
   60MOL   C39933557   7.942   1.614   0.750  0.7440 -0.5785 -0.4859
   60MOL   C40033558   7.917   1.747   0.766  0.2438  0.0238 -1.0240
   60MOL   C40133559   7.820   1.788   0.864  0.9390 -0.9032  0.0393
   60MOL   C40233560   7.758   1.691   0.945  0.3002  0.1700  0.2388
   60MOL   C40333561   7.654   1.725   1.050  0.0367  0.8266 -0.1704
   60MOL   O40433562   7.652   1.861   1.073  0.1885  0.4893 -0.2101
   60MOL   C40533563   7.565   1.908   1.174  0.5930  0.1231 -0.4514
   60MOL   C40633564   7.583   2.062   1.172  0.2862  0.5020  0.2928
   60MOL   O40733565   7.585   1.649   1.114  0.2026 -0.2068 -0.4546
   60MOL   C40833566   7.794   1.554   0.937 -0.2804 -0.1595  0.4247
   60MOL   C40933567   7.886   1.512   0.833  0.3779  0.3115 -0.7474
   60MOL   C41033568   7.908   1.376   0.812 -0.2231  0.3831 -0.2131
   60MOL   C41133569   7.988   1.336   0.697 -0.0420 -0.3167 -0.4694
   60MOL   H41233570   8.089   1.651   0.592  2.3958 -1.5315  0.2096
   60MOL   H41333571   7.960   1.824   0.703 -0.8222 -0.0199 -1.8101
   60MOL   H41433572   7.783   1.889   0.874  0.6911 -0.5329 -3.9427
   60MOL   H41533573   7.605   1.868   1.268 -0.3808 -1.5023 -0.7087
   60MOL   H41633574   7.461   1.874   1.168  0.4478  0.0548  1.9244
   60MOL   H41733575   7.550   2.098   1.075 -0.8888  1.9455  1.2026
   60MOL   H41833576   7.532   2.129   1.241  1.6351 -0.2107  2.0068
   60MOL   H41933577   7.749   1.477   0.996  0.0687 -1.6236 -1.1833
   60MOL   H42033578   7.863   1.297   0.870 -0.6070  1.5855  1.1632
   60MOL   H42133579   8.001   1.231   0.677 -0.4656 -0.3100 -0.7733
   60MOL   O42233580   7.774   2.222   1.015 -0.2059  0.0768  0.1700
   60MOL   C42333581   7.811   2.142   1.105 -0.3611  0.5315  0.2574
   60MOL   O42433582   7.724   2.078   1.188 -0.0327 -0.4597 -0.7412
   60MOL   C42533583   7.950   2.093   1.125  0.2223  0.5944 -0.4585
   60MOL   C42633584   7.984   1.965   1.189  0.0272  0.5416  0.1496
   60MOL   C42733585   8.122   1.923   1.190  0.4762 -0.0203 -0.0573
   60MOL   C42833586   8.160   1.795   1.237  0.4610 -0.4982 -0.3930
   60MOL   C42933587   0.043   1.757   1.246 -0.2547  0.2148  0.4737
   60MOL   C43033588   0.144   1.836   1.181  0.0119  0.3170 -1.3142
   60MOL   C43133589   0.293   1.791   1.177  0.0703 -0.1529  0.3240
   60MOL   O43233590   0.312   1.673   1.235 -0.5004 -0.4813 -0.1816
   60MOL   C43333591   0.440   1.604   1.225  0.6578 -0.1365 -0.6539
   60MOL   C43433592   0.471   1.540   1.086 -0.6380  0.0993 -0.1853
   60MOL   O43533593   0.385   1.848   1.118  0.2073 -0.3209 -0.0734
   60MOL   C43633594   0.109   1.962   1.122  0.3889  0.0996 -1.0513
   60MOL   C43733595   8.223   2.009   1.136  0.0424  0.5590  0.2923
   60MOL   C43833596   8.193   2.134   1.086  0.3867 -1.0212  0.4123
   60MOL   C43933597   8.056   2.170   1.070 -0.3287 -0.0908  0.0411
   60MOL   H44033598   7.903   1.900   1.218  1.2083 -0.5461  1.0810
   60MOL   H44133599   8.090   1.725   1.279  0.7625 -0.0427  0.8810
   60MOL   H44233600   0.067   1.658   1.281  1.8763  1.6018  3.1835
   60MOL   H44333601   0.443   1.518   1.291 -0.2077 -1.0835 -1.8228
   60MOL   H44433602   0.524   1.670   1.248 -0.2527  0.5897  0.6363
   60MOL   H44533603   0.396   1.465   1.057  0.4187 -0.6867 -0.9049
   60MOL   H44633604   0.467   1.628   1.022 -0.8741  0.6897  0.6326
   60MOL   H44733605   0.180   2.027   1.073 -0.2132  1.2901 -0.3418
   60MOL   H44833606   0.017   2.208   1.057  0.0782 -0.9195 -0.1230
   60MOL   H44933607   8.027   2.264   1.025 -3.4707 -1.4252 -0.8302
   60MOL   O45033608   0.561   1.355   0.905 -0.2910  0.1128 -0.7632
   60MOL   C45133609   0.636   1.397   0.991  0.0299  0.4783 -0.8005
   60MOL   O45233610   0.602   1.481   1.085 -0.5542 -0.2130 -0.1882
   60MOL   C45333611   0.774   1.347   1.004  0.2108  0.3082 -0.1669
   60MOL   C45433612   0.831   1.238   0.932  0.5164  0.2835 -0.3116
   60MOL   C45533613   0.969   1.195   0.940  0.5467  0.3700 -0.3108
   60MOL   C45633614   1.005   1.077   0.872 -0.0507  0.6687  0.4167
   60MOL   C45733615   1.142   1.046   0.879  0.2049 -0.0485 -0.2026
   60MOL   C45833616   1.239   1.122   0.950  0.7879  0.0063  0.3738
   60MOL   C45933617   1.382   1.083   0.971  0.4013 -0.4233 -0.5033
   60MOL   O46033618   1.409   0.960   0.924  0.3105 -0.3128  0.3525
   60MOL   C46133619   1.536   0.907   0.956 -0.4530  0.2501 -0.0791
   60MOL   C46233620   1.638   0.947   0.852  0.0794 -0.1892 -1.1001
   60MOL   O46333621   1.454   1.149   1.040  0.3327 -0.3102  0.4564
   60MOL   C46433622   1.188   1.231   1.025  0.0994 -0.5835  0.3589
   60MOL   C46533623   1.053   1.271   1.021  0.0236 -0.1560 -0.0709
   60MOL   C46633624   0.998   1.371   1.098 -0.5022  0.1757 -0.4667
   60MOL   C46733625   0.865   1.416   1.088  0.3249 -0.0699 -0.2337
   60MOL   H46833626   0.759   1.186   0.871 -0.2923  0.5576  0.3981
   60MOL   H46933627   0.934   1.016   0.817  0.5357 -0.0694  0.4727
   60MOL   H47033628   1.185   0.960   0.831  1.7063  0.4735  0.2057
   60MOL   H47133629   1.519   0.799   0.963 -1.8241  0.4404 -0.3124
   60MOL   H47233630   1.562   0.931   1.059 -1.6485 -0.8331  0.4996
   60MOL   H47333631   1.731   0.890   0.853  0.4422  0.3426 -2.4791
   60MOL   H47433632   1.582   0.929   0.759 -1.6013 -1.2549  0.0831
   60MOL   H47533633   1.257   1.286   1.088 -0.4582 -1.2747  1.5891
   60MOL   H47633634   1.064   1.435   1.154  0.4298 -2.0147  0.9865
   60MOL   H47733635   0.834   1.505   1.141 -1.7996 -1.3319  0.6949
   60MOL   O47833636   1.770   1.059   1.053 -0.5614 -0.1967 -0.3153
   60MOL   C47933637   1.753   1.126   0.950 -0.4969 -0.2569 -0.1923
   60MOL   O48033638   1.675   1.083   0.846 -0.6340 -0.1578 -0.4358
   60MOL   C48133639   1.791   1.264   0.931  0.5639  0.1401  0.5021
   60MOL   C48233640   1.793   1.323   0.803  0.5240  0.6621 -0.4943
   60MOL   C48333641   1.826   1.462   0.779 -0.3322 -0.4854 -0.9038
   60MOL   C48433642   1.826   1.513   0.651 -0.0873  0.2424  0.0710
   60MOL   C48533643   1.854   1.647   0.632 -0.6051 -0.2915  0.5005
   60MOL   C48633644   1.886   1.732   0.744  0.2962  0.3367 -0.4604
   60MOL   C48733645   1.939   1.871   0.722  0.3695  0.2875  0.6300
   60MOL   O48833646   1.956   1.907   0.593  0.4508  0.0731 -0.1553
   60MOL   C48933647   2.034   2.022   0.563  0.5117  0.5517  0.0199
   60MOL   C49033648   1.942   2.151   0.571  0.1162  0.1429  0.1520
   60MOL   O49133649   1.976   1.935   0.815 -0.0836 -0.4612  0.5669
   60MOL   C49233650   1.886   1.677   0.874 -0.5089  0.3187  0.2653
   60MOL   C49333651   1.853   1.540   0.895 -0.1123  0.0560 -0.0060
   60MOL   C49433652   1.853   1.480   1.026  0.3967 -0.3614  0.1737
   60MOL   C49533653   1.824   1.345   1.044 -0.3161 -0.2914 -0.2049
   60MOL   H49633654   1.766   1.254   0.724 -1.1395 -0.5322  1.0669
   60MOL   H49733655   1.806   1.453   0.563 -3.2037  0.4600  0.5668
   60MOL   H49833656   1.856   1.684   0.531 -1.4078 -1.1303  0.1715
   60MOL   H49933657   2.086   2.013   0.467 -0.6590 -1.7062 -0.4319
   60MOL   H50033658   2.112   2.023   0.639 -0.6389 -0.5653  1.2271
   60MOL   H50133659   1.870   2.129   0.650  0.2156 -1.6927 -0.2545
   60MOL   H50233660   1.993   2.240   0.607 -1.8018  0.8636  1.2065
   60MOL   H50333661   1.903   1.737   0.962 -2.9807  0.8006  0.4321
   60MOL   H50433662   1.886   1.543   1.107 -1.1797 -1.5482  1.7748
   60MOL   H50533663   1.841   1.307   1.144  1.2819  0.1020 -0.3124
   60MOL   O50633664   1.680   2.108   0.492  0.1939 -0.2792  0.2847
   60MOL   C50733665   1.761   2.169   0.420  0.6581  0.4308 -0.4941
   60MOL   O50833666   1.890   2.194   0.446  0.3227  0.0454 -0.0668
   60MOL   C50933667   1.713   2.221   0.277 -0.0097  0.2815  0.3520
   60MOL   C51033668   1.799   2.282   0.184 -0.4790 -0.2121 -0.1383
   60MOL   C51133669   1.754   2.317   0.053  0.0944 -0.1656 -0.3727
   60MOL   C51233670   1.827   2.394   8.214 -0.2566  0.5378  0.7411
   60MOL   C51333671   1.782   2.419   8.087  0.2295  1.0591  0.1306
   60MOL   C51433672   1.650   2.378   8.045 -0.6509  0.2257 -0.1753
   60MOL   C51533673   1.616   2.395   7.898  0.8467  0.4006 -0.2937
   60MOL   O51633674   1.487   2.356   7.873 -0.0611  0.1913  0.9811
   60MOL   C51733675   1.437   2.376   7.740  0.4781 -0.4281 -0.2713
   60MOL   C51833676   1.355   2.505   7.731  0.6393  0.8219 -0.0139
   60MOL   O51933677   1.690   2.449   7.814 -0.2824 -0.5622 -0.0479
   60MOL   C52033678   1.565   2.319   8.138 -0.3660 -0.4571  0.0586
   60MOL   C52133679   1.620   2.282   0.015 -0.0066  0.0981 -0.3283
   60MOL   C52233680   1.532   2.217   0.103  0.1818 -0.4836 -0.0802
   60MOL   C52333681   1.584   2.193   0.228 -0.7635 -0.7452 -0.3375
   60MOL   H52433682   1.894   2.315   0.223 -0.5617  0.3699 -0.4379
   60MOL   H52533683   1.924   2.435   8.242 -0.4787  2.5483 -1.2899
   60MOL   H52633684   1.852   2.462   8.017 -1.4261  0.6788 -1.8029
   60MOL   H52733685   1.368   2.295   7.717  0.1731 -0.7115  1.5541
   60MOL   H52833686   1.506   2.365   7.656 -1.3634 -0.4547 -1.8256
   60MOL   H52933687   1.324   2.513   7.626  2.4105 -0.4826 -0.6694
   60MOL   H53033688   1.261   2.492   7.785  1.3333 -2.7107  0.4962
   60MOL   H53133689   1.462   2.299   8.111 -0.0680 -0.8748 -0.7482
   60MOL   H53233690   1.433   2.193   0.067 -1.4527  1.5706  2.8597
   60MOL   H53333691   1.517   2.147   0.299  0.5241 -1.7494  0.2545
   60MOL   O53433692   1.520   2.619   7.539 -0.1428 -0.4421 -0.3777
   60MOL   C53533693   1.505   2.672   7.648 -0.8277 -0.0564 -0.6466
   60MOL   O53633694   1.428   2.627   7.748 -0.7992  0.0734  0.1617
   60MOL   C53733695   1.570   2.797   7.692  0.0756 -0.0674  0.5313
   60MOL   C53833696   1.682   2.857   7.624 -0.6345  0.5087 -0.0956
   60MOL   C53933697   1.744   2.967   7.679  0.4123 -0.2088  0.2054
   60MOL   C54033698   1.869   3.006   7.633  1.3733 -0.4724  0.9915
   60MOL   C54133699   1.927   3.125   7.679  0.4259 -0.6229 -0.0320
   60MOL   C54233700   1.877   3.193   7.796 -0.1974 -0.4977 -0.2693
   60MOL   C54333701   1.947   3.309   7.861 -0.3840  0.4328 -0.2785
   60MOL   O54433702   2.073   3.332   7.803  0.0432 -0.1281 -0.3207
   60MOL   C54533703   2.148   3.445   7.849  0.4612 -0.0962  0.5256
   60MOL   C54633704   2.293   3.411   7.828  1.0669 -0.1465  0.3028
   60MOL   O54733705   1.908   3.372   7.957 -0.1209  0.2151 -0.1986
   60MOL   C54833706   1.761   3.145   7.853  0.4106  0.0341  0.1168
   60MOL   C54933707   1.688   3.038   7.793 -0.5156 -0.4474  0.6890
   60MOL   C55033708   1.566   2.990   7.850  0.0492  0.3655 -0.3014
   60MOL   C55133709   1.515   2.869   7.804  0.1948  0.3621 -0.2678
   60MOL   H55233710   1.721   2.814   7.532 -0.7494  1.2493 -0.4927
   60MOL   H55333711   1.910   2.958   7.545 -2.1690  1.0649 -1.6260
   60MOL   H55433712   2.008   3.149   7.612 -0.3347 -1.2313 -1.1934
   60MOL   H55533713   2.133   3.457   7.956  0.3207  0.3259  0.4590
   60MOL   H55633714   2.119   3.539   7.801 -1.6250 -0.5443  0.8957
   60MOL   H55733715   2.345   3.490   7.882  2.0284 -0.6181  0.0844
   60MOL   H55833716   2.321   3.419   7.723  1.1290  3.0271  0.5126
   60MOL   H55933717   1.724   3.172   7.951  2.4379 -2.1945  1.5445
   60MOL   H56033718   1.519   3.036   7.936  0.6864  0.8842 -0.2225
   60MOL   H56133719   1.427   2.835   7.856  0.2874 -1.7063 -1.3908
   60MOL   H56233720   2.323   3.316   7.872  2.4796  1.1059  2.1265
   61MOL     O133721   6.698   7.493   6.357  0.1155 -0.0871 -0.4897
   61MOL     C233722   6.643   7.600   6.330  1.0397 -0.8825 -0.0326
   61MOL     O333723   6.572   7.666   6.422  0.0898  0.8898 -0.0847
   61MOL     C433724   6.654   7.671   6.201  0.9958  0.7074  0.2070
   61MOL     C533725   6.679   7.590   6.091 -0.3694  0.1843 -0.1559
   61MOL     C633726   6.695   7.641   5.964  0.1594  0.6143  0.3777
   61MOL     C733727   6.733   7.551   5.859  0.0547 -0.2137 -0.6870
   61MOL     C833728   6.749   7.608   5.727 -0.3048  0.3696 -0.1659
   61MOL     C933729   6.725   7.748   5.699  0.9776  0.2027 -0.1548
   61MOL    C1033730   6.740   7.812   5.567 -0.9203  0.2962 -0.3208
   61MOL    O1133731   6.767   7.725   5.475  0.2928 -0.3606  0.2700
   61MOL    C1233732   6.741   7.758   5.344  1.0708 -0.1097  0.4293
   61MOL    C1333733   6.876   7.759   5.261 -0.2014  0.1456  0.1268
   61MOL    O1433734   6.721   7.933   5.547 -0.1459  0.5235  0.1734
   61MOL    C1533735   6.693   7.835   5.811  0.3051  1.0926  0.5957
   61MOL    C1633736   6.684   7.784   5.941  0.6867 -0.3750 -0.0615
   61MOL    C1733737   6.663   7.870   6.052  0.3174  0.6561  0.5588
   61MOL    C1833738   6.655   7.818   6.182 -0.5364 -0.0687  0.9452
   61MOL    H1933739   6.689   7.483   6.099 -0.0186  0.1336 -1.1621
   61MOL    H2033740   6.744   7.446   5.879 -0.6895 -0.4106 -1.3096
   61MOL    H2133741   6.783   7.537   5.654  2.5998  0.3158  1.1400
   61MOL    H2233742   6.673   7.680   5.310  0.4060  0.8124 -0.3718
   61MOL    H2333743   6.680   7.844   5.316 -0.9416 -1.7402 -0.3990
   61MOL    H2433744   6.853   7.831   5.183  2.6159 -0.1604 -1.0368
   61MOL    H2533745   6.956   7.810   5.315 -0.2464 -0.9646  1.2747
   61MOL    H2633746   6.684   7.942   5.797 -0.7891  0.7762 -1.2424
   61MOL    H2733747   6.642   7.972   6.025 -0.9413  0.2312 -0.1032
   61MOL    H2833748   6.648   7.886   6.265 -2.9218  0.7941  0.0739
   61MOL    H2933749   6.586   7.626   6.507  0.9484  0.5246 -0.3902
   61MOL    O3033750   6.903   7.675   4.994  0.7848 -0.0240 -0.1019
   61MOL    C3133751   6.930   7.598   5.085 -0.7825  0.2583 -0.0905
   61MOL    O3233752   6.915   7.629   5.221  0.3078 -0.4743  0.3075
   61MOL    C3333753   6.977   7.460   5.059  0.1017  0.6006 -0.2213
   61MOL    C3433754   7.006   7.416   4.925 -0.3947  1.0918  0.6490
   61MOL    C3533755   7.034   7.277   4.902  0.5051 -0.4816 -0.3371
   61MOL    C3633756   7.058   7.235   4.771  0.4379 -0.4240 -0.5098
   61MOL    C3733757   7.083   7.099   4.755 -0.3745  0.0155 -1.0468
   61MOL    C3833758   7.074   7.000   4.863 -0.6666  0.0912  0.2566
   61MOL    C3933759   7.110   6.851   4.831 -0.4282  0.1909  0.0829
   61MOL    O4033760   7.099   6.815   4.704  0.6511 -0.2362 -0.5104
   61MOL    C4133761   7.127   6.685   4.667 -0.2688 -0.0222  0.6695
   61MOL    C4233762   7.017   6.584   4.717 -0.5018 -0.5994  0.2854
   61MOL    O4333763   7.151   6.773   4.918  0.0719 -0.2277 -0.4751
   61MOL    C4433764   7.049   7.044   4.990  0.0933  0.0646 -0.6534
   61MOL    C4533765   7.032   7.181   5.012 -1.1314  0.5070  0.0286
   61MOL    C4633766   7.014   7.228   5.142  0.6903 -0.3048 -0.3871
   61MOL    C4733767   6.981   7.364   5.169  0.5402 -0.3649  0.4903
   61MOL    H4833768   6.988   7.481   4.840  0.4726  0.5845  0.0639
   61MOL    H4933769   7.071   7.302   4.688  0.7631  0.9766  0.6469
   61MOL    H5033770   7.103   7.060   4.656 -2.2388 -0.3155 -1.3183
   61MOL    H5133771   7.226   6.649   4.697  1.2608  4.1045  0.8895
   61MOL    H5233772   7.111   6.679   4.559 -0.0791  0.1535  0.6303
   61MOL    H5333773   6.944   6.642   4.773  0.1041  0.5908 -0.1312
   61MOL    H5433774   6.945   6.544   4.646 -0.7090 -1.5890  1.0396
   61MOL    H5533775   7.056   6.981   5.077 -1.0546 -0.6776 -1.0881
   61MOL    H5633776   7.034   7.164   5.226  0.3363  0.1856  0.0757
   61MOL    H5733777   6.955   7.400   5.268  3.6187  0.9063  0.8974
   61MOL    O5833778   7.070   6.322   4.632 -0.5640  0.4292 -0.4196
   61MOL    C5933779   7.087   6.357   4.753  0.4990  0.2465  0.9405
   61MOL    O6033780   7.053   6.476   4.807 -0.9688 -0.1250  0.4163
   61MOL    C6133781   7.104   6.257   4.866  0.4915 -0.0053 -0.1490
   61MOL    C6233782   7.142   6.295   4.997 -0.0560 -0.7334 -0.3586
   61MOL    C6333783   7.130   6.209   5.106  0.0810 -0.5405 -0.7767
   61MOL    C6433784   7.164   6.254   5.235 -0.7501 -0.6844 -0.1448
   61MOL    C6533785   7.138   6.170   5.343  0.3594 -0.1301 -0.0958
   61MOL    C6633786   7.088   6.040   5.323 -1.0936  0.0877 -1.0618
   61MOL    C6733787   7.061   5.963   5.440  0.3212  0.0464 -0.8406
   61MOL    O6833788   6.972   5.863   5.421 -0.0285  0.5755  1.1089
   61MOL    C6933789   6.951   5.760   5.521  0.2261 -0.1402 -0.0397
   61MOL    C7033790   7.080   5.680   5.539  0.5375 -1.2835  0.5644
   61MOL    O7133791   7.113   5.989   5.546 -0.5872  0.0012  0.6836
   61MOL    C7233792   7.066   5.992   5.195 -0.4672 -0.8337  0.6738
   61MOL    C7333793   7.079   6.081   5.083  0.5080  0.5180 -0.3031
   61MOL    C7433794   7.053   6.032   4.958 -0.0619  0.6810  0.5443
   61MOL    C7533795   7.066   6.120   4.849  0.0412 -0.5213  0.0354
   61MOL    H7633796   7.178   6.396   5.004  0.5612 -0.6886 -3.4946
   61MOL    H7733797   7.206   6.353   5.242  2.6797 -1.9936 -1.2838
   61MOL    H7833798   7.160   6.216   5.438 -1.1562  0.9191 -0.2262
   61MOL    H7933799   6.875   5.695   5.478 -1.2509  2.2401 -1.1338
   61MOL    H8033800   6.898   5.796   5.609  0.8746  0.6344  0.0351
   61MOL    H8133801   7.141   5.681   5.448  1.2550 -1.3946  1.0447
   61MOL    H8233802   7.129   5.725   5.625  0.6906 -0.3533 -0.0016
   61MOL    H8333803   7.026   5.892   5.183 -3.2728  0.4761 -1.5374
   61MOL    H8433804   7.006   5.935   4.947  0.8233  0.4288 -1.1817
   61MOL    H8533805   7.029   6.089   4.752 -0.3237 -0.0564  0.0238
   61MOL    O8633806   7.112   5.574   5.791 -0.0462 -1.1085 -0.2219
   61MOL    C8733807   7.083   5.502   5.694 -0.0392 -0.3286 -0.6801
   61MOL    O8833808   7.056   5.547   5.568  0.6205 -0.7013  0.0436
   61MOL    C8933809   7.065   5.354   5.709  0.5998  0.2343 -0.2743
   61MOL    C9033810   7.088   5.269   5.606  0.2020 -0.0222  0.5095
   61MOL    C9133811   7.074   5.126   5.619  0.2287 -0.3613  0.0389
   61MOL    C9233812   7.083   5.044   5.502  0.8912 -0.5591  1.0124
   61MOL    C9333813   7.062   4.904   5.520  0.2376 -0.9709  0.8965
   61MOL    C9433814   7.028   4.844   5.642 -0.3112 -1.2458  0.7109
   61MOL    C9533815   6.981   4.705   5.655 -0.3552 -0.0049 -0.5384
   61MOL    O9633816   6.980   4.633   5.543  0.0255 -0.2605 -0.3530
   61MOL    C9733817   6.905   4.513   5.527 -0.3378 -0.0243 -0.5288
   61MOL    C9833818   6.754   4.526   5.501  0.2390 -0.0226 -0.1196
   61MOL    O9933819   6.938   4.665   5.767  0.8470 -0.2231  0.0498
   61MOL   C10033820   7.027   4.930   5.758 -0.2542  0.0103  0.6701
   61MOL   C10133821   7.049   5.068   5.744  0.3293  0.1853  0.0619
   61MOL   C10233822   7.021   5.158   5.852 -0.0148  0.6724 -0.6661
   61MOL   C10333823   7.035   5.298   5.833  0.5906 -0.7177 -0.4690
   61MOL   H10433824   7.104   5.305   5.505 -1.6370 -0.1956  0.1372
   61MOL   H10533825   7.086   5.089   5.404  0.3692 -2.6314  0.0299
   61MOL   H10633826   7.057   4.843   5.431 -2.0760  0.6531 -0.1519
   61MOL   H10733827   6.924   4.450   5.614  2.9964  1.7440  0.0950
   61MOL   H10833828   6.947   4.461   5.441  0.7139  2.5417 -1.5995
   61MOL   H10933829   6.711   4.427   5.516  0.6550 -0.1992 -0.0834
   61MOL   H11033830   6.712   4.596   5.573 -0.1983  0.9086 -1.2741
   61MOL   H11133831   6.985   4.899   5.853 -1.9962 -0.2933 -0.1814
   61MOL   H11233832   6.999   5.117   5.949 -2.2322  1.7597 -0.6889
   61MOL   H11333833   7.014   5.363   5.916  1.9537  1.2838 -1.6388
   61MOL   O11433834   6.743   4.770   5.377 -0.0959 -0.0983  0.3729
   61MOL   C11533835   6.717   4.668   5.313 -0.2456 -0.4882 -0.4643
   61MOL   O11633836   6.735   4.546   5.360 -0.0754  0.1134 -0.1940
   61MOL   C11733837   6.656   4.661   5.179  0.3329 -0.1493  0.4633
   61MOL   C11833838   6.616   4.781   5.123  0.2130  0.2238 -0.7944
   61MOL   C11933839   6.558   4.789   4.993 -0.1057 -0.9306  0.3273
   61MOL   C12033840   6.520   4.915   4.934  0.3637 -1.0323 -1.0575
   61MOL   C12133841   6.480   4.917   4.801 -0.3090  0.4754  0.2521
   61MOL   C12233842   6.476   4.795   4.722 -0.1647  0.3012 -0.4862
   61MOL   C12333843   6.437   4.806   4.578 -0.2543  0.2783 -0.3968
   61MOL   O12433844   6.446   4.934   4.531 -0.0979 -0.0746 -0.0929
   61MOL   C12533845   6.397   4.963   4.400 -0.7981  0.4724 -0.7699
   61MOL   C12633846   6.282   5.062   4.414  0.8129 -0.2224 -0.0951
   61MOL   O12733847   6.388   4.708   4.517 -0.3127 -0.5737  0.4083
   61MOL   C12833848   6.511   4.673   4.778  0.0453 -0.7781 -0.2062
   61MOL   C12933849   6.547   4.672   4.914  0.2756  0.0666 -0.5884
   61MOL   C13033850   6.582   4.546   4.974 -0.3998  0.0939 -0.2253
   61MOL   C13133851   6.644   4.541   5.102  0.1601 -0.3823 -0.0230
   61MOL   H13233852   6.618   4.862   5.193  1.3167  0.9969 -1.7011
   61MOL   H13333853   6.520   5.001   4.999 -1.9550 -1.3737 -0.5771
   61MOL   H13433854   6.443   5.008   4.757  0.9836  0.6292 -0.5634
   61MOL   H13533855   6.369   4.875   4.342 -0.7074 -0.3089  0.3548
   61MOL   H13633856   6.481   5.009   4.349  0.9771 -2.8197 -0.9103
   61MOL   H13733857   6.302   5.158   4.462 -1.1257  2.1514 -3.7561
   61MOL   H13833858   6.252   5.102   4.317  1.1156  0.8034  0.2303
   61MOL   H13933859   6.504   4.580   4.723  1.7656 -1.4278  0.6437
   61MOL   H14033860   6.577   4.462   4.907 -1.7179  0.8281 -1.0784
   61MOL   H14133861   6.664   4.445   5.148 -0.8617 -0.5396  0.1090
   61MOL   O14233862   6.083   4.932   4.285  0.3703 -0.4811  0.4258
   61MOL   C14333863   6.091   4.926   4.403  0.3012  0.6133 -0.8522
   61MOL   O14433864   6.177   4.992   4.476 -0.9142 -0.8259 -0.5711
   61MOL   C14533865   6.006   4.841   4.488  0.1757  0.5566 -0.2591
   61MOL   C14633866   6.022   4.836   4.630 -0.4582  0.7478  0.0509
   61MOL   C14733867   5.935   4.768   4.712  0.0631  0.7113  0.6250
   61MOL   C14833868   5.948   4.770   4.852  0.8268  0.2370  0.1735
   61MOL   C14933869   5.852   4.709   4.933  1.1125 -0.5960 -0.1711
   61MOL   C15033870   5.742   4.642   4.875  1.0632  0.6353  0.3203
   61MOL   C15133871   5.638   4.580   4.960  0.1087  0.0495 -0.1535
   61MOL   O15233872   5.697   4.513   5.054  0.2158  0.4634  0.6061
   61MOL   C15333873   5.612   4.453   5.158  0.0481  0.1410 -0.1101
   61MOL   C15433874   5.567   4.311   5.124  0.5839 -0.2468  0.2021
   61MOL   O15533875   5.513   4.595   4.946  0.1075 -0.2722  0.8442
   61MOL   C15633876   5.724   4.640   4.735  0.3461  0.5231 -0.3508
   61MOL   C15733877   5.823   4.699   4.655 -0.1608  0.1677  0.1601
   61MOL   C15833878   5.810   4.692   4.514 -0.0316 -0.3838  0.1542
   61MOL   C15933879   5.902   4.761   4.433 -0.9631 -0.7078 -0.3415
   61MOL   H16033880   6.101   4.895   4.673  1.1119 -0.3482 -1.2712
   61MOL   H16133881   6.030   4.823   4.897 -0.5613  2.1086  0.5711
   61MOL   H16233882   5.862   4.728   5.039 -0.6872 -1.5716  0.2029
   61MOL   H16333883   5.528   4.514   5.191 -1.8953 -1.6091 -1.7103
   61MOL   H16433884   5.676   4.429   5.243  0.8046 -0.4120 -0.8227
   61MOL   H16533885   5.631   4.241   5.070  0.7351  0.0151  0.0389
   61MOL   H16633886   5.551   4.273   5.224  0.1442  2.9102  1.4052
   61MOL   H16733887   5.640   4.592   4.688  1.2037 -1.7112  0.3389
   61MOL   H16833888   5.727   4.640   4.468  1.7079  0.2640 -3.9302
   61MOL   H16933889   5.894   4.759   4.325 -1.5641  0.7316 -0.3324
   61MOL   O17033890   5.488   4.269   4.860 -0.1241 -0.6771  0.2312
   61MOL   C17133891   5.402   4.296   4.942  0.3008  0.2180  0.4646
   61MOL   O17233892   5.427   4.317   5.073 -0.2105  0.3775  0.2586
   61MOL   C17333893   5.259   4.274   4.922  0.3108  0.5842  0.4755
   61MOL   C17433894   5.224   4.221   4.796  0.0689 -0.5651  0.0374
   61MOL   C17533895   5.085   4.192   4.771  0.1485  0.0475  0.3339
   61MOL   C17633896   5.040   4.139   4.647 -0.0614 -0.6077  1.2709
   61MOL   C17733897   4.904   4.104   4.627 -0.0923  0.1429 -0.7266
   61MOL   C17833898   4.804   4.129   4.727 -0.2693 -0.0042 -0.4170
   61MOL   C17933899   4.670   4.087   4.698  0.6455  0.7780  0.7761
   61MOL   O18033900   4.655   3.971   4.635  0.5979 -0.2783  0.1992
   61MOL   C18133901   4.520   3.922   4.607  0.6014  0.6424 -0.7356
   61MOL   C18233902   4.494   3.801   4.694  0.3528 -0.3233 -0.4401
   61MOL   O18333903   4.573   4.156   4.738  0.2764  0.2127 -0.1382
   61MOL   C18433904   4.839   4.185   4.845 -0.0893 -0.8927 -0.2775
   61MOL   C18533905   4.981   4.215   4.868 -0.0454  0.5642  0.2181
   61MOL   C18633906   5.022   4.271   4.988  0.2389 -0.1336  1.0550
   61MOL   C18733907   5.158   4.298   5.020  0.1973  0.0780  0.3641
   61MOL   H18833908   5.295   4.188   4.722  0.8703 -0.6503  0.8404
   61MOL   H18933909   5.108   4.129   4.564 -0.8521  1.1572  0.3829
   61MOL   H19033910   4.874   4.055   4.535 -1.0418  2.4493 -1.6696
   61MOL   H19133911   4.520   3.879   4.507 -2.4272 -3.3125  0.8054
   61MOL   H19233912   4.438   3.990   4.627 -1.7656 -2.6508  1.3879
   61MOL   H19333913   4.395   3.758   4.682  0.8048 -1.8030  0.9596
   61MOL   H19433914   4.561   3.722   4.661 -0.5172 -0.9519 -0.6942
   61MOL   H19533915   4.762   4.210   4.918  0.9724  0.1943  0.4817
   61MOL   H19633916   4.942   4.305   5.052 -0.2867 -0.1178  0.4044
   61MOL   H19733917   5.186   4.333   5.118  1.8841 -0.1219 -0.0347
   61MOL   O19833918   4.685   3.686   4.849 -0.0969 -0.2713 -0.6541
   61MOL   C19933919   4.627   3.784   4.895  0.0790 -0.0592  0.3517
   61MOL   O20033920   4.512   3.835   4.832  0.2251  0.0336  0.5095
   61MOL   C20133921   4.654   3.837   5.034 -0.8875  0.0746 -0.5867
   61MOL   C20233922   4.717   3.753   5.123  0.2388 -0.2400 -0.9707
   61MOL   C20333923   4.748   3.800   5.253 -0.0882 -0.1083 -0.3089
   61MOL   C20433924   4.817   3.715   5.339 -0.4841 -0.3585  0.6260
   61MOL   C20533925   4.840   3.758   5.471  0.0934  0.4598 -0.6807
   61MOL   C20633926   4.800   3.890   5.511  0.6265  0.6631  0.0470
   61MOL   C20733927   4.823   3.943   5.651 -1.1742  0.0333  0.8203
   61MOL   O20833928   4.915   3.861   5.711 -0.0240 -0.5807  0.0843
   61MOL   C20933929   4.960   3.868   5.838 -0.0786  1.0318 -0.0661
   61MOL   C21033930   5.024   4.002   5.888 -0.2772  0.0791 -0.4435
   61MOL   O21133931   4.771   4.039   5.701  0.6168  0.3502  0.0855
   61MOL   C21233932   4.727   3.966   5.420  0.6216  0.6742 -0.1167
   61MOL   C21333933   4.702   3.929   5.288 -0.1378  0.0885 -0.4872
   61MOL   C21433934   4.646   4.019   5.196 -0.1561 -0.3512  0.1250
   61MOL   C21533935   4.627   3.972   5.060  0.6935 -0.6232 -0.8699
   61MOL   H21633936   4.744   3.652   5.094  0.5924 -0.0199 -1.4132
   61MOL   H21733937   4.836   3.615   5.301  1.4605  0.3608 -0.3205
   61MOL   H21833938   4.892   3.689   5.536 -1.4116  0.7027  0.8224
   61MOL   H21933939   5.031   3.786   5.850 -2.5021 -1.1462 -0.1756
   61MOL   H22033940   4.880   3.843   5.908 -0.3165 -1.8211 -1.2767
   61MOL   H22133941   4.968   4.092   5.863 -1.2102 -0.2963  0.2639
   61MOL   H22233942   5.002   3.991   5.994 -3.6660  0.3751 -1.0591
   61MOL   H22333943   4.694   4.066   5.445  0.0495 -0.0124  1.9606
   61MOL   H22433944   4.630   4.123   5.222 -1.2121 -0.7150  0.9934
   61MOL   H22533945   4.572   4.043   5.000  0.9571  1.1806  0.9768
   61MOL   O22633946   5.148   4.139   5.685 -0.3394  0.9205  0.0022
   61MOL   C22733947   5.208   4.061   5.761 -0.7393  0.2229 -0.3936
   61MOL   O22833948   5.164   4.005   5.873 -0.2542  0.1844 -0.5082
   61MOL   C22933949   5.352   4.037   5.731  0.4507 -0.0722 -0.8693
   61MOL   C23033950   5.397   4.078   5.603  0.3958  1.1281  0.0670
   61MOL   C23133951   5.527   4.052   5.555  0.5171  0.2184  0.2286
   61MOL   C23233952   5.566   4.082   5.425 -0.3251 -0.3814  0.5165
   61MOL   C23333953   5.701   4.084   5.388 -0.6413  0.1039 -0.3713
   61MOL   C23433954   5.795   4.018   5.473 -0.1397  0.6186  0.0585
   61MOL   C23533955   5.937   4.001   5.425  1.0060  0.2895 -0.7251
   61MOL   O23633956   6.012   3.950   5.517 -0.3788 -0.1905 -0.4208
   61MOL   C23733957   6.150   3.923   5.491  0.3558  0.8663 -0.2336
   61MOL   C23833958   6.186   3.808   5.393  0.2276 -0.0261 -0.2774
   61MOL   O23933959   5.977   4.024   5.311 -0.1281 -0.1432 -0.6052
   61MOL   C24033960   5.754   3.974   5.597 -0.6337 -0.3149 -0.0634
   61MOL   C24133961   5.621   3.999   5.648 -0.2177  0.0301  0.0305
   61MOL   C24233962   5.576   3.950   5.766  0.7159  0.1317 -0.6347
   61MOL   C24333963   5.442   3.964   5.809  0.4328 -0.0379  0.7031
   61MOL   H24433964   5.332   4.125   5.530  0.4662 -0.0104 -0.7346
   61MOL   H24533965   5.497   4.103   5.344  1.3789 -3.6580 -1.9187
   61MOL   H24633966   5.733   4.107   5.287  0.7375 -0.9466 -0.1912
   61MOL   H24733967   6.198   3.887   5.582 -0.6967 -0.1641 -0.0731
   61MOL   H24833968   6.184   4.022   5.459 -0.9020  1.9599  1.7275
   61MOL   H24933969   6.143   3.712   5.420  0.1343  0.4952  1.4412
   61MOL   H25033970   6.153   3.844   5.295 -0.1372 -0.6196 -0.3727
   61MOL   H25133971   5.812   3.916   5.667 -1.0313 -3.3454 -2.1631
   61MOL   H25233972   5.645   3.889   5.823  1.0235  0.8708 -0.2157
   61MOL   H25333973   5.413   3.934   5.908  0.2216 -0.4740  0.5102
   61MOL   O25433974   6.339   3.686   5.196  0.1978 -0.2872 -0.6376
   61MOL   C25533975   6.387   3.715   5.308 -0.1935  0.0687 -0.5935
   61MOL   O25633976   6.332   3.779   5.410 -0.2077  0.1796 -0.2623
   61MOL   C25733977   6.530   3.691   5.336  0.8136 -0.0871  0.3748
   61MOL   C25833978   6.627   3.671   5.233  0.0254  0.0374 -0.2441
   61MOL   C25933979   6.758   3.627   5.267 -0.1088  0.4858 -0.6471
   61MOL   C26033980   6.850   3.598   5.161 -0.5777 -1.0449  0.6979
   61MOL   C26133981   6.973   3.542   5.200 -0.2385 -0.6794 -0.0497
   61MOL   C26233982   7.014   3.522   5.331 -1.0197 -0.0387  0.6207
   61MOL   C26333983   7.128   3.439   5.364 -0.5866  0.7302 -0.3049
   61MOL   O26433984   7.147   3.333   5.284  0.2269  0.2072  0.0468
   61MOL   C26533985   7.263   3.256   5.296  0.2720 -0.8116 -0.4288
   61MOL   C26633986   7.239   3.122   5.224 -0.4242 -0.6240 -0.7868
   61MOL   O26733987   7.197   3.461   5.467  0.9777  0.1803 -0.2097
   61MOL   C26833988   6.925   3.563   5.433  0.0937  0.3976 -0.1512
   61MOL   C26933989   6.795   3.609   5.402  0.6193  0.8519 -0.8779
   61MOL   C27033990   6.706   3.637   5.506 -0.5859 -0.7721 -0.4023
   61MOL   C27133991   6.571   3.674   5.473 -0.5550  0.4130 -0.8489
   61MOL   H27233992   6.590   3.654   5.133  1.5744 -0.9969 -0.6633
   61MOL   H27333993   6.825   3.612   5.057 -2.1445  0.8952  1.3068
   61MOL   H27433994   7.039   3.499   5.126 -1.3398  0.4137 -1.7189
   61MOL   H27533995   7.285   3.221   5.397 -0.8136 -2.1537 -0.6342
   61MOL   H27633996   7.350   3.315   5.267  0.8467 -1.1198  0.6331
   61MOL   H27733997   7.325   3.057   5.230 -1.0621 -1.4008 -0.0596
   61MOL   H27833998   7.158   3.065   5.269 -1.1357 -0.2217 -1.5360
   61MOL   H27933999   6.963   3.539   5.531 -0.4830  1.2830  0.2853
   61MOL   H28034000   6.730   3.621   5.611 -3.1885 -0.4916  0.2717
   61MOL   H28134001   6.501   3.685   5.554  1.1210  1.8241  0.4485
   61MOL   O28234002   7.439   3.164   5.045  0.0481 -0.6182  0.2948
   61MOL   C28334003   7.321   3.169   5.004  0.0758  0.3848  0.0535
   61MOL   O28434004   7.214   3.151   5.089  0.1297 -0.0291 -0.4401
   61MOL   C28534005   7.278   3.225   4.875  0.1349 -0.2245  0.0829
   61MOL   C28634006   7.372   3.300   4.801  0.0060  0.3238  0.2092
   61MOL   C28734007   7.330   3.370   4.682  0.0928 -0.0574 -0.6891
   61MOL   C28834008   7.421   3.454   4.618  0.5297  0.4526  1.4637
   61MOL   C28934009   7.381   3.522   4.499 -0.1305  0.1186  0.0846
   61MOL   C29034010   7.246   3.509   4.450 -0.1352  0.2421  0.2211
   61MOL   C29134011   7.190   3.580   4.339  0.6063 -0.0795 -1.0821
   61MOL   O29234012   7.283   3.643   4.267 -0.8209  0.3095  0.0384
   61MOL   C29334013   7.251   3.729   4.159  0.1712 -0.0677 -0.1993
   61MOL   C29434014   7.249   3.650   4.033  1.0236 -0.0277 -0.2743
   61MOL   O29534015   7.066   3.587   4.307  1.0201  0.3616 -0.1472
   61MOL   C29634016   7.155   3.429   4.526 -0.0497 -0.0514  0.2743
   61MOL   C29734017   7.193   3.363   4.641 -0.1570  0.5081  0.0400
   61MOL   C29834018   7.107   3.277   4.711 -0.0626  0.0672 -0.3944
   61MOL   C29934019   7.151   3.204   4.825  0.4712 -0.3563  0.7505
   61MOL   H30034020   7.470   3.318   4.843  0.4447 -1.5058  0.0542
   61MOL   H30134021   7.524   3.446   4.651  0.6306 -1.0499  0.8005
   61MOL   H30234022   7.451   3.579   4.440  2.2198 -1.8227  0.9377
   61MOL   H30334023   7.322   3.811   4.164 -0.5789  0.4934  2.0437
   61MOL   H30434024   7.160   3.786   4.175  1.4419  1.1567  3.0919
   61MOL   H30534025   7.164   3.584   4.015 -0.6572  1.2885  2.5372
   61MOL   H30634026   7.243   3.728   3.958  0.8665  1.3378  1.1418
   61MOL   H30734027   7.052   3.416   4.496  0.6594 -0.2823 -2.1725
   61MOL   H30834028   7.009   3.264   4.668 -0.4949  0.9578  0.3102
   61MOL   H30934029   7.077   3.145   4.877 -0.5462 -0.2389 -0.5343
   61MOL   O31034030   7.429   3.717   3.825 -0.2666  0.2026  0.0141
   61MOL   C31134031   7.453   3.622   3.907  0.2183  0.3256 -0.2195
   61MOL   O31234032   7.367   3.584   4.006 -0.0021 -0.2834 -0.1532
   61MOL   C31334033   7.581   3.550   3.901  0.0300  0.8129 -0.2568
   61MOL   C31434034   7.635   3.486   4.017 -0.2362 -0.7503  0.1271
   61MOL   C31534035   7.761   3.431   4.012  0.2465  0.2502  0.2055
   61MOL   C31634036   7.812   3.354   4.118 -0.1943  0.0300 -0.4351
   61MOL   C31734037   7.939   3.309   4.111  0.3810 -0.0059  0.4548
   61MOL   C31834038   8.021   3.331   4.000 -0.3472 -0.6374 -0.4049
   61MOL   C31934039   8.158   3.277   3.995 -0.8047  0.7134  0.8650
   61MOL   O32034040   8.217   3.277   3.869 -0.2781  0.3072  0.4613
   61MOL   C32134041   0.099   3.240   3.845  0.2000  0.2462 -0.0309
   61MOL   C32234042   0.117   3.096   3.802  0.0448 -0.3566  0.1925
   61MOL   O32334043   8.205   3.210   4.087  0.4527 -0.1222  0.1897
   61MOL   C32434044   7.971   3.403   3.887 -0.0081 -0.4644  0.6931
   61MOL   C32534045   7.839   3.450   3.895 -0.5290  0.7258  0.1797
   61MOL   C32634046   7.789   3.509   3.779  0.9852 -0.8979  0.6018
   61MOL   C32734047   7.662   3.566   3.784  0.1592 -0.9155  0.2205
   61MOL   H32834048   7.576   3.488   4.107  0.8940 -2.3859  0.9486
   61MOL   H32934049   7.747   3.330   4.202  1.3077 -0.0834  0.7205
   61MOL   H33034050   7.988   3.244   4.182  1.0643  0.0622  0.0482
   61MOL   H33134051   0.162   3.253   3.932  0.4570  0.5064 -0.2536
   61MOL   H33234052   0.138   3.300   3.763  3.7249 -2.7941 -0.7386
   61MOL   H33334053   0.072   3.023   3.869 -0.5900 -0.8345 -0.7464
   61MOL   H33434054   0.059   3.088   3.710  0.0716  2.7004 -0.1504
   61MOL   H33534055   8.026   3.418   3.795 -0.1952  0.9188  0.7980
   61MOL   H33634056   7.845   3.535   3.691  0.4680  2.7876  1.2988
   61MOL   H33734057   7.622   3.625   3.703 -0.2270 -1.5097 -0.0303
   61MOL   O33834058   0.250   2.929   3.594 -0.4072  0.0796 -0.2091
   61MOL   C33934059   0.314   3.001   3.670  0.3464  0.2470  0.2126
   61MOL   O34034060   0.261   3.070   3.773 -0.3590 -0.0964 -0.2788
   61MOL   C34134061   0.463   3.019   3.664  0.9966 -0.1158 -0.0620
   61MOL   C34234062   0.538   2.938   3.574  0.6461 -0.1775 -0.2396
   61MOL   C34334063   0.681   2.940   3.565 -0.1511 -0.2252  0.2083
   61MOL   C34434064   0.750   2.856   3.473 -0.3345 -0.0480 -0.1690
   61MOL   C34534065   0.890   2.843   3.480  0.5102 -0.3553 -0.1171
   61MOL   C34634066   0.961   2.935   3.564 -0.3011  0.0355  0.1716
   61MOL   C34734067   1.110   2.942   3.559 -0.4887  0.5511  0.3749
   61MOL   O34834068   1.159   3.072   3.567 -0.1477  0.3155 -0.0058
   61MOL   C34934069   1.300   3.096   3.558 -0.1094 -0.1518  0.0807
   61MOL   C35034070   1.377   3.053   3.684 -0.0736 -0.1829 -0.0472
   61MOL   O35134071   1.182   2.845   3.533  0.5000 -0.6308  0.2753
   61MOL   C35234072   0.895   3.019   3.655 -0.4035  0.4750  0.0538
   61MOL   C35334073   0.751   3.024   3.656  0.2409  0.6239 -0.9075
   61MOL   C35434074   0.675   3.124   3.732  1.1941 -0.3555 -0.2756
   61MOL   C35534075   0.536   3.111   3.738 -0.2282 -0.2540 -1.3687
   61MOL   H35634076   0.494   2.860   3.513  1.9477 -1.1149 -0.0088
   61MOL   H35734077   0.694   2.788   3.410 -1.3460 -1.8776  2.5715
   61MOL   H35834078   0.934   2.771   3.413 -1.7257  0.5635 -2.7276
   61MOL   H35934079   1.311   3.201   3.533  1.2003 -0.4148 -0.5069
   61MOL   H36034080   1.328   3.046   3.465 -0.4034 -0.2097  0.0216
   61MOL   H36134081   1.350   2.958   3.729 -1.2390  0.5423  0.7908
   61MOL   H36234082   1.483   3.037   3.663 -0.3332 -2.7393  0.4030
   61MOL   H36334083   0.955   3.081   3.720  1.9580  0.8431 -2.3966
   61MOL   H36434084   0.724   3.190   3.802 -1.3090  1.9236 -0.5868
   61MOL   H36534085   0.479   3.177   3.801  1.3489  1.5113 -1.7538
   61MOL   O36634086   1.180   3.112   3.856  0.2623 -0.2765  0.0064
   61MOL   C36734087   1.279   3.184   3.857 -0.7467 -0.1787  0.2022
   61MOL   O36834088   1.384   3.159   3.776  0.1346  0.3791 -0.2018
   61MOL   C36934089   1.288   3.306   3.937 -0.4864  0.1249 -0.8577
   61MOL   C37034090   1.408   3.390   3.940  0.1691 -0.5636  0.9121
   61MOL   C37134091   1.409   3.501   4.031  0.0457  0.6805  0.3250
   61MOL   C37234092   1.527   3.580   4.034  0.1736  0.0322  0.2092
   61MOL   C37334093   1.529   3.687   4.125  0.0738 -0.1214 -0.1902
   61MOL   C37434094   1.415   3.720   4.201  0.2458 -0.1861 -0.4442
   61MOL   C37534095   1.419   3.822   4.304  0.2089 -0.7315 -0.5508
   61MOL   O37634096   1.325   3.797   4.402 -0.4775 -0.5368  0.0170
   61MOL   C37734097   1.287   3.906   4.485  0.5048  0.2838 -0.8317
   61MOL   C37834098   1.386   3.934   4.600  0.0377 -0.2000  0.1975
   61MOL   O37934099   1.497   3.916   4.311  0.4183  0.1470  0.6401
   61MOL   C38034100   1.295   3.648   4.186  0.1996  0.5696  0.7480
   61MOL   C38134101   1.292   3.530   4.106  0.2177 -0.0135  0.3775
   61MOL   C38234102   1.175   3.457   4.096  0.2738  0.0224 -0.5858
   61MOL   C38334103   1.176   3.345   4.016 -0.2510  0.0560  0.0283
   61MOL   H38434104   1.501   3.367   3.891  0.0822 -1.1763  1.0285
   61MOL   H38534105   1.613   3.565   3.971  0.5456  1.3334  0.3989
   61MOL   H38634106   1.620   3.742   4.141 -0.9277  1.5955 -0.2218
   61MOL   H38734107   1.189   3.880   4.526  1.3680 -0.4409  0.8243
   61MOL   H38834108   1.265   3.991   4.420  0.6615  1.2976  0.4230
   61MOL   H38934109   1.330   3.971   4.686 -1.5279  2.1046 -1.7197
   61MOL   H39034110   1.435   3.842   4.632 -0.7473 -0.9661 -0.7978
   61MOL   H39134111   1.205   3.663   4.244 -0.0333 -0.8845  0.7750
   61MOL   H39234112   1.093   3.489   4.158 -0.0638 -2.8485  0.5047
   61MOL   H39334113   1.089   3.281   4.028 -0.3086  0.1058 -0.1173
   61MOL   O39434114   1.340   4.215   4.602 -0.0514  0.0691 -0.2018
   61MOL   C39534115   1.449   4.168   4.573 -0.2619  0.5752 -0.3817
   61MOL   O39634116   1.482   4.034   4.573 -0.4801 -1.1897  0.3840
   61MOL   C39734117   1.562   4.261   4.537 -0.4507 -0.3988  0.1012
   61MOL   C39834118   1.689   4.210   4.509 -1.5545 -0.2482 -1.0165
   61MOL   C39934119   1.795   4.293   4.466 -0.2285 -1.1977  0.0604
   61MOL   C40034120   1.923   4.242   4.440  0.2666  0.2008  0.0981
   61MOL   C40134121   2.031   4.319   4.398  0.2431 -0.5460 -0.8404
   61MOL   C40234122   2.014   4.459   4.402 -0.0362 -0.0631  0.2462
   61MOL   C40334123   2.134   4.549   4.383  0.1080  0.3269 -0.1965
   61MOL   O40434124   2.254   4.483   4.394  0.2732  0.0936  0.0392
   61MOL   C40534125   2.379   4.558   4.405 -0.4170  0.1503 -0.9090
   61MOL   C40634126   2.407   4.578   4.554  0.2517 -0.3184  0.0287
   61MOL   O40734127   2.124   4.671   4.370 -0.1242  0.3691  0.0625
   61MOL   C40834128   1.886   4.515   4.426 -0.0345  0.3887 -0.0317
   61MOL   C40934129   1.776   4.434   4.457  0.1486 -0.2896 -0.4088
   61MOL   C41034130   1.649   4.490   4.484 -0.3667  0.6371 -0.1488
   61MOL   C41134131   1.545   4.401   4.526 -0.3310 -0.0433 -0.8231
   61MOL   H41234132   1.716   4.106   4.524  0.6399  0.5347  0.7565
   61MOL   H41334133   1.951   4.140   4.458 -0.8549  0.1523  1.6429
   61MOL   H41434134   2.133   4.284   4.394 -0.1794 -2.2315  2.0364
   61MOL   H41534135   2.361   4.653   4.355 -0.1632  0.4155 -0.4972
   61MOL   H41634136   2.459   4.495   4.366 -1.3513 -1.5504 -0.1682
   61MOL   H41734137   2.453   4.490   4.599  1.2378 -0.6724 -1.6084
   61MOL   H41834138   2.488   4.648   4.571  0.4176 -0.3624 -0.5638
   61MOL   H41934139   1.865   4.619   4.447 -2.2145 -0.0145 -0.0672
   61MOL   H42034140   1.634   4.597   4.488  1.8399  0.9224  1.3163
   61MOL   H42134141   1.447   4.445   4.537  0.2004  1.2541 -1.1249
   61MOL   O42234142   2.361   4.810   4.685  0.2037 -0.3182 -0.0342
   61MOL   C42334143   2.265   4.727   4.693 -0.4647  0.4021  0.1859
   61MOL   O42434144   2.282   4.605   4.627  0.0719 -0.3456  0.5640
   61MOL   C42534145   2.132   4.755   4.761 -0.1468 -0.1525  0.8585
   61MOL   C42634146   2.113   4.868   4.843  0.2916 -0.3692  0.4817
   61MOL   C42734147   1.987   4.892   4.910 -0.8281 -0.3272 -0.3572
   61MOL   C42834148   1.993   4.998   5.000 -0.2287 -0.2139  0.3283
   61MOL   C42934149   1.875   5.032   5.074  0.3814 -0.8214  0.1935
   61MOL   C43034150   1.760   4.951   5.048 -0.0115  0.6467 -0.0654
   61MOL   C43134151   1.627   4.989   5.118  0.0442  0.1974  0.5498
   61MOL   O43234152   1.628   5.120   5.166 -0.2070 -0.2018  0.5146
   61MOL   C43334153   1.542   5.159   5.260  0.3831 -0.4863  0.3631
   61MOL   C43434154   1.583   5.132   5.404  0.1837  0.2450 -0.5467
   61MOL   O43534155   1.527   4.921   5.110  0.4080 -0.5197 -0.3085
   61MOL   C43634156   1.756   4.849   4.950  0.6591 -0.2161 -0.0828
   61MOL   C43734157   1.875   4.813   4.892 -0.0429  0.3028 -0.6158
   61MOL   C43834158   1.889   4.701   4.806 -0.6521 -0.4922  0.2249
   61MOL   C43934159   2.018   4.669   4.748 -0.7881 -0.2149  0.5402
   61MOL   H44034160   2.187   4.946   4.856 -2.2391  2.4780 -1.4420
   61MOL   H44134161   2.084   5.051   5.024  0.7694  0.1123 -3.8127
   61MOL   H44234162   1.873   5.115   5.144  0.5938  0.7879 -1.6795
   61MOL   H44334163   1.443   5.117   5.242  0.0865  1.0177 -1.5840
   61MOL   H44434164   1.535   5.267   5.245  1.4488 -0.6375 -1.3790
   61MOL   H44534165   1.511   5.165   5.479  1.3090  0.7333  0.3273
   61MOL   H44634166   1.580   5.024   5.418  0.3703  0.2993 -0.0703
   61MOL   H44734167   1.660   4.803   4.928  0.0021  0.9556  0.2971
   61MOL   H44834168   1.800   4.645   4.782  0.1829 -3.1863  3.1186
   61MOL   H44934169   2.024   4.583   4.683  3.3375 -0.9143  1.7367
   61MOL   O45034170   1.624   5.403   5.465  0.1069 -0.3424 -0.1036
   61MOL   C45134171   1.723   5.323   5.447 -0.0741  0.2519  1.2817
   61MOL   O45234172   1.711   5.191   5.419  0.0615 -0.5879 -0.4824
   61MOL   C45334173   1.864   5.377   5.439 -0.5275 -0.2101 -0.2763
   61MOL   C45434174   1.966   5.298   5.382  1.3103  0.1480  0.2172
   61MOL   C45534175   2.091   5.348   5.380 -0.0638 -0.1421  0.1446
   61MOL   C45634176   2.189   5.280   5.309  0.1576 -0.4808 -0.3693
   61MOL   C45734177   2.327   5.325   5.317  0.0066  1.1197 -0.6099
   61MOL   C45834178   2.361   5.446   5.385  0.1582 -0.0086 -0.1973
   61MOL   C45934179   2.499   5.487   5.381 -0.3252 -0.4727 -0.0971
   61MOL   O46034180   2.527   5.552   5.490 -0.3700 -0.2272  0.1287
   61MOL   C46134181   2.672   5.558   5.525  0.1351  0.2371  0.5168
   61MOL   C46234182   2.751   5.654   5.436 -0.0064  1.0487 -0.4859
   61MOL   O46334183   2.580   5.449   5.298 -0.3092 -0.4072 -0.8745
   61MOL   C46434184   2.260   5.518   5.449  0.0930  0.2034  1.0337
   61MOL   C46534185   2.126   5.473   5.446  0.3460  0.2116 -0.3449
   61MOL   C46634186   2.027   5.552   5.498  0.1765 -0.0342 -0.6685
   61MOL   C46734187   1.895   5.501   5.495  0.4319  0.5328 -0.2166
   61MOL   H46834188   1.944   5.200   5.341 -0.0779  0.4987  0.1033
   61MOL   H46934189   2.161   5.203   5.239 -0.3326  2.2149 -3.2534
   61MOL   H47034190   2.400   5.272   5.258 -0.4234 -2.8898  2.3042
   61MOL   H47134191   2.729   5.466   5.513 -0.0706  0.3064 -1.1485
   61MOL   H47234192   2.677   5.583   5.631  0.2723 -1.2493  0.8663
   61MOL   H47334193   2.855   5.621   5.431 -0.9155 -1.6291 -3.1847
   61MOL   H47434194   2.714   5.658   5.334 -0.0263  3.9124 -0.4181
   61MOL   H47534195   2.283   5.604   5.510 -1.2007 -0.3420  2.3253
   61MOL   H47634196   2.046   5.648   5.545  0.5785  0.9822 -2.8632
   61MOL   H47734197   1.817   5.554   5.548  1.9276  1.1804  1.3665
   61MOL   O47834198   2.841   5.887   5.324  0.6514  0.2936  0.0433
   61MOL   C47934199   2.797   5.891   5.442 -0.0159 -0.2008  0.7012
   61MOL   O48034200   2.749   5.779   5.499 -0.0003  0.0667 -0.6465
   61MOL   C48134201   2.805   5.996   5.544 -0.2526 -0.1651  0.4043
   61MOL   C48234202   2.908   6.092   5.521  0.3713 -0.1262  0.1838
   61MOL   C48334203   2.916   6.201   5.606  0.0883  1.2559  0.2054
   61MOL   C48434204   3.008   6.301   5.579  0.2660  0.7458 -0.1145
   61MOL   C48534205   3.029   6.407   5.673  0.2115 -0.0799 -0.0449
   61MOL   C48634206   2.945   6.412   5.786  0.3017 -0.2877 -0.3149
   61MOL   C48734207   2.975   6.504   5.894 -0.5896 -0.0632  0.4602
   61MOL   O48834208   2.919   6.469   6.020  0.3033 -0.6575  0.0877
   61MOL   C48934209   2.959   6.550   6.136  0.2217  0.2594 -0.7710
   61MOL   C49034210   3.044   6.469   6.233 -0.1853  0.2648  0.0604
   61MOL   O49134211   3.047   6.597   5.874  0.2132  0.0037  0.2188
   61MOL   C49234212   2.840   6.319   5.804 -0.2748  0.4189  0.6056
   61MOL   C49334213   2.824   6.215   5.707 -0.1645  0.2023  0.5078
   61MOL   C49434214   2.719   6.125   5.728 -0.5986  0.9030 -0.5227
   61MOL   C49534215   2.709   6.010   5.646 -0.0457 -0.6953 -0.4645
   61MOL   H49634216   2.976   6.081   5.438 -0.5265 -1.6495 -0.3580
   61MOL   H49734217   3.073   6.296   5.493  2.3580 -3.4648  1.5245
   61MOL   H49834218   3.108   6.479   5.660 -0.3498  0.7395  1.0698
   61MOL   H49934219   2.868   6.582   6.187  1.6204  0.1305  1.8743
   61MOL   H50034220   3.011   6.641   6.105 -0.1086  0.9316  0.6224
   61MOL   H50134221   3.049   6.529   6.325  1.6560 -0.2997  0.3589
   61MOL   H50234222   2.989   6.376   6.245 -0.8886  0.9624  2.5630
   61MOL   H50334223   2.760   6.326   5.876 -0.1397  1.5803  0.6544
   61MOL   H50434224   2.658   6.129   5.818 -0.3966 -1.1110 -0.2870
   61MOL   H50534225   2.635   5.931   5.655 -1.6619  0.9649  1.2062
   61MOL   O50634226   3.248   6.446   6.412  0.1961 -0.4636 -0.0413
   61MOL   C50734227   3.274   6.438   6.292 -0.2148  0.5897 -0.0195
   61MOL   O50834228   3.179   6.447   6.198 -0.9862 -0.1821 -0.5426
   61MOL   C50934229   3.411   6.432   6.238 -0.7113 -0.1980  1.0378
   61MOL   C51034230   3.444   6.331   6.143 -0.0579 -0.0294 -0.7493
   61MOL   C51134231   3.565   6.336   6.075 -0.7935  1.0316  0.0511
   61MOL   C51234232   3.585   6.237   5.981  0.4905  0.1390 -0.0596
   61MOL   C51334233   3.710   6.236   5.922  0.1046 -0.0776  0.1888
   61MOL   C51434234   3.811   6.334   5.943 -0.1176  0.1535 -0.0998
   61MOL   C51534235   3.931   6.347   5.848 -0.1891 -0.4759 -0.2394
   61MOL   O51634236   3.925   6.259   5.749  0.4281  0.5666  0.0477
   61MOL   C51734237   4.010   6.264   5.644  0.6740  0.4638  0.1376
   61MOL   C51834238   4.155   6.227   5.668 -0.5759  0.6017 -0.2469
   61MOL   O51934239   4.022   6.429   5.861  0.3915 -0.4156 -0.0952
   61MOL   C52034240   3.782   6.439   6.028  0.5441  0.3481 -0.5559
   61MOL   C52134241   3.668   6.433   6.107 -0.1399 -1.1565 -0.6879
   61MOL   C52234242   3.636   6.522   6.207  0.7587 -0.9919  0.1671
   61MOL   C52334243   3.515   6.518   6.280 -0.2542 -0.4837 -0.0876
   61MOL   H52434244   3.365   6.267   6.108 -1.3304  1.3021 -0.3923
   61MOL   H52534245   3.514   6.161   5.954  2.0589 -1.2593 -0.2833
   61MOL   H52634246   3.725   6.159   5.848  0.3441 -0.6317  0.8113
   61MOL   H52734247   4.000   6.360   5.593 -1.0111  0.1073 -0.2246
   61MOL   H52834248   3.964   6.188   5.580 -0.5036  2.6213 -1.6257
   61MOL   H52934249   4.207   6.212   5.574  0.0751 -1.0085  0.3390
   61MOL   H53034250   4.205   6.314   5.709 -1.3489  1.1890 -0.5458
   61MOL   H53134251   3.854   6.516   6.052  0.1059  0.2594  1.0660
   61MOL   H53234252   3.712   6.590   6.242 -0.2871 -1.1493  2.8771
   61MOL   H53334253   3.500   6.576   6.370 -2.8962 -0.5989 -0.4292
   61MOL   O53434254   4.396   6.095   5.702 -0.1225 -0.1116 -0.2474
   61MOL   C53534255   4.289   6.046   5.741  0.1118  1.2218 -0.8400
   61MOL   O53634256   4.181   6.115   5.751  0.4480 -0.1787  0.1469
   61MOL   C53734257   4.268   5.901   5.783 -0.3854 -0.1953 -0.2046
   61MOL   C53834258   4.373   5.803   5.763  0.6975  0.4279 -0.2173
   61MOL   C53934259   4.349   5.671   5.788  0.0057  0.6808  0.5783
   61MOL   C54034260   4.451   5.576   5.760 -1.3223  0.5051  0.0141
   61MOL   C54134261   4.430   5.436   5.782  0.0681  0.1227  0.0924
   61MOL   C54234262   4.305   5.392   5.838  0.4344  0.0137  0.0541
   61MOL   C54334263   4.294   5.246   5.877  0.2878 -0.3470  0.4751
   61MOL   O54434264   4.395   5.176   5.828 -0.7241  0.3683 -0.1293
   61MOL   C54534265   4.402   5.039   5.862  0.0483 -0.4141 -0.0430
   61MOL   C54634266   4.549   5.006   5.846  0.1487 -0.2528 -0.1601
   61MOL   O54734267   4.199   5.197   5.937  0.4037 -0.3897 -0.2014
   61MOL   C54834268   4.202   5.489   5.863 -0.0436  0.6541 -0.3575
   61MOL   C54934269   4.229   5.629   5.838  0.4606 -0.6305 -0.3236
   61MOL   C55034270   4.130   5.722   5.876  0.3672 -0.4062  0.0836
   61MOL   C55134271   4.156   5.860   5.846  0.0389 -0.4405  0.4878
   61MOL   H55234272   4.467   5.835   5.720  0.5845 -0.4718 -1.1768
   61MOL   H55334273   4.544   5.611   5.719 -1.4977  0.1215 -0.7143
   61MOL   H55434274   4.515   5.371   5.770 -1.2435 -1.6355  0.0024
   61MOL   H55534275   4.340   4.988   5.788  0.3394  0.3794 -0.8475
   61MOL   H55634276   4.367   5.027   5.964  0.5329 -0.5580  0.1121
   61MOL   H55734277   4.615   5.060   5.914  0.0939 -0.6446  0.2047
   61MOL   H55834278   4.571   5.034   5.743  2.3250  3.7320  1.2587
   61MOL   H55934279   4.105   5.466   5.904  0.0460 -0.5238 -0.7770
   61MOL   H56034280   4.036   5.701   5.925  0.9714 -2.8676  0.2523
   61MOL   H56134281   4.076   5.929   5.866  0.9578  0.8414 -0.2475
   61MOL   H56234282   4.566   4.899   5.859 -0.1099 -0.5169 -1.9179
   62MOL     O134283   1.420   6.387   0.669  0.0104  0.2594  0.3592
   62MOL     C234284   1.347   6.484   0.673  0.0963  0.1603  0.4024
   62MOL     O334285   1.279   6.528   0.780 -0.1266  0.2471  0.3162
   62MOL     C434286   1.335   6.581   0.563  0.3550 -0.4995  0.2947
   62MOL     C534287   1.232   6.680   0.568 -0.1558 -0.1505 -0.5330
   62MOL     C634288   1.234   6.801   0.492 -0.2049  0.8552 -0.5585
   62MOL     C734289   1.147   6.906   0.520  1.0299  0.3192  1.1744
   62MOL     C834290   1.169   7.027   0.458 -0.1624 -0.7915 -0.0236
   62MOL     C934291   1.275   7.036   0.366 -0.8857 -1.0236  0.5394
   62MOL    C1034292   1.312   7.171   0.307  0.1175  0.7225 -0.5164
   62MOL    O1134293   1.277   7.271   0.387 -0.5703  0.2482 -0.4572
   62MOL    C1234294   1.313   7.400   0.349 -0.6824 -0.8917 -0.2898
   62MOL    C1334295   1.221   7.490   0.426  0.3950 -0.1826  0.2357
   62MOL    O1434296   1.371   7.181   0.200 -0.1936  0.1084 -0.1251
   62MOL    C1534297   1.349   6.924   0.327 -0.2609 -0.1143 -0.0955
   62MOL    C1634298   1.337   6.805   0.397  0.3783  0.1246  0.4220
   62MOL    C1734299   1.421   6.700   0.369  0.2945 -0.2335 -1.1048
   62MOL    C1834300   1.429   6.593   0.456  0.1031  0.0211 -0.2408
   62MOL    H1934301   1.158   6.673   0.646  0.0787 -0.4218 -0.3333
   62MOL    H2034302   1.068   6.905   0.594  1.4316  4.2894  1.7748
   62MOL    H2134303   1.103   7.111   0.476 -1.9750 -2.6672  2.3897
   62MOL    H2234304   1.412   7.420   0.391 -1.0189  0.2869 -0.0668
   62MOL    H2334305   1.318   7.424   0.243 -0.5901 -1.1717 -0.3510
   62MOL    H2434306   1.210   7.592   0.390  0.8455 -0.6303 -1.2104
   62MOL    H2534307   1.118   7.453   0.424 -0.3703  1.8292  1.1571
   62MOL    H2634308   1.427   6.940   0.254  0.8182  2.8558  1.6012
   62MOL    H2734309   1.486   6.708   0.284 -0.9083  1.7530 -1.8799
   62MOL    H2834310   1.497   6.511   0.436 -0.9410 -0.9275  0.0379
   62MOL    H2934311   1.308   6.482   0.857 -1.8281  0.3052  1.0066
   62MOL    O3034312   1.112   7.335   0.634  0.6225 -0.2327  0.3006
   62MOL    C3134313   1.206   7.406   0.656 -0.4332 -0.2850  0.3496
   62MOL    O3234314   1.261   7.497   0.567  0.2228 -0.0029 -0.1027
   62MOL    C3334315   1.277   7.396   0.784  0.1656  0.0579  0.2508
   62MOL    C3434316   1.214   7.336   0.899  0.5906 -0.1680  0.1760
   62MOL    C3534317   1.276   7.329   1.022 -0.3648 -0.8302 -0.4720
   62MOL    C3634318   1.216   7.274   1.137 -0.1134  0.1465  0.5959
   62MOL    C3734319   1.280   7.276   1.259 -0.1998  0.2981 -0.2631
   62MOL    C3834320   1.407   7.343   1.271  0.3341 -0.0042 -0.2886
   62MOL    C3934321   1.476   7.363   1.406  0.0518 -0.5597  0.1044
   62MOL    O4034322   1.427   7.281   1.509 -0.1868 -0.0877  0.2906
   62MOL    C4134323   1.478   7.281   1.638 -0.3559 -0.0214  0.0548
   62MOL    C4234324   1.369   7.242   1.729  0.3559 -0.2905 -0.0668
   62MOL    O4334325   1.544   7.460   1.430  0.7150  0.9791 -0.1164
   62MOL    C4434326   1.470   7.394   1.155 -0.1321  0.0136  0.2577
   62MOL    C4534327   1.406   7.384   1.028  0.2057  0.2441 -1.1443
   62MOL    C4634328   1.481   7.433   0.919  0.3875  0.0632 -0.6292
   62MOL    C4734329   1.409   7.441   0.798  0.4147 -0.0660 -0.1857
   62MOL    H4834330   1.118   7.288   0.896  2.0722 -3.1693 -0.8621
   62MOL    H4934331   1.123   7.219   1.145  1.7997 -3.0150  2.3950
   62MOL    H5034332   1.235   7.224   1.342 -1.3340 -0.3266 -1.2578
   62MOL    H5134333   1.537   7.369   1.666 -0.3539 -0.6633  2.2025
   62MOL    H5234334   1.561   7.210   1.647 -0.5231 -0.1384  0.7162
   62MOL    H5334335   1.295   7.181   1.676  1.3628 -0.6431 -1.0788
   62MOL    H5434336   1.413   7.172   1.801  0.0868 -0.3009  0.0906
   62MOL    H5534337   1.570   7.435   1.164  0.2843 -1.0081  0.3473
   62MOL    H5634338   1.586   7.459   0.921  0.3093  0.7891 -3.9035
   62MOL    H5734339   1.462   7.482   0.714 -1.7658 -0.6415 -1.8958
   62MOL    O5834340   1.182   7.387   1.595 -0.5695  0.8255  0.2541
   62MOL    C5934341   1.211   7.420   1.711 -0.0813 -0.6840 -0.6160
   62MOL    O6034342   1.310   7.360   1.788 -0.2076  0.1399  0.2480
   62MOL    C6134343   1.156   7.533   1.783 -0.4085 -0.7890 -0.4987
   62MOL    C6234344   1.086   7.642   1.716 -0.1057 -0.4418  0.5360
   62MOL    C6334345   1.020   7.744   1.786  0.6907 -0.1343 -0.1974
   62MOL    C6434346   0.957   7.853   1.724  0.3546  0.0709 -0.0713
   62MOL    C6534347   0.893   7.948   1.794  0.3340  0.3278 -0.3504
   62MOL    C6634348   0.881   7.939   1.936 -0.3375 -0.4948  0.4713
   62MOL    C6734349   0.817   8.046   2.016  0.4893  0.3678  0.0526
   62MOL    O6834350   0.780   8.144   1.935  0.3605 -0.0948  0.2591
   62MOL    C6934351   0.707   0.001   1.994 -0.0817 -0.5839  0.0529
   62MOL    C7034352   0.554   8.226   1.987 -0.3848  0.0212 -0.1239
   62MOL    O7134353   0.785   8.038   2.133  0.1094 -0.0393 -0.0992
   62MOL    C7234354   0.941   7.825   2.005 -0.5020  0.2093 -0.0197
   62MOL    C7334355   1.014   7.736   1.923 -0.8450  0.0148  0.4287
   62MOL    C7434356   1.085   7.634   1.992  0.4569  0.2449 -0.6151
   62MOL    C7534357   1.149   7.531   1.925  0.0510 -0.6019  0.0800
   62MOL    H7634358   1.088   7.641   1.608 -1.0744  1.7447  0.4747
   62MOL    H7734359   0.949   7.838   1.618  0.2018 -0.8682  0.0748
   62MOL    H7834360   0.844   8.030   1.743 -1.2815  0.0171  0.6648
   62MOL    H7934361   0.738   0.094   1.948 -0.5957 -0.5826 -0.2986
   62MOL    H8034362   0.736   0.018   2.097 -0.4744  0.8314 -0.0631
   62MOL    H8134363   0.508   0.018   1.897  0.4832 -0.3871 -0.7616
   62MOL    H8234364   0.528   8.120   1.995 -1.3427  0.4493  3.2272
   62MOL    H8334365   0.933   7.809   2.111 -0.6846 -1.5467 -0.2875
   62MOL    H8434366   1.081   7.641   2.100 -0.2123 -1.3695 -0.5230
   62MOL    H8534367   1.200   7.457   1.985 -1.8062 -0.2274  2.1921
   62MOL    O8634368   0.374   0.192   1.982  0.5976 -0.2774 -0.0105
   62MOL    C8734369   0.397   0.129   2.091  0.1371 -0.2872  0.6643
   62MOL    O8834370   0.494   0.033   2.105 -0.0735 -0.2100 -0.1791
   62MOL    C8934371   0.323   0.151   2.220  0.3634 -0.7783 -0.4353
   62MOL    C9034372   0.219   0.247   2.216 -0.6482  0.0865 -0.9340
   62MOL    C9134373   0.148   0.281   2.334  0.1686 -0.0201  0.5229
   62MOL    C9234374   0.057   0.386   2.328  0.2423  0.2320  0.4680
   62MOL    C9334375   0.009   0.441   2.443 -0.8022  0.2006  0.3872
   62MOL    C9434376   0.036   0.382   2.568 -0.2145 -0.4409  0.0312
   62MOL    C9534377   8.207   0.428   2.687  0.1965  0.3840 -0.0117
   62MOL    O9634378   8.112   0.522   2.660 -0.0775  0.2069  0.0466
   62MOL    C9734379   8.024   0.558   2.762  0.1384  0.4486 -0.8755
   62MOL    C9834380   7.918   0.655   2.700  0.2553  0.5189 -0.0587
   62MOL    O9934381   8.229   0.385   2.800 -0.8401  0.0128 -0.5205
   62MOL   C10034382   0.124   0.276   2.575  0.7371 -0.7630 -0.3520
   62MOL   C10134383   0.181   0.230   2.461 -0.4356  0.1473  0.0189
   62MOL   C10234384   0.276   0.128   2.462 -0.3784 -0.1312 -0.4356
   62MOL   C10334385   0.354   0.083   2.344  1.0215 -0.0992 -0.3196
   62MOL   H10434386   0.191   0.289   2.120 -0.2585  0.8375 -0.7232
   62MOL   H10534387   0.023   0.425   2.233  1.1254  1.2936  0.5743
   62MOL   H10634388   8.189   0.522   2.429 -0.4632  0.1970 -1.4606
   62MOL   H10734389   8.074   0.614   2.841 -2.1478  1.4953 -0.1260
   62MOL   H10834390   7.979   0.469   2.807  0.0424  0.8115 -0.2351
   62MOL   H10934391   7.986   0.726   2.652 -0.9580  2.1532  0.6035
   62MOL   H11034392   7.860   0.626   2.612  0.2946 -0.8064  0.3303
   62MOL   H11134393   0.151   0.233   2.670  2.7774 -1.4621 -1.2178
   62MOL   H11234394   0.312   0.089   2.556  2.0056  3.1540  0.1086
   62MOL   H11334395   0.427   0.004   2.339  1.2011  0.0822 -0.5462
   62MOL   O11434396   7.687   0.588   2.811  0.0356 -0.0395  0.7452
   62MOL   C11534397   7.734   0.697   2.844  0.2900 -0.4140  0.5636
   62MOL   O11634398   7.849   0.745   2.787  0.3283  0.4809  0.2847
   62MOL   C11734399   7.661   0.782   2.945 -0.2320  0.7873  0.3569
   62MOL   C11834400   7.533   0.746   2.991 -0.0700 -0.8126  0.3259
   62MOL   C11934401   7.473   0.822   3.095 -0.7597 -0.9930  0.4051
   62MOL   C12034402   7.343   0.786   3.134  0.6846  0.1329 -0.1567
   62MOL   C12134403   7.276   0.869   3.223 -0.1137 -1.1659 -0.4516
   62MOL   C12234404   7.337   0.989   3.265  0.0196  0.4598 -0.1159
   62MOL   C12334405   7.268   1.074   3.363  0.1940 -0.2472 -0.1008
   62MOL   O12434406   7.168   1.011   3.432  0.2994  0.4238 -0.0997
   62MOL   C12534407   7.094   1.090   3.528 -0.0719 -0.7055  0.1359
   62MOL   C12634408   7.014   1.208   3.467  0.6898 -0.5323  0.4670
   62MOL   O12734409   7.310   1.188   3.397  0.0116 -0.5229  0.3204
   62MOL   C12834410   7.468   1.025   3.229 -0.3157 -0.1681  0.0111
   62MOL   C12934411   7.537   0.940   3.142  0.2290 -0.5534 -0.0220
   62MOL   C13034412   7.668   0.982   3.094  0.0609  0.4404  0.4517
   62MOL   C13134413   7.729   0.893   3.000  0.0850 -0.3381 -0.2786
   62MOL   H13234414   7.490   0.654   2.954 -0.6343 -0.6827  0.6552
   62MOL   H13334415   7.290   0.701   3.093 -2.0616  1.9388 -0.4855
   62MOL   H13434416   7.174   0.847   3.253  0.7348 -1.4627  2.3717
   62MOL   H13534417   7.160   1.125   3.607 -0.7672 -2.8723  1.7562
   62MOL   H13634418   7.032   1.016   3.579  0.3495 -0.6816  0.6982
   62MOL   H13734419   6.992   1.280   3.546  1.5369 -1.0461  1.1842
   62MOL   H13834420   7.065   1.255   3.383  0.9239  0.8987  1.3861
   62MOL   H13934421   7.522   1.115   3.253 -1.0186  0.1223  0.5231
   62MOL   H14034422   7.707   1.078   3.123  1.3386  1.1699 -3.3718
   62MOL   H14134423   7.824   0.930   2.966  0.1145  1.4791  1.6161
   62MOL   O14234424   6.954   1.083   3.234 -0.4233  0.1463  0.0240
   62MOL   C14334425   6.863   1.085   3.318 -0.5281 -1.2545 -0.6673
   62MOL   O14434426   6.882   1.150   3.436 -0.6699 -0.2190 -0.0206
   62MOL   C14534427   6.733   1.015   3.314  0.4609  0.0730  0.5987
   62MOL   C14634428   6.664   0.997   3.191  0.1040  0.4171 -0.3801
   62MOL   C14734429   6.542   0.925   3.189 -0.2623  0.3943 -0.1148
   62MOL   C14834430   6.476   0.898   3.067 -0.1378 -0.2836 -0.1180
   62MOL   C14934431   6.361   0.810   3.061 -0.3955  0.4439  0.6431
   62MOL   C15034432   6.322   0.746   3.180 -1.1266  0.4191  0.2310
   62MOL   C15134433   6.216   0.646   3.182  0.7040 -0.6038 -0.3789
   62MOL   O15234434   6.158   0.623   3.069 -0.1464  0.2393  0.2542
   62MOL   C15334435   6.057   0.529   3.058 -0.2265 -0.0106  0.7824
   62MOL   C15434436   6.112   0.392   3.019 -0.2010  0.4216 -0.1741
   62MOL   O15534437   6.169   0.610   3.288 -0.1614 -0.6458 -0.5175
   62MOL   C15634438   6.386   0.780   3.299  0.4932 -0.4761  0.1223
   62MOL   C15734439   6.500   0.868   3.305  0.5039 -0.3971 -0.5812
   62MOL   C15834440   6.563   0.888   3.429  0.4339  0.3018 -0.0164
   62MOL   C15934441   6.687   0.956   3.432 -0.0656 -0.1746  0.1493
   62MOL   H16034442   6.707   1.048   3.106 -0.3759  2.4900  0.5788
   62MOL   H16134443   6.504   0.948   2.975 -1.3258 -1.0794 -0.9362
   62MOL   H16234444   6.308   0.793   2.969  0.5231 -0.1144  0.2107
   62MOL   H16334445   5.982   0.562   2.986  1.2767 -1.0244 -1.3067
   62MOL   H16434446   5.988   0.520   3.142 -0.9022 -0.7382  0.1690
   62MOL   H16534447   6.041   0.311   3.002  2.1706 -1.6762 -0.2871
   62MOL   H16634448   6.163   0.390   2.922 -0.6037  0.4105 -0.3888
   62MOL   H16734449   6.351   0.741   3.394 -2.1230  1.0333 -0.1794
   62MOL   H16834450   6.527   0.825   3.508 -0.1009 -0.0266 -0.5183
   62MOL   H16934451   6.741   0.966   3.525  0.8332 -1.0358 -0.2668
   62MOL   O17034452   6.061   0.153   3.170 -0.2957 -0.3774  0.0013
   62MOL   C17134453   6.157   0.231   3.195  0.1563  0.2439 -0.5676
   62MOL   O17234454   6.189   0.337   3.120  0.2352 -0.0283 -0.1271
   62MOL   C17334455   6.258   0.220   3.305  0.2560  0.0135  0.1654
   62MOL   C17434456   6.343   0.326   3.330 -0.0285 -0.3209 -0.1485
   62MOL   C17534457   6.447   0.306   3.414 -0.7100  0.0267 -0.1205
   62MOL   C17634458   6.533   0.418   3.437  0.0942 -0.3034  0.5138
   62MOL   C17734459   6.653   0.402   3.513  0.1655 -0.8003  0.5850
   62MOL   C17834460   6.680   0.280   3.579 -0.4215  0.2139  0.2668
   62MOL   C17934461   6.806   0.254   3.661  0.3719  0.5265  0.3334
   62MOL   O18034462   6.778   0.188   3.773  0.1028 -0.0598 -0.2108
   62MOL   C18134463   6.873   0.145   3.861  0.0673  0.1048 -0.3572
   62MOL   C18234464   6.922   0.010   3.824 -0.2653 -0.6189 -0.3226
   62MOL   O18334465   6.914   0.297   3.625 -0.4993 -0.1413 -0.6849
   62MOL   C18434466   6.584   0.175   3.562 -0.1213  0.0829  0.0351
   62MOL   C18534467   6.471   0.186   3.486  0.9470  0.5510 -0.0445
   62MOL   C18634468   6.386   0.079   3.458  0.0755  0.9109 -0.2900
   62MOL   C18734469   6.281   0.099   3.368 -0.5088 -0.2087  0.2581
   62MOL   H18834470   6.327   0.428   3.297  0.6251  0.0677  0.6999
   62MOL   H18934471   6.504   0.509   3.386 -0.9806 -0.6590  0.4814
   62MOL   H19034472   6.722   0.485   3.526  1.3702 -1.7650  0.4669
   62MOL   H19134473   6.848   0.156   3.966 -1.0225  1.9699 -0.7778
   62MOL   H19234474   6.953   0.218   3.854 -0.5819  1.1078  2.1418
   62MOL   H19334475   6.973   0.010   3.728  0.0263  0.9658 -0.1855
   62MOL   H19434476   6.989   8.210   3.895 -1.0211 -0.6802  0.3488
   62MOL   H19534477   6.611   0.088   3.619 -0.0967  0.7056  0.9952
   62MOL   H19634478   6.398   8.237   3.515 -1.8134  0.2589 -0.9005
   62MOL   H19734479   6.217   0.013   3.353 -1.0752  0.4006 -0.7863
   62MOL   O19834480   6.772   8.141   4.038 -0.3839 -0.4790 -0.1310
   62MOL   C19934481   6.740   8.119   3.921  0.5650 -0.0941  0.1919
   62MOL   O20034482   6.819   8.163   3.810 -0.1083  0.0293 -0.2346
   62MOL   C20134483   6.628   8.033   3.881 -0.4372 -0.2241  0.0299
   62MOL   C20234484   6.593   8.031   3.744  0.1102  0.2429 -0.4861
   62MOL   C20334485   6.497   7.944   3.694 -0.2213 -0.2712 -0.3883
   62MOL   C20434486   6.472   7.939   3.559 -0.5597  0.0882  0.4405
   62MOL   C20534487   6.379   7.849   3.502 -0.3429 -0.4076  0.9288
   62MOL   C20634488   6.315   7.755   3.582 -0.2774 -0.1181  0.0211
   62MOL   C20734489   6.211   7.657   3.529 -0.0070  0.0781 -0.0843
   62MOL   O20834490   6.232   7.623   3.398 -0.2449 -0.0311 -0.3481
   62MOL   C20934491   6.159   7.532   3.321 -0.0780 -0.1002 -0.6325
   62MOL   C21034492   6.048   7.608   3.248 -0.2812 -0.5601 -0.2784
   62MOL   O21134493   6.122   7.599   3.597 -0.6400 -0.4810 -0.4516
   62MOL   C21234494   6.344   7.752   3.724 -0.0004 -0.2992  0.0618
   62MOL   C21334495   6.437   7.845   3.780  0.1635  0.5689 -0.4327
   62MOL   C21434496   6.464   7.851   3.920 -0.3500  0.8289  0.1766
   62MOL   C21534497   6.561   7.945   3.969 -0.2316  0.4877  0.5502
   62MOL   H21634498   6.634   8.108   3.680  3.6777  0.9766  2.4720
   62MOL   H21734499   6.516   8.009   3.490  1.1823 -0.4702  0.9598
   62MOL   H21834500   6.343   7.858   3.400  1.7409  0.4948  0.2323
   62MOL   H21934501   6.106   7.452   3.374 -0.6223  0.4697 -0.3162
   62MOL   H22034502   6.226   7.483   3.250  1.3586  0.1731  0.4834
   62MOL   H22134503   5.981   7.533   3.204 -0.7478 -0.7295  0.7158
   62MOL   H22234504   5.994   7.673   3.316 -1.3878  0.4389 -2.0616
   62MOL   H22334505   6.291   7.679   3.784 -1.4380  0.5634 -0.1340
   62MOL   H22434506   6.427   7.773   3.986 -0.8797 -1.4480 -2.7226
   62MOL   H22534507   6.594   7.954   4.071  1.7141  3.1018 -0.2185
   62MOL   O22634508   6.011   7.607   2.965 -0.0064  0.2815  0.7614
   62MOL   C22734509   6.081   7.690   3.021 -0.2524 -0.1966  0.6326
   62MOL   O22834510   6.108   7.691   3.149 -0.5619 -0.6913 -0.0223
   62MOL   C22934511   6.157   7.791   2.939  0.0585 -0.5020  0.1136
   62MOL   C23034512   6.115   7.824   2.809 -0.2311  0.1316  0.1346
   62MOL   C23134513   6.205   7.901   2.723  0.0950 -0.1866 -0.2750
   62MOL   C23234514   6.173   7.923   2.585 -0.0769 -0.3014 -0.7085
   62MOL   C23334515   6.258   8.003   2.509  0.0237 -0.2139  0.0915
   62MOL   C23434516   6.374   8.052   2.557 -0.0498  0.2782 -0.9378
   62MOL   C23534517   6.468   8.131   2.474  0.0334  0.1828  0.6181
   62MOL   O23634518   6.413   8.179   2.366 -0.0246  0.6491  0.5574
   62MOL   C23734519   6.482   0.001   2.260  0.1526  0.4513  0.0012
   62MOL   C23834520   6.525   8.150   2.156  0.1321 -0.4155 -0.1243
   62MOL   O23934521   6.590   8.146   2.500  0.2126  0.4327  0.3928
   62MOL   C24034522   6.414   8.018   2.692 -0.4217  0.5412  0.1841
   62MOL   C24134523   6.326   7.945   2.775 -0.7478  0.0768 -0.1360
   62MOL   C24234524   6.365   7.918   2.909 -0.3434 -0.6520  0.3880
   62MOL   C24334525   6.283   7.841   2.989 -0.0954 -0.2766 -0.2120
   62MOL   H24434526   6.020   7.785   2.776 -0.5425  0.8413  0.1692
   62MOL   H24534527   6.076   7.897   2.545  0.9483 -1.7834 -2.2752
   62MOL   H24634528   6.230   8.025   2.407 -3.1470 -1.3714  0.6439
   62MOL   H24734529   6.569   0.055   2.297 -0.4087  0.6439  1.0489
   62MOL   H24834530   6.410   0.067   2.212 -1.1767 -1.6489 -0.9711
   62MOL   H24934531   6.462   8.062   2.144  0.7347 -0.9090  0.2720
   62MOL   H25034532   6.515   8.203   2.062 -0.5391  1.1556  0.8125
   62MOL   H25134533   6.507   8.054   2.733 -0.1663 -1.9654  1.9435
   62MOL   H25234534   6.461   7.950   2.947 -1.0769  0.6411  1.1982
   62MOL   H25334535   6.327   7.808   3.082  2.5778 -0.7324 -1.5927
   62MOL   O25434536   6.741   8.230   2.005 -0.4029 -0.1422 -0.8610
   62MOL   C25534537   6.753   8.162   2.111 -0.2950 -0.4754  0.4225
   62MOL   O25634538   6.657   8.117   2.189 -0.1262 -0.0164  0.3264
   62MOL   C25734539   6.891   8.131   2.166  0.0181  0.2489  0.3801
   62MOL   C25834540   6.917   8.136   2.309  0.2587 -0.8846 -0.0983
   62MOL   C25934541   7.041   8.080   2.352 -0.0238 -0.2939 -0.1439
   62MOL   C26034542   7.056   8.062   2.494 -0.4773 -0.0658  0.3989
   62MOL   C26134543   7.172   7.995   2.536 -0.6137  0.9292  0.3780
   62MOL   C26234544   7.278   7.971   2.442 -0.0427 -0.2139  0.3843
   62MOL   C26334545   7.395   7.886   2.488 -0.7992 -0.1063  0.2344
   62MOL   O26434546   7.377   7.831   2.611  0.1304 -0.2254 -0.0289
   62MOL   C26534547   7.488   7.777   2.676  0.0911  0.1976 -0.1335
   62MOL   C26634548   7.549   7.645   2.622 -0.3921  0.5094 -0.4406
   62MOL   O26734549   7.495   7.875   2.419  0.6930  0.5372 -0.3021
   62MOL   C26834550   7.267   8.007   2.306 -0.0639 -0.5828  0.1733
   62MOL   C26934551   7.144   8.052   2.262  0.4300 -0.1863 -0.6787
   62MOL   C27034552   7.122   8.065   2.121  0.0856 -0.6565  0.1400
   62MOL   C27134553   6.999   8.100   2.079  0.3011 -0.3465  0.4547
   62MOL   H27234554   6.840   8.159   2.381 -0.6069  0.1963 -1.3469
   62MOL   H27334555   6.973   8.077   2.562 -1.5991 -1.8988 -0.5260
   62MOL   H27434556   7.184   7.969   2.640  0.5763 -0.3860 -0.0794
   62MOL   H27534557   7.453   7.757   2.778  0.7501 -1.6938 -0.2545
   62MOL   H27634558   7.566   7.850   2.693 -1.2234  2.1899 -2.3388
   62MOL   H27734559   7.582   7.644   2.519 -2.4308 -0.2049 -1.1186
   62MOL   H27834560   7.632   7.635   2.692 -1.5508 -1.2052  0.7159
   62MOL   H27934561   7.353   7.987   2.243 -0.2763 -1.1808  0.0706
   62MOL   H28034562   7.202   8.040   2.052 -1.2029  0.7485 -1.9183
   62MOL   H28134563   6.981   8.116   1.974  2.2343 -0.7511  0.0364
   62MOL   O28234564   7.534   7.488   2.848 -0.0721  0.4881 -0.1541
   62MOL   C28334565   7.458   7.470   2.753  0.5061  0.7823 -0.5493
   62MOL   O28434566   7.460   7.535   2.643 -0.0716 -0.3362 -0.2925
   62MOL   C28534567   7.344   7.372   2.770  0.1841 -0.0607  0.1894
   62MOL   C28634568   7.340   7.293   2.889  0.1139 -0.1326  1.0238
   62MOL   C28734569   7.237   7.195   2.903  0.6171 -0.1855 -0.3716
   62MOL   C28834570   7.231   7.110   3.013 -1.1703 -0.2384  0.1798
   62MOL   C28934571   7.135   7.011   3.019  0.2465  0.0359  0.1215
   62MOL   C29034572   7.032   7.004   2.918 -0.2162  0.1005  0.1975
   62MOL   C29134573   6.922   6.910   2.931 -0.9675  0.2883  0.1242
   62MOL   O29234574   6.956   6.809   3.008  0.3041  0.0508 -0.8808
   62MOL   C29334575   6.864   6.704   3.031  0.2906 -0.0213  0.6541
   62MOL   C29434576   6.773   6.746   3.153  0.2324 -0.8593 -1.1131
   62MOL   O29534577   6.814   6.925   2.871 -0.3529  0.5025  0.2705
   62MOL   C29634578   7.046   7.085   2.805  0.0899 -0.8040 -0.2092
   62MOL   C29734579   7.147   7.177   2.798  0.2772  0.2730 -0.1591
   62MOL   C29834580   7.151   7.262   2.681 -0.6198  0.4698  0.0225
   62MOL   C29934581   7.254   7.361   2.668  0.3292 -0.5118  0.2808
   62MOL   H30034582   7.412   7.304   2.969 -1.2933 -1.8326  2.5790
   62MOL   H30134583   7.310   7.116   3.087  2.0620  1.0494 -3.1918
   62MOL   H30234584   7.135   6.950   3.108  0.1553  1.1602  0.9016
   62MOL   H30334585   6.906   6.604   3.029 -3.3039 -1.6377 -2.8412
   62MOL   H30434586   6.793   6.688   2.949 -0.1764 -0.9479  1.2232
   62MOL   H30534587   6.731   6.846   3.136  2.0698 -0.0394 -0.9439
   62MOL   H30634588   6.685   6.682   3.151 -0.7422  0.4290 -0.0419
   62MOL   H30734589   6.972   7.071   2.727  1.4662 -2.4501 -1.2816
   62MOL   H30834590   7.074   7.249   2.606 -0.5067  2.8535 -0.5202
   62MOL   H30934591   7.263   7.417   2.576  0.7631  1.3884  1.4575
   62MOL   O31034592   6.787   6.945   3.335 -0.1564  0.2717 -0.1107
   62MOL   C31134593   6.853   6.847   3.349 -0.4374  1.0349 -0.4286
   62MOL   O31234594   6.850   6.739   3.276 -0.0266  0.5763 -0.5267
   62MOL   C31334595   6.950   6.823   3.460 -0.4043 -0.0292  0.0305
   62MOL   C31434596   6.925   6.907   3.571 -1.0761  0.3316 -0.0323
   62MOL   C31534597   7.002   6.888   3.690 -0.3918 -0.2675 -0.1403
   62MOL   C31634598   6.979   6.972   3.803  0.7411 -0.1836  0.3716
   62MOL   C31734599   7.052   6.956   3.921 -0.3467 -0.3301 -0.5138
   62MOL   C31834600   7.150   6.855   3.931  0.6746 -0.1742  0.7116
   62MOL   C31934601   7.219   6.826   4.057  0.3493 -0.8898 -0.0981
   62MOL   O32034602   7.194   6.912   4.152  0.3988 -0.3362 -0.7124
   62MOL   C32134603   7.238   6.887   4.286  0.1718  0.7437 -0.8580
   62MOL   C32234604   7.393   6.909   4.288  0.2235  0.6672  0.2101
   62MOL   O32334605   7.299   6.732   4.070 -0.6963  0.0489  0.8191
   62MOL   C32434606   7.169   6.771   3.816  0.1803 -0.4476  0.0641
   62MOL   C32534607   7.100   6.794   3.696 -0.0653  1.0758 -0.2501
   62MOL   C32634608   7.114   6.703   3.589 -0.2279  0.0278  0.3812
   62MOL   C32734609   7.043   6.717   3.466  0.5554  0.5923  0.7149
   62MOL   H32834610   6.840   6.974   3.573 -0.3534  1.2706 -0.1533
   62MOL   H32934611   6.889   7.032   3.807 -0.0592 -1.4581  1.9910
   62MOL   H33034612   7.027   7.019   4.006  0.4375  1.5523 -1.6631
   62MOL   H33134613   7.210   6.791   4.330 -1.2965  1.7509  0.4802
   62MOL   H33234614   7.191   6.968   4.341  0.8378 -0.0026  0.8725
   62MOL   H33334615   7.447   6.821   4.253 -0.2934  0.7364 -0.7698
   62MOL   H33434616   7.413   6.993   4.222  0.1709 -1.0129 -1.9969
   62MOL   H33534617   7.249   6.702   3.840  0.6590  0.0790 -0.0317
   62MOL   H33634618   7.185   6.622   3.600 -0.5961 -0.0781  2.1471
   62MOL   H33734619   7.050   6.637   3.394  1.8937  0.0562  1.4330
   62MOL   O33834620   7.376   6.761   4.530  0.1676  0.2222  0.2192
   62MOL   C33934621   7.447   6.858   4.520  0.1884 -0.4110  0.0057
   62MOL   O34034622   7.446   6.952   4.413  0.2074 -0.4507 -0.3268
   62MOL   C34134623   7.540   6.897   4.625  0.0542 -0.4211 -0.3855
   62MOL   C34234624   7.518   6.849   4.754  0.4806  0.6938  0.4743
   62MOL   C34334625   7.613   6.880   4.856  0.8592  0.0251 -0.0413
   62MOL   C34434626   7.589   6.832   4.984  0.1626 -0.2437  0.3655
   62MOL   C34534627   7.684   6.848   5.087  0.2446 -0.2044  0.1068
   62MOL   C34634628   7.801   6.923   5.059 -0.2704  0.0707 -0.4840
   62MOL   C34734629   7.919   6.934   5.157  0.1236 -0.1060  0.2851
   62MOL   O34834630   7.918   6.821   5.230  0.1414  1.2680 -0.5194
   62MOL   C34934631   8.020   6.779   5.309 -0.5835 -0.5447 -0.6648
   62MOL   C35034632   8.141   6.723   5.229  0.0399 -0.1442 -0.0442
   62MOL   O35134633   7.998   7.024   5.156  0.1694  0.2871 -0.2701
   62MOL   C35234634   7.821   6.979   4.931 -0.2430 -0.2618  0.6545
   62MOL   C35334635   7.726   6.962   4.826  0.7912  0.2364 -0.0084
   62MOL   C35434636   7.748   7.006   4.696  0.4855  0.3277  0.0397
   62MOL   C35534637   7.663   6.964   4.592  0.2824 -0.0122 -0.0320
   62MOL   H35634638   7.429   6.793   4.776 -0.7542  2.1845 -0.6372
   62MOL   H35734639   7.502   6.771   5.003  0.6055 -0.6262  1.1769
   62MOL   H35834640   7.671   6.807   5.186 -3.2162  2.0587  0.6758
   62MOL   H35934641   7.969   6.706   5.372 -0.4472  1.4056  1.7957
   62MOL   H36034642   8.064   6.855   5.374 -0.2495 -1.1503 -0.1796
   62MOL   H36134643   8.127   6.750   5.124  0.9744 -1.0254 -0.4075
   62MOL   H36234644   8.231   6.756   5.280 -0.1491 -1.1334  0.9678
   62MOL   H36334645   7.911   7.033   4.904  0.9071 -3.1263 -1.5376
   62MOL   H36434646   7.824   7.079   4.672 -0.2063  0.8465 -0.6053
   62MOL   H36534647   7.692   6.987   4.491  1.1044 -0.4004  0.1107
   62MOL   O36634648   0.082   6.588   5.384  0.5973 -0.1023  0.0858
   62MOL   C36734649   8.244   6.526   5.320  0.1728  1.2379  1.0801
   62MOL   O36834650   8.150   6.579   5.233 -0.0944  0.5003 -0.0529
   62MOL   C36934651   8.239   6.374   5.325  0.1559 -0.0740  0.6758
   62MOL   C37034652   8.119   6.314   5.280  0.0370 -0.1630 -0.0970
   62MOL   C37134653   8.119   6.176   5.264  0.2778  0.7388 -0.1141
   62MOL   C37234654   8.009   6.113   5.197  0.3796  0.2285  0.8136
   62MOL   C37334655   8.017   5.978   5.172 -0.1111  0.0372 -0.0151
   62MOL   C37434656   8.123   5.899   5.224  0.3064  0.4070  0.6260
   62MOL   C37534657   8.141   5.752   5.190  0.4199  0.4367  0.0760
   62MOL   O37634658   8.038   5.716   5.115 -0.7889 -0.0140  0.1168
   62MOL   C37734659   8.047   5.601   5.036  0.2666 -0.5291 -0.2979
   62MOL   C37834660   7.912   5.546   5.007 -0.0340  0.1438  0.9926
   62MOL   O37934661   8.241   5.682   5.200 -0.8627 -0.1111 -0.1767
   62MOL   C38034662   8.226   5.955   5.301 -0.4593  0.0247  0.3314
   62MOL   C38134663   8.230   6.096   5.307 -0.1251  0.3336  0.9749
   62MOL   C38234664   0.092   6.157   5.365 -0.4135 -0.4240  0.1217
   62MOL   C38334665   0.103   6.298   5.367  0.0051 -0.0671  0.2598
   62MOL   H38434666   8.034   6.371   5.245  0.8359  0.6768 -0.6865
   62MOL   H38534667   7.933   6.172   5.147  1.8754  1.4526 -0.0371
   62MOL   H38634668   7.948   5.934   5.102  0.0584 -1.2850  0.6491
   62MOL   H38734669   8.102   5.520   5.084 -0.7770 -0.5758  0.8358
   62MOL   H38834670   8.102   5.627   4.945  0.3230  1.2895  0.2372
   62MOL   H38934671   7.914   5.462   4.939  1.6884 -0.4756  1.7769
   62MOL   H39034672   7.868   5.503   5.098  1.3869 -0.3709  1.4464
   62MOL   H39134673   0.053   5.889   5.339 -1.8843 -3.7073 -2.9278
   62MOL   H39234674   0.176   6.097   5.397  0.8097  2.1228  1.8632
   62MOL   H39334675   0.194   6.345   5.403 -0.2432  1.3372 -0.8646
   62MOL   O39434676   7.937   5.641   4.753  0.3227  0.0852 -0.2849
   62MOL   C39534677   7.850   5.695   4.829  0.4548 -0.2564  0.0987
   62MOL   O39634678   7.821   5.641   4.953 -0.8174 -0.1154 -0.1438
   62MOL   C39734679   7.762   5.808   4.796  0.4262  0.7908  0.1961
   62MOL   C39834680   7.736   5.839   4.661  0.7437  0.3326  0.4156
   62MOL   C39934681   7.660   5.950   4.623  0.0045  0.2554  0.3634
   62MOL   C40034682   7.653   5.987   4.487  0.2813 -0.2783 -0.2209
   62MOL   C40134683   7.579   6.103   4.451  0.5909 -0.4222 -0.3140
   62MOL   C40234684   7.503   6.169   4.553 -0.1028  0.0119  0.6999
   62MOL   C40334685   7.423   6.286   4.514 -0.2989 -0.1195  0.0895
   62MOL   O40434686   7.428   6.314   4.381  0.3785  0.1272 -0.2067
   62MOL   C40534687   7.340   6.409   4.319 -0.6887 -0.5143  0.3507
   62MOL   C40634688   7.195   6.344   4.314  0.1422 -0.1082  0.1959
   62MOL   O40734689   7.354   6.349   4.589  0.3331 -0.2887 -0.3538
   62MOL   C40834690   7.511   6.128   4.687  0.4932  0.2635 -0.7233
   62MOL   C40934691   7.595   6.021   4.728  0.5673 -0.3223 -0.3501
   62MOL   C41034692   7.610   5.988   4.864 -0.2370  0.2107  1.0790
   62MOL   C41134693   7.696   5.884   4.901 -0.2217 -0.3637  0.1420
   62MOL   H41234694   7.785   5.794   4.575 -2.0765 -0.3061 -0.9165
   62MOL   H41334695   7.703   5.930   4.411 -1.7642 -1.9165 -0.3919
   62MOL   H41434696   7.570   6.129   4.347  0.5849 -0.1579 -0.2478
   62MOL   H41534697   7.376   6.432   4.219 -0.4346 -0.2610  0.4971
   62MOL   H41634698   7.324   6.499   4.379  0.0141 -0.3907  0.3600
   62MOL   H41734699   7.206   6.238   4.291 -1.0681 -0.4719  1.2214
   62MOL   H41834700   7.133   6.344   4.403 -0.6834  0.7678 -0.3574
   62MOL   H41934701   7.446   6.175   4.759  2.7892  0.9403  0.9643
   62MOL   H42034702   7.561   6.051   4.936 -0.4528 -0.0503  1.1608
   62MOL   H42134703   7.722   5.866   5.005 -0.5128  1.5271  0.5481
   62MOL   O42234704   7.038   6.570   4.336  0.2222 -0.4706 -0.3678
   62MOL   C42334705   7.034   6.504   4.234  0.2276 -0.3039  0.3755
   62MOL   O42434706   7.109   6.389   4.213  0.4217 -0.3057 -0.0046
   62MOL   C42534707   6.936   6.533   4.121  0.6160 -0.7159  0.0299
   62MOL   C42634708   6.964   6.488   3.989  0.5492 -0.0499 -0.5541
   62MOL   C42734709   6.867   6.511   3.887  0.3049 -0.3128 -0.3198
   62MOL   C42834710   6.888   6.460   3.753 -0.1463 -0.3051 -0.2382
   62MOL   C42934711   6.795   6.493   3.656  0.0057  0.6232 -0.4057
   62MOL   C43034712   6.670   6.553   3.682 -0.0556  0.4507 -0.3392
   62MOL   C43134713   6.573   6.588   3.581  0.3632  0.1082 -0.1374
   62MOL   O43234714   6.462   6.652   3.630 -0.2715  0.0280  0.4262
   62MOL   C43334715   6.393   6.743   3.545  0.4487  0.7004  0.6998
   62MOL   C43434716   6.335   6.852   3.629 -0.1447  0.0453  0.0686
   62MOL   O43534717   6.596   6.568   3.464  0.3520  0.1563 -0.1917
   62MOL   C43634718   6.644   6.593   3.819 -0.1599  0.0497  0.2836
   62MOL   C43734719   6.742   6.573   3.923  0.1751 -0.2308  0.3310
   62MOL   C43834720   6.716   6.626   4.049  0.4521  0.5862  0.1170
   62MOL   C43934721   6.813   6.604   4.147 -0.2532  0.1328  0.0177
   62MOL   H44034722   7.065   6.452   3.980  0.8703  0.6320  0.3275
   62MOL   H44134723   6.975   6.400   3.730  0.5523  0.2906  0.8084
   62MOL   H44234724   6.807   6.463   3.553  0.4333  0.3836 -0.2871
   62MOL   H44334725   6.319   6.692   3.484  1.7033 -0.0526 -0.2101
   62MOL   H44434726   6.456   6.781   3.465 -0.9476 -0.4444 -0.9765
   62MOL   H44534727   6.241   6.883   3.583 -0.6515 -1.3139  0.1680
   62MOL   H44634728   6.307   6.823   3.731 -0.3776 -2.0429 -0.5724
   62MOL   H44734729   6.553   6.640   3.851 -0.7666  0.7352 -2.3320
   62MOL   H44834730   6.620   6.665   4.077 -0.1955 -2.0732  1.8057
   62MOL   H44934731   6.789   6.633   4.248 -1.2359 -1.0118  0.1211
   62MOL   O45034732   6.538   6.907   3.803  0.1510  0.3119 -0.3052
   62MOL   C45134733   6.505   6.990   3.719 -0.4558 -0.2401  0.6716
   62MOL   O45234734   6.412   6.975   3.629 -0.4192 -0.0229 -0.0819
   62MOL   C45334735   6.579   7.119   3.710 -0.9448  0.2882 -0.2218
   62MOL   C45434736   6.554   7.205   3.603  0.0351  0.4146 -0.0263
   62MOL   C45534737   6.604   7.334   3.613  0.6183 -0.3955 -0.5359
   62MOL   C45634738   6.567   7.428   3.514  0.6289 -0.1189 -0.1515
   62MOL   C45734739   6.632   7.551   3.499  0.0369  0.6714 -0.9688
   62MOL   C45834740   6.712   7.594   3.610 -0.1182  0.0411  0.5527
   62MOL   C45934741   6.794   7.718   3.599 -0.1008  0.1520 -0.1259
   62MOL   O46034742   6.884   7.735   3.705 -0.4923 -0.0320 -0.4981
   62MOL   C46134743   6.964   7.847   3.706 -0.0674 -0.7804  0.4676
   62MOL   C46234744   7.025   7.873   3.840 -0.1926  0.3361  0.1517
   62MOL   O46334745   6.786   7.793   3.502  0.3687 -0.2498  0.0528
   62MOL   C46434746   6.725   7.511   3.722 -0.3602 -0.1410 -0.2574
   62MOL   C46534747   6.674   7.381   3.725  0.2150  0.5617  0.1428
   62MOL   C46634748   6.692   7.298   3.833 -0.3871 -0.5077  0.4703
   62MOL   C46734749   6.649   7.165   3.825  0.9434 -0.3484  0.3597
   62MOL   H46834750   6.484   7.188   3.523 -0.2782 -2.5842  0.8239
   62MOL   H46934751   6.506   7.393   3.432  0.6021  2.0861 -1.1327
   62MOL   H47034752   6.630   7.618   3.414 -0.7016  0.8029 -0.8538
   62MOL   H47134753   6.898   7.933   3.694 -0.2275 -1.2401 -2.1523
   62MOL   H47234754   7.027   7.865   3.619 -0.7790 -0.8693 -0.0705
   62MOL   H47334755   6.988   7.972   3.865  0.6949  0.1147  2.5272
   62MOL   H47434756   6.985   7.806   3.917 -2.7259  2.6192  0.8963
   62MOL   H47534757   6.791   7.541   3.803  0.1225 -1.1435 -0.2701
   62MOL   H47634758   6.737   7.333   3.926 -0.1079 -1.1402  0.5771
   62MOL   H47734759   6.649   7.092   3.905  1.6039 -1.0252 -0.2380
   62MOL   O47834760   7.168   8.069   3.717  0.4300  0.0936  0.6102
   62MOL   C47934761   7.229   7.984   3.790  0.4052 -0.1100 -0.0563
   62MOL   O48034762   7.165   7.878   3.848 -0.7280  0.3874 -0.6249
   62MOL   C48134763   7.370   7.993   3.831 -0.7343 -0.4464 -0.2353
   62MOL   C48234764   7.447   8.096   3.773  0.6130  0.2699 -0.5751
   62MOL   C48334765   7.585   8.104   3.803 -0.2248 -0.0893  0.2298
   62MOL   C48434766   7.666   8.209   3.749  0.8391 -0.3381 -0.8812
   62MOL   C48534767   7.807   8.214   3.770  0.1958  0.3006  0.0118
   62MOL   C48634768   7.865   8.115   3.855  0.2702 -0.1496 -0.0981
   62MOL   C48734769   8.008   8.103   3.885 -0.2953 -0.5562 -0.2718
   62MOL   O48834770   8.076   8.203   3.831 -0.2741  0.1612  0.4209
   62MOL   C48934771   8.217   8.187   3.844  0.3020  0.0504  0.3622
   62MOL   C49034772   0.047   0.042   3.761 -0.0551  0.4460 -0.1789
   62MOL   O49134773   8.061   8.010   3.949 -0.0206  0.4011  0.2744
   62MOL   C49234774   7.783   8.016   3.922  0.2399  0.1335 -0.1045
   62MOL   C49334775   7.644   8.014   3.893  0.3037 -0.2584  0.6381
   62MOL   C49434776   7.566   7.919   3.958 -0.1893  0.2681  0.3106
   62MOL   C49534777   7.428   7.912   3.928 -0.3986  0.4776  0.2547
   62MOL   H49634778   7.410   8.166   3.699  0.6831 -0.5866 -1.4241
   62MOL   H49734779   7.612   0.027   3.685 -1.0784 -0.4630  0.5391
   62MOL   H49834780   7.866   0.037   3.714  2.1382 -0.6241  0.7980
   62MOL   H49934781   0.001   8.087   3.814 -0.1369  0.1678 -0.5273
   62MOL   H50034782   8.247   8.185   3.949  1.6288 -2.6206 -0.0068
   62MOL   H50134783   0.144   8.243   3.758  1.0392  2.4602  1.2494
   62MOL   H50234784   0.005   0.068   3.664  2.0742  1.4338 -0.8845
   62MOL   H50334785   7.814   7.941   3.993 -0.5220 -0.5041 -0.4340
   62MOL   H50434786   7.604   7.850   4.032 -0.4848  0.2364  0.4346
   62MOL   H50534787   7.374   7.835   3.982 -0.7898 -0.4404 -1.3811
   62MOL   O50634788   8.145   0.275   3.762 -0.3342 -0.5802  0.3324
   62MOL   C50734789   0.002   0.262   3.830  0.4962 -0.3488  0.7661
   62MOL   O50834790   0.076   0.153   3.841  0.1530  0.2070  0.1971
   62MOL   C50934791   0.065   0.377   3.907  0.3246 -0.5241  0.3556
   62MOL   C51034792   0.202   0.369   3.942  0.1449 -0.2652 -0.0596
   62MOL   C51134793   0.264   0.467   4.022  0.9172  0.9099  0.6424
   62MOL   C51234794   0.395   0.458   4.056 -0.6961 -0.6904  0.3478
   62MOL   C51334795   0.457   0.554   4.139  0.0788  0.3477  0.4343
   62MOL   C51434796   0.385   0.657   4.192  0.2712 -0.6696 -0.4962
   62MOL   C51534797   0.447   0.757   4.281  0.0481 -0.1232 -0.8598
   62MOL   O51634798   0.353   0.828   4.356 -0.3930 -0.3234  0.6006
   62MOL   C51734799   0.396   0.927   4.456  0.3815  1.2207 -0.3194
   62MOL   C51834800   0.400   0.864   4.600 -0.1954  0.4368  0.3161
   62MOL   O51934801   0.568   0.774   4.287 -0.0693  0.6756 -0.3799
   62MOL   C52034802   0.250   0.673   4.150  0.4962 -0.0829 -0.0865
   62MOL   C52134803   0.189   0.578   4.065  0.7464  0.4669 -0.3830
   62MOL   C52234804   0.052   0.581   4.035  0.3057 -0.3088  0.7394
   62MOL   C52334805   8.243   0.488   3.948  0.1828 -0.3880 -0.1527
   62MOL   H52434806   0.258   0.281   3.916 -1.2271 -0.8269 -1.1610
   62MOL   H52534807   0.454   0.373   4.026 -2.9505 -1.9861 -0.5126
   62MOL   H52634808   0.558   0.538   4.173 -0.1817 -1.7646  0.2579
   62MOL   H52734809   0.316   1.000   4.442 -2.2366 -1.2263  1.4300
   62MOL   H52834810   0.493   0.969   4.427  1.2666  0.8787  1.9983
   62MOL   H52934811   0.445   0.936   4.668  0.5234  0.9505 -0.6790
   62MOL   H53034812   0.303   0.834   4.640 -0.7465  0.0519 -1.2839
   62MOL   H53134813   0.186   0.752   4.188  0.2792 -0.1211 -0.3770
   62MOL   H53234814   8.245   0.669   4.063  0.4729 -0.8144  2.7858
   62MOL   H53334815   8.139   0.501   3.922  0.0113  1.8624  1.5052
   62MOL   O53434816   0.502   0.768   4.843 -0.3264 -0.4383 -0.4097
   62MOL   C53534817   0.536   0.714   4.734 -0.1712 -0.5960 -0.2737
   62MOL   O53634818   0.486   0.754   4.612 -0.3716 -0.5837 -0.1131
   62MOL   C53734819   0.619   0.590   4.715  0.1435  0.2671 -0.4008
   62MOL   C53834820   0.690   0.531   4.828  0.4353 -0.2446 -0.3185
   62MOL   C53934821   0.767   0.416   4.815  0.0438  0.0127 -0.0119
   62MOL   C54034822   0.840   0.360   4.920 -0.0300  0.4723  0.6671
   62MOL   C54134823   0.914   0.237   4.898  0.1570 -0.1990  0.0777
   62MOL   C54234824   0.911   0.178   4.769  0.8099 -0.7747 -0.2930
   62MOL   C54334825   0.987   0.059   4.744  0.3000 -0.5645  0.2908
   62MOL   O54434826   0.979   0.011   4.615  0.2037 -0.3176 -0.1466
   62MOL   C54534827   1.068   8.154   4.568  0.2312  0.0703 -0.0732
   62MOL   C54634828   1.095   8.176   4.418  0.3468  0.8297 -0.4885
   62MOL   O54734829   1.056   0.008   4.833  0.3068  0.1479 -0.0070
   62MOL   C54834830   0.838   0.239   4.662  0.3302  0.1473  0.2507
   62MOL   C54934831   0.762   0.348   4.689  0.2259  0.0474  0.5030
   62MOL   C55034832   0.684   0.394   4.583 -0.1958  0.1477 -0.4654
   62MOL   C55134833   0.623   0.522   4.592 -0.5200  0.0527  0.3666
   62MOL   H55234834   0.690   0.582   4.924  0.9753  2.1709 -1.5591
   62MOL   H55334835   0.835   0.410   5.015 -2.8098 -0.1972  0.9260
   62MOL   H55434836   0.975   0.207   4.983  1.9481  0.7768 -0.8188
   62MOL   H55534837   1.029   8.055   4.591  0.7436 -0.3181 -0.8355
   62MOL   H55634838   1.163   8.164   4.620  0.4740  1.1775 -0.7171
   62MOL   H55734839   1.001   8.162   4.364  0.1550  0.5248 -0.0840
   62MOL   H55834840   1.182   8.118   4.387 -1.1912 -3.1362  2.2087
   62MOL   H55934841   0.830   0.194   4.564  1.7755  2.8337 -1.1570
   62MOL   H56034842   0.677   0.343   4.487  0.9424  0.5021 -0.7443
   62MOL   H56134843   0.560   0.546   4.507 -2.4369 -0.2666  1.6549
   62MOL   H56234844   1.127   0.031   4.411 -0.9691  1.2637 -0.3042
   63MOL     O134845   5.090   2.708   4.462 -0.3033  0.9451 -0.7535
   63MOL     C234846   5.123   2.608   4.390  0.7685 -1.2325 -0.4591
   63MOL     O334847   5.190   2.503   4.436 -0.3450  0.8155 -0.2127
   63MOL     C434848   5.096   2.615   4.245  0.0720  0.4947  0.8766
   63MOL     C534849   5.028   2.728   4.189  0.6550  0.0901 -0.1660
   63MOL     C634850   5.009   2.738   4.049  0.4898 -0.5771  0.5642
   63MOL     C734851   4.954   2.851   3.983  0.2537  0.3006 -0.0438
   63MOL     C834852   4.955   2.856   3.844 -0.6727 -0.0954 -0.3446
   63MOL     C934853   4.986   2.746   3.762 -0.2819  0.1654 -0.4799
   63MOL    C1034854   4.988   2.767   3.612  0.5552 -0.4645 -0.2805
   63MOL    O1134855   5.017   2.651   3.547 -0.0176  0.8751 -0.0095
   63MOL    C1234856   5.015   2.647   3.412 -0.2591  0.6494 -0.3709
   63MOL    C1334857   4.879   2.661   3.343 -0.9131 -0.8879  0.7908
   63MOL    O1434858   4.962   2.877   3.554  0.3512  0.2477 -0.1847
   63MOL    C1534859   5.021   2.622   3.829 -0.4144  0.0948 -0.3156
   63MOL    C1634860   5.038   2.626   3.968 -0.0476 -0.9433  0.6716
   63MOL    C1734861   5.085   2.507   4.027 -0.9202  0.9476  0.1188
   63MOL    C1834862   5.118   2.506   4.165 -0.4059  0.3165 -0.6347
   63MOL    H1934863   4.996   2.818   4.240 -2.0911  1.5711 -4.2709
   63MOL    H2034864   4.924   2.934   4.045 -1.3254 -0.4136  0.1883
   63MOL    H2134865   4.929   2.950   3.798  2.7267  2.5936  2.8465
   63MOL    H2234866   5.077   2.727   3.373 -0.4740  1.9198  1.7708
   63MOL    H2334867   5.065   2.555   3.382  0.5419  0.3318  1.7932
   63MOL    H2434868   4.823   2.748   3.379 -2.0231 -1.8099  1.3050
   63MOL    H2534869   4.901   2.689   3.240  1.1118 -0.0227  1.4260
   63MOL    H2634870   5.038   2.532   3.772  0.8008  0.4388 -0.5229
   63MOL    H2734871   5.098   2.419   3.964 -0.3991 -0.7646  2.5413
   63MOL    H2834872   5.158   2.414   4.204 -0.2394  0.0288 -1.4644
   63MOL    H2934873   5.203   2.499   4.530 -1.8854  2.9948  0.1398
   63MOL    O3034874   4.896   2.479   3.152  0.0147  0.4517 -0.1878
   63MOL    C3134875   4.812   2.468   3.242 -0.2811  0.2099 -0.5513
   63MOL    O3234876   4.808   2.542   3.343  0.0573 -0.0075  0.2232
   63MOL    C3334877   4.705   2.362   3.245  0.8972  0.0014  0.5045
   63MOL    C3434878   4.636   2.326   3.360  0.2363 -0.0179  0.2435
   63MOL    C3534879   4.533   2.231   3.349  0.4685 -0.6280  0.0048
   63MOL    C3634880   4.471   2.196   3.467  0.4987  0.0866 -0.0128
   63MOL    C3734881   4.375   2.091   3.457  0.3547  0.1009 -0.3403
   63MOL    C3834882   4.326   2.046   3.330  0.5478 -0.1424 -0.3044
   63MOL    C3934883   4.222   1.940   3.321 -0.0089  0.0521  0.4133
   63MOL    O4034884   4.139   1.968   3.222 -0.2391  0.2242  1.0386
   63MOL    C4134885   4.021   1.899   3.196  0.1594  0.5220 -0.1468
   63MOL    C4234886   3.973   1.946   3.057  0.3121 -0.2352  0.0500
   63MOL    O4334887   4.205   1.846   3.401  0.5956 -0.0716  0.1289
   63MOL    C4434888   4.389   2.086   3.215 -0.2852 -0.1696  0.1731
   63MOL    C4534889   4.501   2.172   3.224  0.3998  0.7943  0.4233
   63MOL    C4634890   4.576   2.210   3.112 -0.0796  0.0583 -0.0392
   63MOL    C4734891   4.678   2.304   3.118  0.1743  1.1724  0.0498
   63MOL    H4834892   4.653   2.372   3.456 -0.9543  1.8078 -0.4006
   63MOL    H4934893   4.499   2.239   3.562  1.3387 -1.4851  0.4827
   63MOL    H5034894   4.328   2.066   3.551  2.1678 -2.7882 -0.1539
   63MOL    H5134895   3.949   1.907   3.278 -0.8472 -1.8051 -0.7496
   63MOL    H5234896   4.036   1.791   3.190  0.2086  0.5195  0.0254
   63MOL    H5334897   3.885   1.884   3.041 -1.7652  1.8061  3.2311
   63MOL    H5434898   3.951   2.052   3.069  1.0920 -0.1466  0.7446
   63MOL    H5534899   4.367   2.027   3.128 -0.7557 -0.4005  0.4479
   63MOL    H5634900   4.551   2.167   3.016  0.7474 -0.6898  0.0820
   63MOL    H5734901   4.721   2.332   3.023 -0.0657  0.5622 -0.2446
   63MOL    O5834902   3.932   1.985   2.798  0.1207 -0.0329 -0.0016
   63MOL    C5934903   4.046   1.958   2.834  0.2902 -0.1498 -0.4044
   63MOL    O6034904   4.077   1.933   2.961  0.2201 -0.3088 -0.4352
   63MOL    C6134905   4.159   1.962   2.744 -0.1999  0.4890  0.5886
   63MOL    C6234906   4.140   2.007   2.610  0.1672  0.8924 -0.3940
   63MOL    C6334907   4.248   2.036   2.528  0.0129 -0.3042  0.8850
   63MOL    C6434908   4.231   2.076   2.399 -0.0676  0.0321  0.2877
   63MOL    C6534909   4.343   2.081   2.310 -0.0007 -0.6573  0.5872
   63MOL    C6634910   4.476   2.065   2.358 -0.1185  0.5597 -0.1389
   63MOL    C6734911   4.588   2.064   2.263  0.3585  0.3289 -0.4257
   63MOL    O6834912   4.684   1.975   2.305 -0.4183 -0.1243 -0.7036
   63MOL    C6934913   4.818   1.978   2.262 -0.6378  0.0475  0.1157
   63MOL    C7034914   4.900   2.076   2.351 -0.4890 -0.5594 -0.0067
   63MOL    O7134915   4.597   2.138   2.163  0.4033 -0.2590  0.2070
   63MOL    C7234916   4.495   2.028   2.491 -0.7237 -0.1084  0.0288
   63MOL    C7334917   4.382   2.008   2.572 -0.0966  0.0791 -0.0050
   63MOL    C7434918   4.403   1.958   2.701 -0.0034 -0.4001 -0.1542
   63MOL    C7534919   4.293   1.943   2.787 -0.0132  0.0318  0.3731
   63MOL    H7634920   4.039   2.022   2.574 -0.8369  2.1760  2.7425
   63MOL    H7734921   4.133   2.106   2.364  0.3176  2.1366  0.9385
   63MOL    H7834922   4.322   2.107   2.208  0.3940  2.6524  1.2970
   63MOL    H7934923   4.824   1.993   2.154 -0.9359 -1.6430 -0.1612
   63MOL    H8034924   4.852   1.875   2.277  2.5976  0.5189 -3.2595
   63MOL    H8134925   4.859   2.084   2.452  0.4590 -1.5000  0.4569
   63MOL    H8234926   4.998   2.035   2.373  0.1882  0.5704 -0.8139
   63MOL    H8334927   4.594   2.015   2.533 -0.9408 -1.0367  0.2618
   63MOL    H8434928   4.504   1.926   2.721  0.1074 -0.1405 -0.2935
   63MOL    H8534929   4.314   1.902   2.884  0.5509  0.0096  0.2442
   63MOL    O8634930   5.062   2.120   2.134 -0.2678  0.4489 -0.4118
   63MOL    C8734931   5.006   2.218   2.188  0.2925 -0.2910  0.6836
   63MOL    O8834932   4.911   2.200   2.288  0.2097  0.5271  0.8960
   63MOL    C8934933   5.013   2.349   2.140 -0.0144  0.1214 -0.5548
   63MOL    C9034934   4.994   2.461   2.226  0.0427  0.7472 -0.5456
   63MOL    C9134935   5.012   2.596   2.181 -0.8502 -0.0372 -0.3122
   63MOL    C9234936   4.991   2.711   2.257 -0.5155  0.4279  0.1351
   63MOL    C9334937   5.019   2.835   2.206 -0.0675  0.0814  0.9503
   63MOL    C9434938   5.054   2.856   2.073  1.1125 -0.2618  0.3085
   63MOL    C9534939   5.083   2.990   2.023 -1.0007 -0.3667 -0.1742
   63MOL    O9634940   5.061   3.089   2.106 -0.4232 -0.5435 -0.4677
   63MOL    C9734941   5.072   3.221   2.059 -0.2271 -0.3701 -0.7922
   63MOL    C9834942   4.947   3.268   1.981  0.1427 -0.2461  0.1547
   63MOL    O9934943   5.130   3.010   1.915 -0.4073  0.3538  0.0152
   63MOL   C10034944   5.074   2.745   1.993 -0.3821  0.1444 -0.1322
   63MOL   C10134945   5.048   2.612   2.042  0.0226 -0.0428 -0.4452
   63MOL   C10234946   5.066   2.501   1.957  0.0593 -0.4553 -0.5873
   63MOL   C10334947   5.042   2.371   2.003  0.1423  0.5429  0.6308
   63MOL   H10434948   4.983   2.453   2.334 -0.1706  1.3976 -0.5211
   63MOL   H10534949   4.957   2.698   2.358  2.5164 -2.3000  0.8993
   63MOL   H10634950   5.011   2.915   2.277  2.8570 -1.1569  2.7582
   63MOL   H10734951   5.164   3.242   2.005  0.6158 -0.6631  0.5209
   63MOL   H10834952   5.079   3.272   2.155  1.0910 -1.4336 -0.3147
   63MOL   H10934953   4.863   3.200   1.991  1.0310 -1.5044 -0.7355
   63MOL   H11034954   4.903   3.363   2.011  0.2020 -0.3351  0.5309
   63MOL   H11134955   5.101   2.764   1.891  0.5700  0.4557  0.1728
   63MOL   H11234956   5.098   2.518   1.855 -0.2473  0.8130 -0.4771
   63MOL   H11334957   5.059   2.288   1.935  2.4534  1.3100  0.2423
   63MOL   O11434958   4.749   3.295   1.792  0.0860  0.4475 -0.2153
   63MOL   C11534959   4.870   3.281   1.761 -0.1067 -0.0283 -0.2500
   63MOL   O11634960   4.979   3.272   1.841 -0.0439 -0.9607 -1.1526
   63MOL   C11734961   4.905   3.263   1.617  0.3770 -0.3411 -0.1898
   63MOL   C11834962   4.817   3.278   1.508 -0.0495  0.0140 -0.0925
   63MOL   C11934963   4.855   3.245   1.374  0.0535 -0.7290 -0.1766
   63MOL   C12034964   4.765   3.254   1.269 -0.1317 -0.0268  0.4508
   63MOL   C12134965   4.796   3.211   1.137  0.2106  0.0568 -0.2428
   63MOL   C12234966   4.925   3.159   1.115  0.2021  0.7335 -0.0639
   63MOL   C12334967   4.960   3.122   0.982  0.9111 -1.1808 -0.0030
   63MOL   O12434968   5.057   3.029   0.980 -0.1453  0.1382 -0.4281
   63MOL   C12534969   5.107   2.977   0.860 -0.4982  0.0398  0.3830
   63MOL   C12634970   5.244   3.034   0.820  0.8813  0.3712 -0.4880
   63MOL   O12734971   4.897   3.158   0.884 -0.0907  0.4499  0.5938
   63MOL   C12834972   5.021   3.152   1.220 -0.1339 -0.0949 -0.2268
   63MOL   C12934973   4.985   3.190   1.350 -0.1493  0.3714 -0.0288
   63MOL   C13034974   5.076   3.194   1.452  0.1432 -0.2059  0.1258
   63MOL   C13134975   5.040   3.229   1.581  0.2130  0.1346 -0.3770
   63MOL   H13234976   4.721   3.322   1.530  0.9079  2.0160  0.2038
   63MOL   H13334977   4.664   3.279   1.297 -0.4700 -0.3562 -0.4452
   63MOL   H13434978   4.727   3.226   1.055  0.9823 -0.8469 -1.0700
   63MOL   H13534979   5.034   2.982   0.780  0.6974  0.2462 -0.7072
   63MOL   H13634980   5.135   2.873   0.872  1.1004  0.7134  3.0080
   63MOL   H13734981   5.310   3.014   0.905 -1.6046  0.8091  1.6072
   63MOL   H13834982   5.288   2.983   0.734  0.6273  1.3645 -1.2080
   63MOL   H13934983   5.125   3.131   1.199 -0.1975 -1.0723  0.4013
   63MOL   H14034984   5.182   3.176   1.440  0.7097  0.4180  3.6105
   63MOL   H14134985   5.113   3.217   1.660 -0.6605  1.1890  0.6120
   63MOL   O14234986   5.108   3.111   0.600  0.7861  0.5940  0.2812
   63MOL   C14334987   5.174   3.196   0.664 -0.2894  0.3184 -0.5063
   63MOL   O14434988   5.243   3.168   0.775  0.0135  0.3577  0.7237
   63MOL   C14534989   5.181   3.337   0.639  0.6159 -0.7626 -0.5674
   63MOL   C14634990   5.081   3.399   0.562 -0.1297 -0.4386 -0.8077
   63MOL   C14734991   5.071   3.540   0.559  0.5770  0.6672 -0.2125
   63MOL   C14834992   4.973   3.608   0.480 -0.4218  0.2865  0.5538
   63MOL   C14934993   4.964   3.748   0.487  0.2060  0.0307  0.4095
   63MOL   C15034994   5.070   3.825   0.543 -0.0606 -0.2994 -0.0805
   63MOL   C15134995   5.080   3.974   0.522 -0.3782 -0.3309  0.6930
   63MOL   O15234996   5.206   4.011   0.512  0.7751 -0.4332  0.2068
   63MOL   C15334997   5.245   4.146   0.503 -0.3220 -0.0131  0.0644
   63MOL   C15434998   5.234   4.191   0.355 -0.0677 -0.1336  0.2383
   63MOL   O15534999   4.986   4.045   0.485  0.2138  0.2632 -0.2253
   63MOL   C15635000   5.171   3.757   0.608 -0.1335 -0.0700 -0.3594
   63MOL   C15735001   5.173   3.615   0.615  0.3564 -0.4226 -1.0550
   63MOL   C15835002   5.281   3.556   0.689  0.0388  0.0137  0.1747
   63MOL   C15935003   5.282   3.414   0.703 -0.3211  0.2247  0.3184
   63MOL   H16035004   5.014   3.337   0.504  0.7068 -0.3918 -1.8316
   63MOL   H16135005   4.896   3.557   0.423  1.2863 -0.5665 -1.0658
   63MOL   H16235006   4.886   3.794   0.429  0.6310  0.7395  0.3897
   63MOL   H16335007   5.352   4.140   0.523 -0.1053  0.3796 -0.9268
   63MOL   H16435008   5.206   4.214   0.578  1.7126  0.3793  0.7902
   63MOL   H16535009   5.285   4.125   0.285 -0.7392  0.4529 -0.8155
   63MOL   H16635010   5.131   4.201   0.320 -0.9690 -1.1583  2.5456
   63MOL   H16735011   5.255   3.811   0.649 -1.2218  1.5232 -0.2122
   63MOL   H16835012   5.365   3.612   0.725  1.0385 -1.8053  0.7433
   63MOL   H16935013   5.363   3.363   0.753  0.5200  1.6500  0.4575
   63MOL   O17035014   5.494   4.227   0.259  0.1417  0.0293 -0.1927
   63MOL   C17135015   5.426   4.318   0.303 -0.3851  0.3369  0.0097
   63MOL   O17235016   5.301   4.313   0.360 -0.4498 -0.1793  0.1285
   63MOL   C17335017   5.474   4.454   0.315  0.2829 -0.6474  0.1545
   63MOL   C17435018   5.404   4.560   0.372 -0.1159  0.2305  0.1585
   63MOL   C17535019   5.457   4.689   0.386 -0.3961 -0.5090 -0.2425
   63MOL   C17635020   5.378   4.788   0.444 -0.1314  0.0631 -0.7108
   63MOL   C17735021   5.429   4.914   0.458  0.1311  0.3397  0.0346
   63MOL   C17835022   5.562   4.945   0.409  0.3177 -0.6662 -1.1528
   63MOL   C17935023   5.624   5.074   0.433 -0.1131  0.2304 -0.1625
   63MOL   O18035024   5.556   5.145   0.525 -0.1550  0.9580  0.0888
   63MOL   C18135025   5.607   5.273   0.566 -0.6259  0.0952 -0.6623
   63MOL   C18235026   5.556   5.393   0.476 -0.2819  0.4348 -0.6620
   63MOL   O18335027   5.723   5.109   0.378  0.2087  0.0016 -0.1036
   63MOL   C18435028   5.639   4.841   0.356  0.7068 -0.5979  0.5345
   63MOL   C18535029   5.586   4.716   0.341  0.3087 -0.5993  0.5283
   63MOL   C18635030   5.664   4.613   0.288  0.2283 -0.1739 -0.7596
   63MOL   C18735031   5.610   4.480   0.270 -0.3569 -0.0166 -0.7032
   63MOL   H18835032   5.308   4.546   0.419 -0.6080  0.7310 -0.6838
   63MOL   H18935033   5.280   4.767   0.485  0.6853  1.7309  2.2619
   63MOL   H19035034   5.363   4.988   0.501 -2.6572 -0.4548 -2.6888
   63MOL   H19135035   5.715   5.287   0.563 -0.5569  0.7139  2.5960
   63MOL   H19235036   5.589   5.279   0.674 -1.7779 -0.9768 -0.7886
   63MOL   H19335037   5.591   5.489   0.514 -0.7344  0.8421 -1.2548
   63MOL   H19435038   5.598   5.381   0.376  0.1773  1.0278 -0.5430
   63MOL   H19535039   5.744   4.857   0.334  0.9585 -0.9304  1.5101
   63MOL   H19635040   5.770   4.630   0.277  0.0927 -0.1111 -1.9964
   63MOL   H19735041   5.667   4.403   0.221 -2.4894 -2.5838  0.6989
   63MOL   O19835042   5.362   5.573   0.581 -0.5217 -0.3214 -0.0565
   63MOL   C19935043   5.333   5.464   0.541  0.4049 -0.6413  0.0340
   63MOL   O20035044   5.412   5.381   0.474  0.2808  0.5108  0.2654
   63MOL   C20135045   5.195   5.399   0.563 -0.8531 -0.6116 -0.6387
   63MOL   C20235046   5.106   5.467   0.650 -0.4506 -0.2817  0.1277
   63MOL   C20335047   4.990   5.404   0.690  0.0289 -0.8637 -0.8490
   63MOL   C20435048   4.910   5.454   0.798 -0.4551  0.2133  0.2995
   63MOL   C20535049   4.793   5.390   0.841 -0.3359  0.2909  0.5275
   63MOL   C20635050   4.760   5.266   0.779 -0.3300  1.0343  0.0030
   63MOL   C20735051   4.631   5.189   0.809  0.0839  0.0744  0.2726
   63MOL   O20835052   4.555   5.253   0.910 -0.1866 -0.4283 -0.1756
   63MOL   C20935053   4.440   5.195   0.955 -0.3980 -0.3123 -0.2280
   63MOL   C21035054   4.328   5.236   0.860 -0.7923 -0.4498  0.3487
   63MOL   O21135055   4.595   5.086   0.748 -0.4697  0.5436  0.0937
   63MOL   C21235056   4.846   5.209   0.681  0.8095 -0.0895 -0.0067
   63MOL   C21335057   4.956   5.281   0.641  0.0109  0.9322 -0.1113
   63MOL   C21435058   5.043   5.225   0.546  0.6464  0.0731 -0.2301
   63MOL   C21535059   5.163   5.278   0.511  0.3892  0.6691 -0.1098
   63MOL   H21635060   5.133   5.565   0.685  1.2983 -1.4793  2.2174
   63MOL   H21735061   4.936   5.540   0.858  0.3484 -0.2797  0.6710
   63MOL   H21835062   4.738   5.427   0.927  1.6965  2.1877  1.0516
   63MOL   H21935063   4.398   5.243   1.044 -2.3542 -0.3242 -1.1288
   63MOL   H22035064   4.448   5.087   0.965  1.0989 -0.1920  0.0819
   63MOL   H22135065   4.302   5.342   0.853 -1.7793 -0.7262 -0.2651
   63MOL   H22235066   4.342   5.216   0.753 -0.4240  2.1883 -0.1333
   63MOL   H22335067   4.830   5.104   0.657  0.6202  0.0286 -0.3960
   63MOL   H22435068   5.019   5.128   0.506 -0.5158  0.3272 -0.1728
   63MOL   H22535069   5.216   5.215   0.441 -1.6642 -2.6719  1.2276
   63MOL   O22635070   4.164   5.299   1.061  0.0996  0.1111 -0.5255
   63MOL   C22735071   4.138   5.196   1.001  0.4369 -0.3221 -0.3320
   63MOL   O22835072   4.214   5.158   0.897 -0.4411  0.2746 -0.1412
   63MOL   C22935073   4.008   5.119   1.019 -0.1630  0.1980  0.5537
   63MOL   C23035074   3.918   5.161   1.124  0.2218  0.0879 -0.7432
   63MOL   C23135075   3.789   5.103   1.139  0.2866 -0.2049  0.3245
   63MOL   C23235076   3.689   5.149   1.230  0.3129 -0.0436  0.0053
   63MOL   C23335077   3.568   5.085   1.239  0.1562  0.2421 -0.2134
   63MOL   C23435078   3.530   4.981   1.147  0.9625  0.2094 -0.5245
   63MOL   C23535079   3.385   4.928   1.155 -0.4809  0.2659 -0.0399
   63MOL   O23635080   3.379   4.797   1.117 -1.0505  0.3950 -0.4059
   63MOL   C23735081   3.258   4.721   1.135  0.2961 -0.1698  0.3384
   63MOL   C23835082   3.163   4.734   1.015  0.3840  0.2693 -0.5206
   63MOL   O23935083   3.289   4.986   1.203  0.0291  0.1857  0.2226
   63MOL   C24035084   3.626   4.933   1.061  0.8145 -0.5974  0.3456
   63MOL   C24135085   3.751   4.993   1.060 -0.2238 -0.1100  0.0182
   63MOL   C24235086   3.844   4.948   0.959  0.7281  0.1012 -0.4946
   63MOL   C24335087   3.971   5.012   0.939  0.3395  0.2763 -0.6805
   63MOL   H24435088   3.942   5.244   1.190  1.3395  0.2992 -1.4092
   63MOL   H24535089   3.709   5.222   1.307  0.2939  0.2687 -0.2831
   63MOL   H24635090   3.490   5.120   1.305  1.1374  1.0898  0.5146
   63MOL   H24735091   3.218   4.758   1.229  0.0986  0.3554  0.0499
   63MOL   H24835092   3.292   4.618   1.152 -0.1381 -0.1064  1.6765
   63MOL   H24935093   3.070   4.681   1.037 -0.5563  0.7672 -3.1458
   63MOL   H25035094   3.145   4.837   0.984 -0.5177 -0.2447 -1.7143
   63MOL   H25135095   3.602   4.848   0.999 -0.5033 -0.2610  0.3629
   63MOL   H25235096   3.827   4.862   0.896  3.1748 -0.9599  0.2424
   63MOL   H25335097   4.038   4.981   0.860 -0.0843 -1.8897 -0.2185
   63MOL   O25435098   3.286   4.833   0.768  0.0171 -0.2061 -0.2554
   63MOL   C25535099   3.258   4.713   0.788  0.3552  0.5722  0.2835
   63MOL   O25635100   3.213   4.656   0.909 -0.5091  0.4598 -0.5589
   63MOL   C25735101   3.278   4.614   0.678  0.3722  0.8846  0.0526
   63MOL   C25835102   3.287   4.668   0.545 -0.2655 -0.0460  0.7416
   63MOL   C25935103   3.317   4.579   0.440  0.4916 -0.1742  0.5049
   63MOL   C26035104   3.323   4.635   0.312 -0.2882 -0.1080 -0.5311
   63MOL   C26135105   3.342   4.552   0.202 -0.1733  0.7015  0.6354
   63MOL   C26235106   3.361   4.414   0.211 -0.1695  0.8849 -0.6531
   63MOL   C26335107   3.358   4.332   0.090 -0.5204 -0.2439 -0.1134
   63MOL   O26435108   3.392   4.205   0.112 -0.0681  0.2396  0.3360
   63MOL   C26535109   3.405   4.112   0.008 -0.2724  0.3745 -0.6179
   63MOL   C26635110   3.531   4.128   8.174  0.3293  0.7796 -0.0516
   63MOL   O26735111   3.343   4.374   8.225 -0.3467  0.0178  0.6148
   63MOL   C26835112   3.364   4.363   0.345  0.8116 -0.2602 -0.3790
   63MOL   C26935113   3.339   4.445   0.456  0.0900  0.3072 -1.3058
   63MOL   C27035114   3.319   4.387   0.587 -0.2553 -0.5267  0.4415
   63MOL   C27135115   3.297   4.476   0.699  0.1296  0.2149  0.0948
   63MOL   H27235116   3.295   4.775   0.536 -0.1600 -0.0204  1.1082
   63MOL   H27335117   3.289   4.735   0.289 -0.0085  0.4246  1.3447
   63MOL   H27435118   3.333   4.597   0.104 -1.8713  0.1483  0.5115
   63MOL   H27535119   3.320   4.121   8.190  0.0814 -0.1769 -1.1471
   63MOL   H27635120   3.403   4.011   0.048  0.2420  1.2461  1.6823
   63MOL   H27735121   3.564   4.232   8.174  0.3897  0.7722  1.0649
   63MOL   H27835122   3.604   4.054   8.205 -1.4028 -0.3644  1.4442
   63MOL   H27935123   3.370   4.256   0.357 -0.8135 -0.1927  1.2272
   63MOL   H28035124   3.332   4.280   0.594  1.1459 -0.4304 -0.4408
   63MOL   H28135125   3.289   4.440   0.801 -1.1507  1.2541  0.3725
   63MOL   O28235126   3.489   3.884   8.067  0.1053  0.1427  0.0187
   63MOL   C28335127   3.486   3.982   7.997  0.5680  0.6328  0.0805
   63MOL   O28435128   3.496   4.100   8.044  0.1535  0.4038 -0.5077
   63MOL   C28535129   3.465   3.981   7.845  0.2385 -0.0024  0.0552
   63MOL   C28635130   3.461   3.860   7.779 -0.2396  0.0088  0.1701
   63MOL   C28735131   3.446   3.854   7.636 -0.2650  0.7055 -1.2563
   63MOL   C28835132   3.469   3.738   7.554  0.3507  0.0252 -0.7630
   63MOL   C28935133   3.444   3.744   7.413 -0.2451  0.8943 -0.3048
   63MOL   C29035134   3.429   3.872   7.348  0.5935 -0.2281 -0.2162
   63MOL   C29135135   3.411   3.882   7.205  0.5420  0.3354  0.7718
   63MOL   O29235136   3.499   3.807   7.137  0.5028  0.1829  0.2558
   63MOL   C29335137   3.518   3.825   6.999 -0.3449  0.2066 -0.1550
   63MOL   C29435138   3.588   3.953   6.961  0.2460 -0.0364  0.4074
   63MOL   O29535139   3.326   3.959   7.155 -0.1691  0.4954  0.4969
   63MOL   C29635140   3.422   3.986   7.428  0.2790 -0.6430  0.4751
   63MOL   C29735141   3.433   3.978   7.569 -0.5538  0.9199  0.3168
   63MOL   C29835142   3.430   4.101   7.637 -0.2631  0.2886 -0.4759
   63MOL   C29935143   3.443   4.098   7.774  0.1674 -0.0151 -0.6859
   63MOL   H30035144   3.486   3.774   7.840  1.2137 -0.6516 -1.3325
   63MOL   H30135145   3.496   3.647   7.604 -2.0885  0.8535  2.2591
   63MOL   H30235146   3.457   3.657   7.350 -2.3282 -1.3078  2.1743
   63MOL   H30335147   3.430   3.799   6.940 -1.1190 -0.2471  1.1825
   63MOL   H30435148   3.581   3.739   6.976  0.0632  0.3943  0.2649
   63MOL   H30535149   3.604   3.950   6.853  0.4426  2.3803  0.3365
   63MOL   H30635150   3.534   4.045   6.983 -0.0994  0.1588 -1.1512
   63MOL   H30735151   3.411   4.078   7.372 -1.3213 -2.5777 -2.4714
   63MOL   H30835152   3.416   4.190   7.577  1.1691  1.1542  0.4479
   63MOL   H30935153   3.437   4.193   7.826 -2.8374 -0.2776 -0.4547
   63MOL   O31035154   3.732   4.166   7.040  0.4256 -0.2532 -0.8372
   63MOL   C31135155   3.783   4.053   7.054  1.2836  0.2749  0.1961
   63MOL   O31235156   3.718   3.942   7.023 -0.2744  0.4996 -0.3849
   63MOL   C31335157   3.922   4.032   7.104 -0.3262  0.0149  0.3497
   63MOL   C31435158   4.005   4.146   7.132  0.3090  0.3179 -0.4751
   63MOL   C31535159   4.135   4.122   7.183  0.1305 -0.7534  0.4716
   63MOL   C31635160   4.234   4.222   7.200  0.3273 -0.2869 -0.3929
   63MOL   C31735161   4.361   4.192   7.254  0.0456  0.0411  0.3769
   63MOL   C31835162   4.400   4.063   7.287  0.2072 -0.2813 -0.5268
   63MOL   C31935163   4.537   4.034   7.340 -0.7812  0.2233 -0.5301
   63MOL   O32035164   4.633   4.107   7.282 -0.2198  0.5900 -0.3785
   63MOL   C32135165   4.771   4.061   7.299 -0.2487 -0.1083  0.7155
   63MOL   C32235166   4.800   3.966   7.177 -0.2939  0.1420  0.6064
   63MOL   O32335167   4.560   3.939   7.419 -0.3131  0.0240 -0.4020
   63MOL   C32435168   4.304   3.962   7.269 -0.0147  0.3551  0.1812
   63MOL   C32535169   4.178   3.991   7.211  0.1236  0.0630  0.4197
   63MOL   C32635170   4.094   3.879   7.190 -0.1563  0.7152  0.2024
   63MOL   C32735171   3.968   3.899   7.132 -0.1884 -0.6115  0.0844
   63MOL   H32835172   3.973   4.247   7.111 -0.6971  0.1955  0.4067
   63MOL   H32935173   4.204   4.325   7.186  0.2198 -0.2889 -0.1774
   63MOL   H33035174   4.435   4.271   7.256  0.3232 -0.1215 -1.8596
   63MOL   H33135175   4.787   4.006   7.392  1.3762  0.1078  0.5780
   63MOL   H33235176   4.848   4.138   7.309 -0.6989  0.3088  0.9240
   63MOL   H33335177   4.871   3.887   7.202  1.1196  1.2234  0.0869
   63MOL   H33435178   4.710   3.912   7.146  0.5126 -0.5798 -0.5123
   63MOL   H33535179   4.322   3.862   7.304 -0.3672  0.3929  0.4626
   63MOL   H33635180   4.126   3.786   7.235  0.3210  0.2992 -0.9641
   63MOL   H33735181   3.899   3.816   7.133  0.5072 -1.1844 -0.1127
   63MOL   O33835182   4.868   3.883   6.942 -0.1108 -0.7834 -0.2825
   63MOL   C33935183   4.886   4.003   6.962 -0.0555  0.1954  0.1718
   63MOL   O34035184   4.857   4.051   7.079 -0.2976  0.0235 -0.2181
   63MOL   C34135185   4.928   4.115   6.869  0.1312  1.0537 -0.7689
   63MOL   C34235186   4.937   4.089   6.730  0.3170 -0.1587 -0.4729
   63MOL   C34335187   4.978   4.185   6.635  0.2472  0.0560 -0.2760
   63MOL   C34435188   4.993   4.150   6.501 -0.4176 -0.6578 -0.4310
   63MOL   C34535189   5.037   4.254   6.413  0.5200 -0.1300  0.1338
   63MOL   C34635190   5.069   4.390   6.455  0.0125 -0.7579 -0.3890
   63MOL   C34735191   5.123   4.488   6.353  1.1304 -0.6212 -0.4983
   63MOL   O34835192   5.197   4.585   6.414  0.5120  0.5278  0.6820
   63MOL   C34935193   5.266   4.674   6.326 -0.4712 -0.7814 -0.1784
   63MOL   C35035194   5.176   4.790   6.283 -0.2520 -0.5451  0.0233
   63MOL   O35135195   5.100   4.475   6.235  0.6664 -0.2520  0.3810
   63MOL   C35235196   5.050   4.419   6.595  0.1329  0.0411  0.5500
   63MOL   C35335197   5.001   4.317   6.681 -0.0417  0.0657  0.8730
   63MOL   C35435198   4.991   4.348   6.820 -0.0412 -0.2950  0.1973
   63MOL   C35535199   4.951   4.249   6.913 -0.7076 -0.2776 -0.3342
   63MOL   H35635200   4.902   3.993   6.696 -0.1257 -0.5308  0.9985
   63MOL   H35735201   4.982   4.055   6.451  0.2022 -0.6498 -0.5918
   63MOL   H35835202   5.050   4.231   6.308 -0.4021  1.1590 -0.2865
   63MOL   H35935203   5.319   4.623   6.246 -1.1723  1.2864 -2.0008
   63MOL   H36035204   5.333   4.723   6.396 -2.8064  1.5110  0.5018
   63MOL   H36135205   5.243   4.872   6.257  0.1064 -1.2722 -1.4158
   63MOL   H36235206   5.115   4.761   6.197 -1.3193  0.2671  0.4951
   63MOL   H36335207   5.057   4.515   6.644  0.5343  0.8180 -1.0358
   63MOL   H36435208   5.002   4.446   6.864 -0.3884  0.2083 -0.8251
   63MOL   H36535209   4.951   4.270   7.019  0.0798 -0.2513 -0.3348
   63MOL   O36635210   5.253   4.961   6.487 -0.0471 -0.1829  0.1418
   63MOL   C36735211   5.142   4.904   6.494 -0.6034 -0.3228  0.4077
   63MOL   O36835212   5.093   4.838   6.388 -0.1388  0.1358 -0.1318
   63MOL   C36935213   5.047   4.907   6.610  0.4137 -0.4834 -0.1850
   63MOL   C37035214   4.964   4.798   6.650  0.3847 -0.1777 -0.1431
   63MOL   C37135215   4.880   4.807   6.764  0.0066  0.5137  0.5240
   63MOL   C37235216   4.800   4.702   6.800  0.4167  0.0990 -0.4984
   63MOL   C37335217   4.724   4.711   6.919 -0.1836 -0.4931  0.4138
   63MOL   C37435218   4.739   4.824   7.006  0.2648  0.5501  0.1941
   63MOL   C37535219   4.673   4.833   7.138  0.0689 -0.7811 -0.3237
   63MOL   O37635220   4.605   4.723   7.169  0.0495  0.0200 -0.3667
   63MOL   C37735221   4.523   4.723   7.286  0.3775 -0.3685 -0.1345
   63MOL   C37835222   4.398   4.634   7.270  0.6286 -0.1838  0.6384
   63MOL   O37935223   4.673   4.932   7.207  0.2660  0.6119 -0.1070
   63MOL   C38035224   4.816   4.934   6.962  0.2632 -0.9778 -1.0181
   63MOL   C38135225   4.884   4.925   6.841  0.0802 -0.0651  0.3846
   63MOL   C38235226   4.968   5.029   6.807  0.5585  0.1342  0.0013
   63MOL   C38335227   5.044   5.024   6.692  0.1875 -1.1067  0.5432
   63MOL   H38435228   4.957   4.709   6.589 -0.3282 -0.0548 -0.2508
   63MOL   H38535229   4.798   4.610   6.743 -0.5474 -0.1263 -0.1138
   63MOL   H38635230   4.662   4.625   6.943  1.9677 -2.3398 -0.5202
   63MOL   H38735231   4.502   4.819   7.333  0.6244  0.5069 -1.7809
   63MOL   H38835232   4.589   4.676   7.360 -0.1369 -2.0248 -0.7100
   63MOL   H38935233   4.411   4.573   7.181  0.9386  0.1044  0.4819
   63MOL   H39035234   4.397   4.574   7.360 -2.3049 -0.6307  0.3730
   63MOL   H39135235   4.829   5.019   7.027  0.5938 -2.7414  1.2545
   63MOL   H39235236   4.989   5.114   6.871 -0.8700  2.4813 -2.5369
   63MOL   H39335237   5.109   5.104   6.661 -1.2088 -0.2845 -0.3144
   63MOL   O39435238   4.161   4.535   7.354 -0.2647  0.1260  0.1266
   63MOL   C39535239   4.165   4.651   7.313  0.1610  0.4153  0.0911
   63MOL   O39635240   4.280   4.708   7.260 -0.1318 -0.1218  0.1466
   63MOL   C39735241   4.049   4.741   7.328  0.2826 -0.2749 -0.1213
   63MOL   C39835242   3.912   4.698   7.321 -0.6220  0.1413  0.2442
   63MOL   C39935243   3.804   4.791   7.323 -0.0327  0.3400  0.3213
   63MOL   C40035244   3.668   4.746   7.315 -0.1810  0.0151  0.0794
   63MOL   C40135245   3.557   4.836   7.307  0.1287  0.4862  0.3405
   63MOL   C40235246   3.589   4.975   7.290  0.0941  0.2747  0.0932
   63MOL   C40335247   3.488   5.087   7.259 -0.1060 -1.1598 -0.0234
   63MOL   O40435248   3.380   5.035   7.200  0.1773 -0.5457 -0.1076
   63MOL   C40535249   3.270   5.114   7.175 -0.4707  0.0196  0.1145
   63MOL   C40635250   3.175   5.130   7.305  0.2446  0.8267  0.3401
   63MOL   O40735251   3.500   5.207   7.292 -0.2331 -0.5278 -0.4147
   63MOL   C40835252   3.724   5.014   7.302 -0.4130  0.6209  0.0530
   63MOL   C40935253   3.832   4.927   7.328  0.7967  0.3934 -0.1852
   63MOL   C41035254   3.963   4.971   7.337 -0.0491  0.2148 -0.5142
   63MOL   C41135255   4.073   4.879   7.339 -0.0434 -0.2579 -0.7188
   63MOL   H41235256   3.883   4.596   7.304  1.2180 -0.7410  2.0864
   63MOL   H41335257   3.655   4.640   7.334  0.5818 -0.7864 -3.5654
   63MOL   H41435258   3.454   4.806   7.299 -0.3343  1.8057  1.1084
   63MOL   H41535259   3.213   5.056   7.103 -0.5642  1.1989 -0.7688
   63MOL   H41635260   3.304   5.203   7.124 -0.0961 -0.4490 -0.4539
   63MOL   H41735261   3.071   5.153   7.281 -0.2604 -1.1772  0.5459
   63MOL   H41835262   3.147   5.036   7.352 -0.9072  0.5816 -0.8207
   63MOL   H41935263   3.752   5.113   7.268  1.4301 -0.4918 -1.7811
   63MOL   H42035264   3.986   5.077   7.333 -1.9721  0.7137  0.9712
   63MOL   H42135265   4.173   4.920   7.340  0.1954 -0.7851 -2.3117
   63MOL   O42235266   3.152   5.422   7.313  0.0619  0.3848  0.0127
   63MOL   C42335267   3.215   5.353   7.400 -0.0514  0.0787 -0.5670
   63MOL   O42435268   3.224   5.213   7.409  0.0453 -0.1194  0.8037
   63MOL   C42535269   3.305   5.409   7.506 -0.0166  0.2273 -0.8190
   63MOL   C42635270   3.339   5.334   7.619 -1.1297  0.5755 -0.1444
   63MOL   C42735271   3.432   5.385   7.715 -0.3271  0.5507  0.1437
   63MOL   C42835272   3.482   5.309   7.824  0.0403 -0.8566  0.5107
   63MOL   C42935273   3.573   5.359   7.917 -0.5761  0.0336 -0.6529
   63MOL   C43035274   3.624   5.491   7.900 -0.0747  0.1271  0.1587
   63MOL   C43135275   3.741   5.526   7.986  0.0760 -0.1025  0.3658
   63MOL   O43235276   3.785   5.650   7.968  0.8331  0.0952  0.5604
   63MOL   C43335277   3.888   5.698   8.052  0.4180  0.6680 -0.5563
   63MOL   C43435278   4.023   5.669   7.990  0.7668 -0.2004 -1.0423
   63MOL   O43535279   3.788   5.446   8.064  0.3402  0.3114 -0.5518
   63MOL   C43635280   3.568   5.571   7.797 -0.0666 -0.1578  0.1921
   63MOL   C43735281   3.488   5.514   7.696  0.7319 -0.2330  0.7673
   63MOL   C43835282   3.438   5.594   7.587 -0.2493 -0.1304 -0.7973
   63MOL   C43935283   3.352   5.544   7.491 -0.4824  1.1997  0.1291
   63MOL   H44035284   3.307   5.232   7.632  0.5603  0.0150 -0.1975
   63MOL   H44135285   3.437   5.213   7.840 -0.5152 -1.2860 -3.0660
   63MOL   H44235286   3.618   5.296   7.993  0.9257  0.1972 -1.3892
   63MOL   H44335287   3.883   5.655   8.152 -1.3386  0.8994 -0.5292
   63MOL   H44435288   3.878   5.805   8.071  1.0012  0.2104  2.4472
   63MOL   H44535289   4.048   5.567   8.020 -0.2568  0.3617  1.8305
   63MOL   H44635290   4.016   5.683   7.882  0.5212  1.3034 -0.8402
   63MOL   H44735291   3.594   5.676   7.798 -1.2469  0.1402  1.3478
   63MOL   H44835292   3.487   5.689   7.574  0.0618 -0.0777  0.6174
   63MOL   H44935293   3.327   5.617   7.416  0.1938 -0.4251 -1.7095
   63MOL   O45035294   4.243   5.733   7.866 -0.1104 -0.2954 -0.2200
   63MOL   C45135295   4.230   5.781   7.982 -0.3471 -0.3101  0.3375
   63MOL   O45235296   4.129   5.744   8.052 -0.2896 -0.4519 -0.1858
   63MOL   C45335297   4.324   5.868   8.045  0.0799  0.2015 -0.4148
   63MOL   C45435298   4.439   5.919   7.981 -0.1216 -0.4455  0.1353
   63MOL   C45535299   4.513   6.022   8.044 -0.4570  0.6294  0.0623
   63MOL   C45635300   4.634   6.061   7.984 -0.0213 -0.5232  1.2885
   63MOL   C45735301   4.710   6.166   8.044  0.1001 -0.0495 -0.5944
   63MOL   C45835302   4.673   6.222   8.168 -0.0515  0.8341 -0.4768
   63MOL   C45935303   4.766   6.312   8.244 -0.5240 -0.1719  0.6074
   63MOL   O46035304   4.879   6.341   8.168  0.0897  0.6304  0.2039
   63MOL   C46135305   4.973   6.438   8.212  0.2752  0.1045 -0.0547
   63MOL   C46235306   4.938   6.578   8.176  0.7324  0.2267 -0.4989
   63MOL   O46335307   4.755   6.354   0.114 -0.2814  0.3683 -0.2039
   63MOL   C46435308   4.559   6.168   8.236 -0.3370  0.2287  0.4015
   63MOL   C46535309   4.472   6.078   8.169  0.2336 -0.2006  0.0125
   63MOL   C46635310   4.356   6.025   8.235 -0.6579 -0.8590 -0.0351
   63MOL   C46735311   4.288   5.922   8.177  0.5923  0.3166  0.4408
   63MOL   H46835312   4.461   5.895   7.878 -2.4528 -3.5573  0.3246
   63MOL   H46935313   4.657   6.027   7.884  3.0255  2.0464  1.0416
   63MOL   H47035314   4.798   6.190   7.987 -1.4584  2.9495 -1.8276
   63MOL   H47135315   5.062   6.421   8.151 -0.3701 -0.9716 -0.6971
   63MOL   H47235316   4.998   6.422   0.068  1.6260  0.4529 -0.3150
   63MOL   H47335317   5.018   6.644   8.209  0.7096  0.0354 -0.0649
   63MOL   H47435318   4.915   6.597   8.071 -0.0656 -0.2161 -0.4125
   63MOL   H47535319   4.535   6.206   0.085  1.4540  0.2507  0.8558
   63MOL   H47635320   4.338   6.050   0.090 -2.0176 -0.5925 -0.3342
   63MOL   H47735321   4.213   5.871   8.236  0.7107 -1.7916 -1.1520
   63MOL   O47835322   4.841   6.831   8.217 -0.2557 -0.0761 -0.4540
   63MOL   C47935323   4.780   6.737   0.017 -0.7993  0.1799  0.3662
   63MOL   O48035324   4.825   6.609   0.014  0.1558 -0.1922  0.6830
   63MOL   C48135325   4.647   6.750   0.077  0.1160  0.8247  0.2082
   63MOL   C48235326   4.584   6.876   0.072 -0.5354 -0.1578 -0.1847
   63MOL   C48335327   4.452   6.899   0.113  0.3892 -0.5628 -0.5451
   63MOL   C48435328   4.397   7.026   0.116  0.3804  0.0336 -0.1768
   63MOL   C48535329   4.271   7.048   0.166 -0.4264  0.4020  1.0279
   63MOL   C48635330   4.194   6.944   0.220 -0.4236  0.6321 -0.4165
   63MOL   C48735331   4.057   6.969   0.268  0.5970  0.2332  0.8714
   63MOL   O48835332   3.994   6.863   0.325  0.2065  0.0412  0.2348
   63MOL   C48935333   3.859   6.874   0.359  0.2119  0.0796  0.1747
   63MOL   C49035334   3.763   6.847   0.247  0.4769 -0.2381 -0.6022
   63MOL   O49135335   4.007   7.082   0.262 -0.0143 -0.0120 -0.4423
   63MOL   C49235336   4.245   6.812   0.216 -0.6129  0.8619 -0.3663
   63MOL   C49335337   4.377   6.788   0.161  0.4670 -0.2997  0.4769
   63MOL   C49435338   4.438   6.663   0.156  0.0495 -0.2103  0.5189
   63MOL   C49535339   4.571   6.646   0.125  0.2009  0.1854  0.1347
   63MOL   H49635340   4.631   6.965   0.034 -1.4561 -0.7961 -2.8805
   63MOL   H49735341   4.444   7.117   0.083  0.2459 -0.4112 -1.6314
   63MOL   H49835342   4.236   7.150   0.167 -0.1763  0.4858  1.3828
   63MOL   H49935343   3.835   6.975   0.391 -0.5460 -0.4147  1.1670
   63MOL   H50035344   3.846   6.811   0.447  2.1624 -0.0949  0.3639
   63MOL   H50135345   3.809   6.853   0.149 -1.3005  2.7068 -1.3219
   63MOL   H50235346   3.732   6.743   0.260 -0.3704  0.3330  2.3858
   63MOL   H50335347   4.189   6.721   0.235 -1.3972  1.3044 -0.5691
   63MOL   H50435348   4.381   6.578   0.192  0.1240 -1.2931 -1.8563
   63MOL   H50535349   4.619   6.552   0.144  0.4639 -0.0401 -1.5759
   63MOL   O50635350   3.498   6.812   0.348  0.7792  0.2965 -0.5790
   63MOL   C50735351   3.534   6.914   0.290 -0.5706 -0.1295 -0.4560
   63MOL   O50835352   3.648   6.937   0.237 -0.2843 -0.2325 -0.3300
   63MOL   C50935353   3.439   7.033   0.267  0.0012 -0.0498 -0.3704
   63MOL   C51035354   3.491   7.143   0.199 -0.1944  1.0214  0.2220
   63MOL   C51135355   3.399   7.236   0.160 -0.7269 -0.4797 -1.0319
   63MOL   C51235356   3.438   7.334   0.072  0.2432  0.0477 -0.0636
   63MOL   C51335357   3.349   7.419   0.012 -0.4718  0.1377 -0.4229
   63MOL   C51435358   3.212   7.418   0.053 -1.3552  0.3842  0.5705
   63MOL   C51535359   3.117   7.513   8.241  0.7542  0.5388 -0.4229
   63MOL   O51635360   3.175   7.570   8.132  0.0234  0.2899 -0.5444
   63MOL   C51735361   3.156   7.705   8.108  0.0742 -0.7947 -0.2262
   63MOL   C51835362   3.268   7.785   8.174 -0.1841 -0.5469 -0.0876
   63MOL   O51935363   3.014   7.551   0.043  0.5499 -0.4912  0.2670
   63MOL   C52035364   3.178   7.338   0.161 -0.3941  0.5721 -0.2531
   63MOL   C52135365   3.268   7.238   0.210 -1.1081 -0.4657  0.4246
   63MOL   C52235366   3.228   7.139   0.300 -0.0713 -0.4059  0.2450
   63MOL   C52335367   3.309   7.032   0.329  0.5287 -0.1418 -0.2284
   63MOL   H52435368   3.592   7.143   0.161  0.7853 -0.5136  2.7004
   63MOL   H52535369   3.536   7.340   0.026 -0.2908 -1.3301 -1.4196
   63MOL   H52635370   3.383   7.480   8.179 -4.1280  2.5404 -0.2882
   63MOL   H52735371   3.065   7.751   8.148 -1.2247 -1.1934 -2.6338
   63MOL   H52835372   3.156   7.724   8.001  2.7875 -2.1607 -0.5044
   63MOL   H52935373   3.362   7.750   8.132  0.5815  2.1536 -0.6894
   63MOL   H53035374   3.251   7.893   8.177 -2.4588 -0.8432 -1.4303
   63MOL   H53135375   3.076   7.339   0.196 -0.1984  2.7384  0.3133
   63MOL   H53235376   3.127   7.135   0.336 -0.9898 -0.5930 -2.2756
   63MOL   H53335377   3.271   6.953   0.392  0.1733  0.9617  0.9683
   63MOL   O53435378   3.496   7.811   0.081  0.2938 -0.6051  0.0664
   63MOL   C53535379   3.391   7.768   0.132 -0.1371 -0.1249 -0.2490
   63MOL   O53635380   3.280   7.751   0.062  0.3341  0.4362  0.0956
   63MOL   C53735381   3.394   7.711   0.264 -0.6343 -0.5062  0.1010
   63MOL   C53835382   3.282   7.651   0.328  0.9645  0.5054 -0.5304
   63MOL   C53935383   3.295   7.586   0.456 -0.4571 -0.1545 -0.8129
   63MOL   C54035384   3.194   7.497   0.506 -0.1041 -0.6165  0.0553
   63MOL   C54135385   3.208   7.447   0.637 -0.8262 -0.3424 -0.6794
   63MOL   C54235386   3.324   7.463   0.714 -0.7606  0.2241  0.2702
   63MOL   C54335387   3.348   7.415   0.856 -0.0644  0.5329  0.0227
   63MOL   O54435388   3.256   7.323   0.902  0.0485  0.3117  0.3397
   63MOL   C54535389   3.261   7.289   1.036  0.1587  0.0576 -0.1924
   63MOL   C54635390   3.340   7.162   1.048 -0.4216 -0.7767  0.1873
   63MOL   O54735391   3.444   7.456   0.918 -0.4184 -0.2359 -0.0296
   63MOL   C54835392   3.429   7.541   0.656  0.0031 -0.7694  0.8798
   63MOL   C54935393   3.419   7.588   0.520 -0.5278 -0.9117  0.4611
   63MOL   C55035394   3.534   7.650   0.455 -0.4237  0.4321  0.2221
   63MOL   C55135395   3.522   7.706   0.327  0.4812  0.1286  0.6605
   63MOL   H55235396   3.185   7.656   0.281  1.9000  2.8339 -2.3085
   63MOL   H55335397   3.104   7.485   0.448  0.8207 -0.9970 -1.3071
   63MOL   H55435398   3.119   7.402   0.679 -1.1783  2.4888  1.7808
   63MOL   H55535399   3.157   7.263   1.058  0.3784  0.2929  1.1764
   63MOL   H55635400   3.291   7.366   1.107 -2.0936  0.5357  0.2909
   63MOL   H55735401   3.446   7.173   1.027 -0.8540  0.8745 -1.2118
   63MOL   H55835402   3.293   7.082   0.990 -0.3506 -2.2658  2.1365
   63MOL   H55935403   3.519   7.553   0.713 -0.4598 -0.1027  1.4810
   63MOL   H56035404   3.629   7.642   0.504 -0.9911  0.4516  1.3468
   63MOL   H56135405   3.613   7.752   0.292  0.8155  0.4962  1.9839
   63MOL   H56235406   3.338   7.127   1.151  0.4259 -2.4824 -0.3558
   64MOL     O135407   3.119   1.046   2.709  0.6582 -0.0695  0.6016
   64MOL     C235408   3.190   0.983   2.631  0.4021  1.1272  0.2703
   64MOL     O335409   3.294   1.033   2.562 -0.1535 -0.0408  0.7035
   64MOL     C435410   3.188   0.834   2.633  0.1130  0.1729 -0.2930
   64MOL     C535411   3.172   0.762   2.747  0.5416  0.4668 -0.4213
   64MOL     C635412   3.171   0.621   2.751  0.6185 -0.8205  0.0449
   64MOL     C735413   3.153   0.549   2.866 -0.4409  0.0243 -0.3981
   64MOL     C835414   3.156   0.409   2.864  0.3089 -0.1382 -0.4114
   64MOL     C935415   3.172   0.341   2.745  0.2429  0.1231 -0.1402
   64MOL    C1035416   3.157   0.195   2.745 -0.8339  0.0524 -0.8296
   64MOL    O1135417   3.144   0.136   2.866  0.0795 -0.3035  0.2156
   64MOL    C1235418   3.169   0.002   2.892 -0.2919  0.6156 -0.5345
   64MOL    C1335419   3.321   8.225   2.929  0.7340  0.1834  0.4519
   64MOL    O1435420   3.165   0.134   2.635 -0.2296 -0.2347  0.1637
   64MOL    C1535421   3.190   0.413   2.623 -0.3152 -0.3453  0.5394
   64MOL    C1635422   3.192   0.555   2.630 -0.8972 -0.2310  0.2433
   64MOL    C1735423   3.200   0.621   2.508 -0.1581 -0.3594  0.1810
   64MOL    C1835424   3.208   0.767   2.513 -0.1311 -0.2509  0.3840
   64MOL    H1935425   3.160   0.808   2.844  1.9306  0.2275 -0.1188
   64MOL    H2035426   3.128   0.602   2.956 -3.7507 -2.4343  0.2163
   64MOL    H2135427   3.147   0.359   2.959 -0.8199  0.1132 -0.3825
   64MOL    H2235428   3.106   8.211   2.971 -0.4448 -0.8192 -1.3704
   64MOL    H2335429   3.139   8.194   2.805  1.0999 -1.6790  0.4662
   64MOL    H2435430   3.321   8.117   2.942 -2.1811  0.3216  2.0626
   64MOL    H2535431   3.382   8.244   2.841 -1.2845 -0.4564 -1.1221
   64MOL    H2635432   3.192   0.361   2.528 -1.8427  0.8471 -0.1700
   64MOL    H2735433   3.210   0.567   2.415 -0.8259  2.9056 -1.8591
   64MOL    H2835434   3.215   0.811   2.415 -2.3352  0.1443  0.3719
   64MOL    H2935435   3.323   1.123   2.567  0.7631 -0.3339  0.8521
   64MOL    O3035436   3.579   0.004   3.020 -0.3324 -0.0128  0.6098
   64MOL    C3135437   3.490   0.058   3.086 -0.6514  0.5266  0.3729
   64MOL    O3235438   3.363   0.053   3.045  0.2094  0.1672 -0.0082
   64MOL    C3335439   3.505   0.116   3.220 -0.1906  0.4953 -0.6503
   64MOL    C3435440   3.620   0.076   3.292 -0.0343  0.2490 -0.1849
   64MOL    C3535441   3.645   0.133   3.416 -0.3032  0.9905 -0.0670
   64MOL    C3635442   3.759   0.101   3.487 -0.2595  0.0898  0.3496
   64MOL    C3735443   3.791   0.165   3.615 -0.2308  0.3748  0.7000
   64MOL    C3835444   3.712   0.273   3.663 -0.2000 -0.2622 -0.2017
   64MOL    C3935445   3.744   0.353   3.786 -0.2746  0.3317  0.3619
   64MOL    O4035446   3.654   0.447   3.809  0.5744 -0.4352  0.3103
   64MOL    C4135447   3.665   0.535   3.920 -0.3098  0.0708 -0.5419
   64MOL    C4235448   3.547   0.524   4.015  0.1241 -0.1598 -0.6892
   64MOL    O4335449   3.841   0.331   3.854 -0.0528  0.3418  0.0137
   64MOL    C4435450   3.599   0.307   3.581 -0.2441  0.1602 -0.0067
   64MOL    C4535451   3.567   0.239   3.464  0.2425  0.1531 -0.7391
   64MOL    C4635452   3.452   0.282   3.392  0.4054  0.2176  0.1427
   64MOL    C4735453   3.418   0.211   3.274 -0.2343  0.2732 -0.8687
   64MOL    H4835454   3.692   0.003   3.257 -2.2716 -1.8658 -0.5385
   64MOL    H4935455   3.829   0.024   3.460  0.5218  0.3160  1.6830
   64MOL    H5035456   3.879   0.139   3.672 -0.6125 -1.3414  0.5469
   64MOL    H5135457   3.659   0.631   3.868 -2.1736  0.2924  0.0386
   64MOL    H5235458   3.762   0.529   3.969  0.2410 -0.6535 -1.7047
   64MOL    H5335459   3.471   0.456   3.975 -1.1646  1.6081 -1.3014
   64MOL    H5435460   3.578   0.478   4.109 -2.3082 -1.0257 -0.2639
   64MOL    H5535461   3.528   0.378   3.622  1.6097  2.1019 -0.0911
   64MOL    H5635462   3.381   0.361   3.412 -0.5182 -0.9193  1.4195
   64MOL    H5735463   3.340   0.249   3.210  2.1074  3.6957 -1.8130
   64MOL    O5835464   3.630   0.717   4.197  0.0131 -0.3474  0.4754
   64MOL    C5935465   3.528   0.738   4.131  0.6064  0.2282  0.0527
   64MOL    O6035466   3.494   0.655   4.025  0.1429  0.2698 -0.0027
   64MOL    C6135467   3.437   0.855   4.141 -0.4533  0.3904 -0.3777
   64MOL    C6235468   3.455   0.949   4.241  0.6909  0.1705  0.5546
   64MOL    C6335469   3.363   1.057   4.260 -1.1578 -0.5135  0.0466
   64MOL    C6435470   3.374   1.144   4.369  0.5235  0.0350 -0.2918
   64MOL    C6535471   3.299   1.264   4.381 -0.5189 -0.3541  0.1802
   64MOL    C6635472   3.196   1.285   4.290  0.4457 -0.5023  0.8024
   64MOL    C6735473   3.100   1.398   4.309  0.9650  0.5233 -0.4518
   64MOL    O6835474   3.139   1.495   4.393 -0.1901  0.4871  0.5867
   64MOL    C6935475   3.057   1.602   4.417 -0.4449 -0.1810 -1.0103
   64MOL    C7035476   3.138   1.699   4.504  0.3210 -0.3456 -0.2870
   64MOL    O7135477   2.993   1.401   4.243 -0.3152 -1.2083  0.0114
   64MOL    C7235478   3.179   1.195   4.176 -0.5090 -0.1582  0.1413
   64MOL    C7335479   3.264   1.084   4.167  0.2422  0.1886 -0.3452
   64MOL    C7435480   3.245   0.996   4.059  0.0564 -0.4709  0.0551
   64MOL    C7535481   3.333   0.881   4.042 -0.0186  0.1176 -0.6681
   64MOL    H7635482   3.532   0.931   4.315 -0.7993 -0.6722  1.9402
   64MOL    H7735483   3.451   1.117   4.440  0.6145 -3.0943 -1.4865
   64MOL    H7835484   3.318   1.327   4.467  1.3547 -2.1644  1.1127
   64MOL    H7935485   2.961   1.585   4.466 -1.4847  0.5461 -2.7762
   64MOL    H8035486   3.025   1.640   4.320 -0.6625 -0.8699 -1.2107
   64MOL    H8135487   3.246   1.682   4.499  0.4434  0.4047 -0.3232
   64MOL    H8235488   3.128   1.800   4.464 -0.4238 -0.7466 -1.1185
   64MOL    H8335489   3.097   1.200   4.106 -0.0536  1.3876 -0.3064
   64MOL    H8435490   3.177   1.019   3.978 -0.0153  1.7695  0.7383
   64MOL    H8535491   3.316   0.814   3.959  0.5360 -1.0013  0.0923
   64MOL    O8635492   3.199   1.539   4.722 -0.4128 -0.4198 -0.1105
   64MOL    C8735493   3.134   1.641   4.735 -0.1879 -0.0906 -0.0557
   64MOL    O8835494   3.093   1.720   4.636 -0.2631  0.0641 -0.3273
   64MOL    C8935495   3.083   1.692   4.864  0.7197  0.1919 -0.7695
   64MOL    C9035496   3.125   1.639   4.985  0.3863  0.1287  0.1557
   64MOL    C9135497   3.082   1.692   5.105  0.5706  0.0793 -0.2131
   64MOL    C9235498   3.127   1.627   5.221 -0.2882  0.3928 -0.2462
   64MOL    C9335499   3.093   1.674   5.349  0.6241  0.2391  0.1845
   64MOL    C9435500   3.001   1.787   5.360  0.7654  0.2884 -0.1196
   64MOL    C9535501   2.955   1.832   5.494  0.4944  0.2393 -0.2556
   64MOL    O9635502   2.831   1.897   5.493 -0.7247 -0.0423 -0.0121
   64MOL    C9735503   2.786   1.965   5.604 -0.3443 -0.2727 -0.0844
   64MOL    C9835504   2.835   2.111   5.589  0.2530  0.1390  0.2387
   64MOL    O9935505   3.015   1.810   5.599 -0.8852 -0.2626  0.3779
   64MOL   C10035506   2.952   1.851   5.241  0.6028 -0.0294 -0.1472
   64MOL   C10135507   2.996   1.798   5.115  0.2833 -0.8672  0.1692
   64MOL   C10235508   2.950   1.857   4.995 -0.4852 -0.2606  0.3187
   64MOL   C10335509   2.991   1.807   4.870 -0.4323  0.0531  0.5237
   64MOL   H10435510   3.190   1.552   4.984 -2.2309 -1.9066 -1.3060
   64MOL   H10535511   3.194   1.543   5.214 -0.3195  0.0973  2.6318
   64MOL   H10635512   3.132   1.636   5.442  0.3003 -0.2449  0.1218
   64MOL   H10735513   2.821   1.920   5.697 -3.7190 -0.6357  1.0789
   64MOL   H10835514   2.677   1.959   5.603 -0.2451 -2.0554 -0.2921
   64MOL   H10935515   2.825   2.150   5.690  1.5882 -0.2894  0.5518
   64MOL   H11035516   2.941   2.109   5.562  0.2722 -0.9980  0.3434
   64MOL   H11135517   2.886   1.936   5.245 -0.6258 -0.9595 -0.2623
   64MOL   H11235518   2.887   1.944   4.998  0.4941  0.4428  0.8341
   64MOL   H11335519   2.959   1.856   4.779  1.8501 -1.8324 -1.3353
   64MOL   O11435520   2.927   2.210   5.359 -0.1472  0.3641  0.4376
   64MOL   C11535521   2.809   2.222   5.389 -0.0880  0.1469 -0.9220
   64MOL   O11635522   2.753   2.175   5.496  0.4861  0.1242  0.0137
   64MOL   C11735523   2.709   2.294   5.304 -0.0291 -0.0561  0.0239
   64MOL   C11835524   2.746   2.386   5.202  0.3018 -0.4332  0.1231
   64MOL   C11935525   2.649   2.441   5.115 -0.1532 -0.3341 -0.0678
   64MOL   C12035526   2.690   2.529   5.010  0.6908 -0.1145  0.2336
   64MOL   C12135527   2.601   2.593   4.923  0.2388  0.2995 -0.1009
   64MOL   C12235528   2.462   2.566   4.943 -0.7451 -0.8255 -0.7478
   64MOL   C12335529   2.370   2.626   4.840  0.3835  0.7866  0.9396
   64MOL   O12435530   2.425   2.660   4.721 -0.3706  0.4296 -0.2748
   64MOL   C12535531   2.347   2.725   4.622  0.9996 -0.1049 -0.1363
   64MOL   C12635532   2.274   2.620   4.533 -0.0296  0.0344 -0.7025
   64MOL   O12735533   2.252   2.650   4.868 -0.0517 -0.5497  0.2827
   64MOL   C12835534   2.420   2.479   5.047 -0.4646 -0.2065 -0.9395
   64MOL   C12935535   2.511   2.413   5.130  0.2149 -0.8368 -0.2246
   64MOL   C13035536   2.469   2.326   5.234 -0.0130 -0.1936  0.7406
   64MOL   C13135537   2.569   2.269   5.322 -0.0382  0.5834 -0.5452
   64MOL   H13235538   2.852   2.408   5.201  0.2604  0.1394  3.3314
   64MOL   H13335539   2.792   2.562   5.003  0.2390  0.7865 -2.9552
   64MOL   H13435540   2.625   2.659   4.841 -3.0990  0.6195 -0.8588
   64MOL   H13535541   2.424   2.781   4.569  2.4657 -2.6550 -0.7933
   64MOL   H13635542   2.267   2.792   4.652  0.9044  1.6072 -3.9040
   64MOL   H13735543   2.344   2.540   4.509 -0.4578 -1.0474  1.4455
   64MOL   H13835544   2.186   2.574   4.578  0.4181  0.5720  0.7481
   64MOL   H13935545   2.314   2.457   5.057 -0.0697 -1.1123  1.7147
   64MOL   H14035546   2.362   2.315   5.245 -0.0785  0.8803  1.2514
   64MOL   H14135547   2.528   2.199   5.393 -3.6237 -0.0826 -3.0794
   64MOL   O14235548   2.261   2.498   4.281  0.0084  0.3369  0.5437
   64MOL   C14335549   2.240   2.619   4.289  0.0030 -0.2763  0.1460
   64MOL   O14435550   2.230   2.689   4.413 -0.0994  0.4898  0.3677
   64MOL   C14535551   2.231   2.709   4.169  0.6893 -0.2652 -0.4066
   64MOL   C14635552   2.199   2.842   4.175 -0.2139 -0.1867  0.2206
   64MOL   C14735553   2.229   2.923   4.063 -0.3297 -0.5415  0.1827
   64MOL   C14835554   2.229   3.060   4.074  0.2813 -0.5544 -0.1401
   64MOL   C14935555   2.257   3.147   3.965  0.4088  0.4848  0.2146
   64MOL   C15035556   2.288   3.092   3.840 -0.0268  0.5911 -0.0976
   64MOL   C15135557   2.300   3.180   3.720 -0.5473  0.5096 -0.9381
   64MOL   O15235558   2.387   3.132   3.637  0.3813 -0.5054 -0.8465
   64MOL   C15335559   2.448   3.211   3.541  0.1960  0.4996 -0.3280
   64MOL   C15435560   2.603   3.228   3.566 -0.0459  0.2409 -0.0304
   64MOL   O15535561   2.252   3.290   3.716 -0.2919 -0.1792 -0.3331
   64MOL   C15635562   2.297   2.953   3.831  0.3663 -0.8383 -0.0026
   64MOL   C15735563   2.273   2.869   3.941  0.4273 -0.0755 -0.3834
   64MOL   C15835564   2.293   2.731   3.933 -0.5369 -0.0256 -0.2994
   64MOL   C15935565   2.282   2.653   4.049  0.3348 -0.2944 -0.5044
   64MOL   H16035566   2.156   2.891   4.261 -1.9307 -0.4632 -0.4678
   64MOL   H16135567   2.205   3.099   4.172 -3.9171 -2.1987 -0.4203
   64MOL   H16235568   2.254   3.254   3.979  0.5702  0.2788  2.0161
   64MOL   H16335569   2.400   3.308   3.528 -2.4197 -0.4849  1.5131
   64MOL   H16435570   2.431   3.160   3.446  0.9937 -2.6135  1.1373
   64MOL   H16535571   2.646   3.148   3.626 -1.2237 -0.6547 -0.3734
   64MOL   H16635572   2.641   3.223   3.464 -0.7651  0.2403 -0.2976
   64MOL   H16735573   2.340   2.905   3.744  0.0313  1.8697 -1.7538
   64MOL   H16835574   2.319   2.679   3.842  2.0263 -0.8642  0.8837
   64MOL   H16935575   2.308   2.549   4.049  1.3195 -0.0591 -0.9743
   64MOL   O17035576   2.859   3.355   3.560 -0.8361 -0.7195  0.0859
   64MOL   C17135577   2.764   3.407   3.618  0.4167  0.3142  0.3561
   64MOL   O17235578   2.636   3.352   3.620  0.0756 -0.4225  0.5154
   64MOL   C17335579   2.784   3.527   3.701 -0.4453 -0.1973 -0.2005
   64MOL   C17435580   2.673   3.586   3.756  0.3860  0.3865  0.2307
   64MOL   C17535581   2.693   3.702   3.833 -0.1368  1.1777 -0.0556
   64MOL   C17635582   2.584   3.768   3.898 -0.0708  0.9345  0.5232
   64MOL   C17735583   2.606   3.881   3.986  0.2058 -0.7610 -0.3341
   64MOL   C17835584   2.729   3.939   3.999  1.2019  0.3741 -0.6940
   64MOL   C17935585   2.728   4.055   4.095 -0.5267  1.1379  0.1406
   64MOL   O18035586   2.846   4.118   4.087 -0.1278  0.6263  0.1918
   64MOL   C18135587   2.874   4.237   4.155 -0.2907  0.0992 -0.0734
   64MOL   C18235588   3.005   4.226   4.236 -0.3543 -0.3749  0.3677
   64MOL   O18335589   2.635   4.094   4.158 -0.3257  0.1801  0.0945
   64MOL   C18435590   2.839   3.877   3.932  0.6945  0.8610 -0.5987
   64MOL   C18535591   2.824   3.760   3.852 -0.0626  0.5850 -0.0798
   64MOL   C18635592   2.935   3.696   3.789 -0.4134  0.9931  0.2352
   64MOL   C18735593   2.917   3.574   3.716 -0.0265 -0.1200  0.5777
   64MOL   H18835594   2.574   3.541   3.748  0.9315 -0.6814 -0.6831
   64MOL   H18935595   2.487   3.721   3.893  0.0716  0.8049 -1.3719
   64MOL   H19035596   2.525   3.912   4.049  2.0603  0.5733  1.4381
   64MOL   H19135597   2.794   4.273   4.219  0.1209 -1.5426  1.3989
   64MOL   H19235598   2.877   4.308   4.073 -1.6306 -2.3455 -2.3454
   64MOL   H19335599   3.065   4.159   4.175 -1.2335 -0.6650 -0.1777
   64MOL   H19435600   3.058   4.321   4.229 -0.8615  0.0207  1.8002
   64MOL   H19535601   2.940   3.909   3.955  1.1564 -0.9884  0.0016
   64MOL   H19635602   3.035   3.735   3.805 -0.4690  1.7250 -1.0740
   64MOL   H19735603   3.006   3.535   3.670 -0.7344 -0.8054 -0.2135
   64MOL   O19835604   3.015   3.965   4.323 -0.0773  0.0011 -0.6296
   64MOL   C19935605   3.009   4.062   4.402  0.9466  0.0288 -0.9848
   64MOL   O20035606   2.984   4.180   4.369  0.0294 -0.1105  0.2795
   64MOL   C20135607   3.019   4.053   4.550 -0.4735 -0.2303  0.3276
   64MOL   C20235608   3.028   3.924   4.613 -0.2718 -0.5274  0.5450
   64MOL   C20335609   3.039   3.915   4.756 -0.0804  0.7491  0.4498
   64MOL   C20435610   3.031   3.789   4.822 -0.4308  0.0150 -0.4883
   64MOL   C20535611   3.048   3.773   4.959  0.2273 -0.1427 -0.0636
   64MOL   C20635612   3.062   3.889   5.036  0.2875  0.1855  0.3481
   64MOL   C20735613   3.078   3.879   5.185 -0.2347 -0.5250  0.1264
   64MOL   O20835614   3.073   3.998   5.250  0.0996  0.5962 -0.0967
   64MOL   C20935615   3.077   4.009   5.392 -0.8568 -0.5121 -0.4052
   64MOL   C21035616   3.219   3.981   5.451  0.2618 -0.4979  0.5233
   64MOL   O21135617   3.084   3.767   5.240  0.3691 -0.2818  0.1955
   64MOL   C21235618   3.061   4.016   4.970 -0.2153 -0.0136 -0.0709
   64MOL   C21335619   3.048   4.032   4.830  0.3438 -0.6664  0.7501
   64MOL   C21435620   3.057   4.156   4.770 -0.5118  0.4606  0.6306
   64MOL   C21535621   3.036   4.170   4.631 -0.0363 -0.0384  0.5502
   64MOL   H21635622   3.032   3.835   4.551  2.0653  0.0672 -0.1705
   64MOL   H21735623   3.022   3.699   4.764 -0.5359 -1.1162  1.2258
   64MOL   H21835624   3.048   3.679   5.013  0.9227 -0.4073 -0.5252
   64MOL   H21935625   3.008   3.942   5.444  0.3289 -2.7013 -1.5706
   64MOL   H22035626   3.048   4.109   5.423 -3.0192 -0.1460 -3.4369
   64MOL   H22135627   3.232   4.010   5.555  0.1776 -0.3245  0.4867
   64MOL   H22235628   3.222   3.873   5.443 -1.9041 -0.4913 -0.8776
   64MOL   H22335629   3.076   4.107   5.026  2.6633 -0.8538  0.5994
   64MOL   H22435630   3.086   4.247   4.820  1.0144 -0.4353  1.3982
   64MOL   H22535631   3.053   4.266   4.587  1.2134 -0.7079 -0.4580
   64MOL   O22635632   3.341   4.212   5.468 -0.4765  0.3789  0.0724
   64MOL   C22735633   3.391   4.130   5.393 -0.4845 -0.0747  0.0692
   64MOL   O22835634   3.321   4.022   5.359 -0.0666  0.6285  0.0896
   64MOL   C22935635   3.532   4.132   5.348 -0.1722 -0.5040  0.2446
   64MOL   C23035636   3.578   4.024   5.263 -0.4232  0.3990  0.0238
   64MOL   C23135637   3.710   4.026   5.218 -0.2294  0.4394  0.2534
   64MOL   C23235638   3.760   3.934   5.122  0.5823  0.0238  0.1418
   64MOL   C23335639   3.898   3.920   5.091  0.0047 -0.2419 -0.7563
   64MOL   C23435640   3.994   4.005   5.162 -0.3600  0.2534  0.1700
   64MOL   C23535641   4.136   3.973   5.147 -0.6411 -0.5639 -0.3356
   64MOL   O23635642   4.206   4.069   5.208 -0.5279 -0.1254 -0.3652
   64MOL   C23735643   4.337   4.056   5.248 -0.2738 -0.0294 -0.6114
   64MOL   C23835644   4.356   3.953   5.361  0.2119  0.1748 -0.1559
   64MOL   O23935645   4.188   3.868   5.099  0.5128 -0.6244 -0.0120
   64MOL   C24035646   3.941   4.100   5.251  0.3220  0.1258 -0.0948
   64MOL   C24135647   3.803   4.115   5.275  0.6706  0.8483 -0.5475
   64MOL   C24235648   3.762   4.215   5.363  0.4437  0.0488  0.4559
   64MOL   C24335649   3.626   4.226   5.395  0.6414  0.1339  0.3914
   64MOL   H24435650   3.513   3.948   5.222  0.0072  0.9991 -1.8143
   64MOL   H24535651   3.688   3.876   5.066  0.0408 -0.0871  0.9437
   64MOL   H24635652   3.933   3.841   5.027  0.0033  1.4114 -2.8490
   64MOL   H24735653   4.364   4.158   5.274  2.4358 -0.3124 -2.1568
   64MOL   H24835654   4.398   4.019   5.166  0.8972 -0.9789  0.6568
   64MOL   H24935655   4.341   3.851   5.326  1.7959 -0.1549  0.0940
   64MOL   H25035656   4.456   3.951   5.403 -0.7186 -0.0202  2.0816
   64MOL   H25135657   4.014   4.166   5.296 -1.3040  0.1340  2.6298
   64MOL   H25235658   3.828   4.288   5.409  1.3988  0.4917 -1.5720
   64MOL   H25335659   3.590   4.298   5.468  0.9133  0.3860  0.2779
   64MOL   O25435660   4.425   4.120   5.576  0.0867  0.3623  0.0248
   64MOL   C25535661   4.304   4.088   5.563 -0.5500 -0.0245  0.2116
   64MOL   O25635662   4.267   3.998   5.465  0.0943  0.0516  0.5556
   64MOL   C25735663   4.200   4.126   5.660 -0.5471  0.0892  0.0705
   64MOL   C25835664   4.063   4.102   5.639  0.4414 -0.0029 -0.2432
   64MOL   C25935665   3.962   4.150   5.725  0.3023  0.6994  0.0621
   64MOL   C26035666   3.826   4.148   5.685 -0.0541  0.2402 -0.0758
   64MOL   C26135667   3.724   4.201   5.763 -0.1360  0.3861  0.1083
   64MOL   C26235668   3.762   4.256   5.889  0.8026  0.1115 -0.7746
   64MOL   C26335669   3.654   4.298   5.978 -0.8132  0.4142  0.7459
   64MOL   O26435670   3.536   4.297   5.922 -0.5667  0.0728 -0.0027
   64MOL   C26535671   3.425   4.333   5.997  0.1542 -0.3512 -0.3998
   64MOL   C26635672   3.404   4.234   6.112  0.2608  0.2475 -0.6047
   64MOL   O26735673   3.678   4.335   6.093 -0.2161 -1.0341 -0.0355
   64MOL   C26835674   3.899   4.263   5.933  1.0026 -0.8568  0.1006
   64MOL   C26935675   4.001   4.212   5.844  0.5789  0.2473  0.0293
   64MOL   C27035676   4.137   4.219   5.876 -1.2654  0.4309  0.1028
   64MOL   C27135677   4.233   4.189   5.781 -0.1635 -0.1164  0.0845
   64MOL   H27235678   4.029   4.053   5.548  0.6601 -0.9892  0.1979
   64MOL   H27335679   3.797   4.087   5.601  0.0701 -0.1945  0.1972
   64MOL   H27435680   3.621   4.189   5.733  0.1688 -0.5891 -0.5949
   64MOL   H27535681   3.343   4.338   5.926  0.8998  0.9347 -1.1837
   64MOL   H27635682   3.435   4.432   6.042  1.4179 -0.2769 -0.8263
   64MOL   H27735683   3.447   4.135   6.098 -1.7083 -0.9145  1.0839
   64MOL   H27835684   3.447   4.264   6.207  0.6073 -0.1712 -0.6300
   64MOL   H27935685   3.920   4.317   6.024  1.6209 -1.6493  0.4248
   64MOL   H28035686   4.171   4.262   5.970  1.0970 -0.0027 -0.5055
   64MOL   H28135687   4.330   4.214   5.820  1.2560 -3.4682 -1.0862
   64MOL   O28235688   3.264   4.399   6.289  0.4203  0.2487  0.1334
   64MOL   C28335689   3.203   4.315   6.223  0.6945 -0.4304  0.5882
   64MOL   O28435690   3.264   4.225   6.134  0.1972 -0.2778  0.0552
   64MOL   C28535691   3.057   4.296   6.232  0.7408  0.6724 -0.2114
   64MOL   C28635692   2.987   4.193   6.159 -0.5181  0.0025  0.3353
   64MOL   C28735693   2.848   4.171   6.180  0.3581 -0.6774  0.0628
   64MOL   C28835694   2.788   4.067   6.124 -0.4778  0.0319  0.5072
   64MOL   C28935695   2.657   4.031   6.145 -0.3123  0.5278 -0.2990
   64MOL   C29035696   2.575   4.106   6.231  0.5780 -0.2135  0.0655
   64MOL   C29135697   2.433   4.064   6.259 -0.0558  0.0790  0.0429
   64MOL   O29235698   2.417   3.933   6.245  0.5111 -0.0193  0.9112
   64MOL   C29335699   2.307   3.872   6.304 -0.3823  0.3900 -1.4297
   64MOL   C29435700   2.197   3.847   6.199  0.0630  0.6482  0.3516
   64MOL   O29535701   2.345   4.141   6.277 -0.0864 -0.6112  0.2533
   64MOL   C29635702   2.631   4.222   6.284 -0.0680  0.3075 -0.5039
   64MOL   C29735703   2.771   4.253   6.271  0.3265  0.1735  0.0178
   64MOL   C29835704   2.838   4.363   6.334  0.6427  0.2747  0.1641
   64MOL   C29935705   2.974   4.377   6.314 -0.4581 -0.2158  0.3689
   64MOL   H30035706   3.042   4.130   6.091  0.3805  0.1420  0.9298
   64MOL   H30135707   2.846   4.016   6.048 -3.1878  1.5588 -2.6868
   64MOL   H30235708   2.622   3.940   6.099 -0.6334 -1.6314  3.9752
   64MOL   H30335709   2.272   3.933   6.387 -3.9877 -2.2902 -0.8886
   64MOL   H30435710   2.345   3.782   6.352  0.4252  1.4583 -0.0239
   64MOL   H30535711   2.100   3.816   6.236  0.5032  0.4398  1.3454
   64MOL   H30635712   2.188   3.931   6.129 -0.9663  1.2374  1.1927
   64MOL   H30735713   2.562   4.286   6.338  2.3133  0.5352  2.4206
   64MOL   H30835714   2.780   4.430   6.395 -1.1915  0.4958 -1.7738
   64MOL   H30935715   3.021   4.462   6.362 -0.2769  0.5532 -1.1322
   64MOL   O31035716   2.333   3.852   5.954  0.3283 -0.4727 -0.0223
   64MOL   C31135717   2.306   3.742   6.008  0.4230  0.4096 -0.2025
   64MOL   O31235718   2.241   3.731   6.126 -0.2824 -0.0967 -0.5222
   64MOL   C31335719   2.340   3.612   5.944  0.5669  0.0067 -0.0355
   64MOL   C31435720   2.302   3.490   6.004  0.2647  0.4100  0.2671
   64MOL   C31535721   2.346   3.370   5.943 -0.0712  0.0714 -0.5399
   64MOL   C31635722   2.305   3.244   5.996 -0.0709 -0.4692 -0.0831
   64MOL   C31735723   2.336   3.128   5.926 -0.2824 -0.5419  0.2322
   64MOL   C31835724   2.410   3.132   5.807  0.0191 -0.4471 -1.1865
   64MOL   C31935725   2.451   3.005   5.742  0.5225  0.2064  0.0838
   64MOL   O32035726   2.431   2.898   5.829  0.1175 -0.2203  0.4418
   64MOL   C32135727   2.516   2.787   5.814  0.1720  0.3637  0.0326
   64MOL   C32235728   2.488   2.692   5.930 -0.3665 -0.0026  0.4756
   64MOL   O32335729   2.498   2.993   5.627 -0.5215 -0.1651 -0.3825
   64MOL   C32435730   2.454   3.253   5.758  0.2270  1.1376  0.1903
   64MOL   C32535731   2.415   3.371   5.820  0.7519 -0.1493 -0.4938
   64MOL   C32635732   2.449   3.494   5.764  0.2829  0.0690 -0.3141
   64MOL   C32735733   2.411   3.613   5.823 -0.0228 -0.7526 -0.4455
   64MOL   H32835734   2.249   3.490   6.097  3.3641 -2.2278  2.1554
   64MOL   H32935735   2.249   3.231   6.087 -0.6671  0.0394 -0.3719
   64MOL   H33035736   2.303   3.034   5.969 -1.2004 -0.0520  0.6056
   64MOL   H33135737   2.617   2.827   5.820  0.7885 -0.7715 -2.1940
   64MOL   H33235738   2.507   2.752   5.711  0.3524  2.2457 -0.6440
   64MOL   H33335739   2.578   2.633   5.950 -0.5795 -0.3434  0.4266
   64MOL   H33435740   2.473   2.739   6.027  0.6064  2.7051 -0.6498
   64MOL   H33535741   2.522   3.258   5.674  0.2971  3.3850  0.3666
   64MOL   H33635742   2.501   3.499   5.670 -2.0947  0.4395 -1.6239
   64MOL   H33735743   2.451   3.701   5.775  0.1204 -0.7819 -0.3828
   64MOL   O33835744   2.228   2.716   5.987  0.6622  0.7627 -0.4481
   64MOL   C33935745   2.263   2.619   5.926 -0.6880 -0.3536  0.3555
   64MOL   O34035746   2.394   2.591   5.895 -0.5918 -0.0746  0.4044
   64MOL   C34135747   2.172   2.514   5.871 -0.4824  0.0804  0.0831
   64MOL   C34235748   2.206   2.383   5.833 -0.2673 -0.4238  1.0151
   64MOL   C34335749   2.107   2.292   5.788  0.5273  0.1325  0.7911
   64MOL   C34435750   2.136   2.155   5.766 -0.0670  0.0319  0.6321
   64MOL   C34535751   2.038   2.063   5.715 -0.3602  0.1677 -0.3521
   64MOL   C34635752   1.906   2.101   5.702  0.5745  0.7487  0.8937
   64MOL   C34735753   1.808   2.006   5.635  0.0023  0.2843 -0.0963
   64MOL   O34835754   1.679   2.058   5.612 -0.1176 -0.4152  0.3852
   64MOL   C34935755   1.591   1.968   5.557  0.1251 -0.1841  0.1171
   64MOL   C35035756   1.446   2.017   5.560  0.4708  0.1298 -0.1664
   64MOL   O35135757   1.847   1.895   5.598 -0.3522 -0.4072  0.5721
   64MOL   C35235758   1.874   2.236   5.728 -0.6813  0.0380  0.2359
   64MOL   C35335759   1.972   2.331   5.777 -0.2874 -0.3743 -0.1686
   64MOL   C35435760   1.935   2.460   5.813 -0.1268 -0.0875  0.6300
   64MOL   C35535761   2.033   2.548   5.865 -0.4099  0.5451  0.1651
   64MOL   H35635762   2.311   2.364   5.855  0.1149  0.7109  0.2076
   64MOL   H35735763   2.239   2.126   5.764  0.4657  1.4831  3.7715
   64MOL   H35835764   2.079   1.966   5.693 -2.0631 -0.6378 -0.0772
   64MOL   H35935765   1.597   1.871   5.606  0.4509 -1.0835 -1.6903
   64MOL   H36035766   1.616   1.960   5.451  0.0136  1.4217 -0.0505
   64MOL   H36135767   1.378   1.933   5.568  1.5144 -0.9117 -1.9951
   64MOL   H36235768   1.437   2.062   5.659 -0.4945  0.9107 -0.6045
   64MOL   H36335769   1.775   2.276   5.719 -1.9952 -2.7333  1.8047
   64MOL   H36435770   1.836   2.502   5.807  0.6427  1.5632 -1.3881
   64MOL   H36535771   2.003   2.640   5.913 -3.4021 -0.8322  1.1005
   64MOL   O36635772   1.354   1.971   5.305 -0.0008 -0.1501  0.4334
   64MOL   C36735773   1.389   2.085   5.341  0.2873 -0.0894 -0.8962
   64MOL   O36835774   1.418   2.117   5.467  0.0505  0.2183 -0.0552
   64MOL   C36935775   1.410   2.203   5.250  0.2419  0.6344 -1.5149
   64MOL   C37035776   1.494   2.306   5.299 -0.2332 -0.3650  0.5310
   64MOL   C37135777   1.522   2.413   5.208 -1.0808  0.0662 -0.9788
   64MOL   C37235778   1.607   2.518   5.247 -0.1337  0.4924  0.2440
   64MOL   C37335779   1.636   2.629   5.158  0.3213  0.2728  0.3545
   64MOL   C37435780   1.579   2.625   5.028 -0.0496  0.7016  0.2842
   64MOL   C37535781   1.605   2.732   4.927 -0.2862 -0.3270  0.0958
   64MOL   O37635782   1.504   2.743   4.839  0.0589 -0.3281 -0.3808
   64MOL   C37735783   1.517   2.839   4.730  0.4072  0.1689 -0.6594
   64MOL   C37835784   1.516   2.982   4.770 -0.9383 -0.5311  0.1154
   64MOL   O37935785   1.709   2.797   4.929 -0.0381 -0.0921  0.5133
   64MOL   C38035786   1.484   2.527   4.999  0.4160 -0.1037 -0.1385
   64MOL   C38135787   1.464   2.416   5.082 -0.1129 -0.7435  0.0703
   64MOL   C38235788   1.382   2.318   5.038 -0.2471  0.4620 -0.0441
   64MOL   C38335789   1.348   2.210   5.124 -0.2650  0.0632 -0.5407
   64MOL   H38435790   1.549   2.302   5.392  3.9668  2.0123 -1.6979
   64MOL   H38535791   1.658   2.499   5.341  0.2137 -0.2157 -0.0866
   64MOL   H38635792   1.690   2.716   5.193 -1.1012  1.7854 -1.1168
   64MOL   H38735793   1.437   2.828   4.658 -1.1798  2.6439  0.6650
   64MOL   H38835794   1.612   2.815   4.682  1.1558 -0.1175  0.9098
   64MOL   H38935795   1.596   2.986   4.843 -0.7394  0.3529 -0.1432
   64MOL   H39035796   1.528   3.035   4.676 -0.6776 -0.3709  0.2368
   64MOL   H39135797   1.445   2.519   4.899 -0.9561  1.7806  0.2240
   64MOL   H39235798   1.344   2.322   4.938 -1.1060  0.7886  0.2903
   64MOL   H39335799   1.269   2.142   5.097 -2.3045  2.6430 -1.3439
   64MOL   O39435800   1.279   3.057   4.650  0.7317  0.0149 -0.1660
   64MOL   C39535801   1.282   3.033   4.769 -0.4206 -0.2111 -0.4526
   64MOL   O39635802   1.394   3.008   4.844 -0.6187 -0.4952  0.2730
   64MOL   C39735803   1.165   3.026   4.857 -0.0802 -0.3611 -0.4614
   64MOL   C39835804   1.161   2.956   4.982  0.7404  0.4861  0.3176
   64MOL   C39935805   1.047   2.961   5.063 -0.2639  0.8104  0.3377
   64MOL   C40035806   1.048   2.911   5.196 -0.2541 -0.9032 -0.8405
   64MOL   C40135807   0.948   2.941   5.285  0.6025 -0.6556 -0.1464
   64MOL   C40235808   0.829   2.996   5.242 -0.0548 -0.1063 -0.0320
   64MOL   C40335809   0.724   3.024   5.344 -0.2843  0.3303 -0.1867
   64MOL   O40435810   0.614   3.079   5.291 -0.4677 -0.0703  0.0385
   64MOL   C40535811   0.531   3.167   5.361 -0.2757  0.4784 -0.3583
   64MOL   C40635812   0.568   3.312   5.318 -0.4972  0.7412 -0.1456
   64MOL   O40735813   0.736   2.994   5.463  0.3318 -0.0557 -0.0755
   64MOL   C40835814   0.814   3.028   5.104 -0.2033 -1.0347  0.1843
   64MOL   C40935815   0.924   3.025   5.021  0.1713 -0.2165  0.6778
   64MOL   C41035816   0.924   3.076   4.892 -0.4347  0.0499  0.7374
   64MOL   C41135817   1.038   3.080   4.813  0.2424 -0.3694 -0.2138
   64MOL   H41235818   1.243   2.899   5.025 -1.1090  0.1105  3.5196
   64MOL   H41335819   1.142   2.867   5.227 -0.0034 -0.9705 -1.6687
   64MOL   H41435820   0.957   2.908   5.387 -1.7451 -0.3967  0.1710
   64MOL   H41535821   0.546   3.146   5.467  0.6514 -2.5152 -1.0283
   64MOL   H41635822   0.428   3.146   5.335 -0.2346 -1.0041  0.6451
   64MOL   H41735823   0.500   3.389   5.354  2.3085  3.8570 -1.1909
   64MOL   H41835824   0.650   3.340   5.385 -0.1333 -1.7493  0.5030
   64MOL   H41935825   0.725   3.083   5.078  0.6288  0.1608 -0.1475
   64MOL   H42035826   0.837   3.116   4.842 -0.0919 -0.7328 -0.5189
   64MOL   H42135827   1.025   3.129   4.718  0.8542  1.4055  0.5997
   64MOL   O42235828   0.413   3.350   5.099 -0.9426  0.2339  0.2381
   64MOL   C42335829   0.535   3.356   5.079 -0.3207  0.2759  0.6363
   64MOL   O42435830   0.621   3.330   5.182 -0.2424 -0.0062 -0.1776
   64MOL   C42535831   0.601   3.377   4.940  0.1303  0.2666  0.0824
   64MOL   C42635832   0.530   3.427   4.833  0.4735 -0.0549  0.0061
   64MOL   C42735833   0.591   3.454   4.709  0.0990  0.2789 -0.5390
   64MOL   C42835834   0.517   3.516   4.602  0.4400  0.2216  0.6417
   64MOL   C42935835   0.589   3.541   4.484 -0.7578 -0.0040 -0.0027
   64MOL   C43035836   0.728   3.521   4.468  0.3898 -0.7198 -0.2456
   64MOL   C43135837   0.800   3.550   4.339 -0.3960 -0.6272  0.0807
   64MOL   O43235838   0.732   3.614   4.245 -0.9286  0.4642 -0.3066
   64MOL   C43335839   0.785   3.653   4.117  0.1065  0.3450 -0.2143
   64MOL   C43435840   0.803   3.515   4.042  0.5007  0.1701 -0.4755
   64MOL   O43535841   0.916   3.529   4.321  0.2919 -0.7381  0.0096
   64MOL   C43635842   0.805   3.480   4.581  0.1452 -0.1700 -0.1758
   64MOL   C43735843   0.731   3.430   4.697  0.0410  0.4284  0.6145
   64MOL   C43835844   0.806   3.378   4.804  0.3325 -0.6737 -0.0370
   64MOL   C43935845   0.743   3.354   4.930 -0.2259  0.6895 -0.2463
   64MOL   H44035846   0.425   3.447   4.849  0.6606  0.5834  0.4644
   64MOL   H44135847   0.413   3.541   4.614  0.2339 -0.4870  0.3496
   64MOL   H44235848   0.539   3.567   4.392 -1.7036  1.0969  0.8048
   64MOL   H44335849   0.884   3.699   4.122  0.4386 -0.3752 -0.0121
   64MOL   H44435850   0.715   3.721   4.069  0.0147 -0.2702 -0.9623
   64MOL   H44535851   0.817   3.421   4.094 -0.1420  2.2341  3.6315
   64MOL   H44635852   0.716   3.508   3.977  1.0810  1.1103 -1.3904
   64MOL   H44735853   0.911   3.464   4.575  0.5470  1.7855  1.4736
   64MOL   H44835854   0.911   3.357   4.794  0.8083  1.5030  0.0932
   64MOL   H44935855   0.800   3.328   5.018  1.2622  1.0977 -1.0820
   64MOL   O45035856   0.827   3.408   3.795  0.7786 -0.2383  0.2980
   64MOL   C45135857   0.910   3.488   3.833  0.0197  0.9427  0.6431
   64MOL   O45235858   0.906   3.545   3.950  0.0915 -0.4545  0.1922
   64MOL   C45335859   1.025   3.518   3.749 -0.4186 -0.4849  0.8936
   64MOL   C45435860   1.129   3.598   3.804 -0.2705  0.0728  0.1577
   64MOL   C45535861   1.235   3.642   3.726 -0.1208 -0.2084  0.4210
   64MOL   C45635862   1.325   3.730   3.789 -0.3535 -0.3755  0.0728
   64MOL   C45735863   1.435   3.777   3.714 -0.6651 -0.1235  0.2719
   64MOL   C45835864   1.452   3.736   3.574  0.5179 -0.0213  0.5393
   64MOL   C45935865   1.576   3.778   3.489  0.1887  0.0791  0.1800
   64MOL   O46035866   1.585   3.715   3.366  0.0923 -0.5560  0.3024
   64MOL   C46135867   1.703   3.734   3.293  0.6477  0.0372 -0.3793
   64MOL   C46235868   1.819   3.658   3.349  0.2814 -0.5738  0.7104
   64MOL   O46335869   1.659   3.854   3.535  0.1175 -0.3579 -0.2896
   64MOL   C46435870   1.353   3.653   3.519  0.4463  0.5993  0.0563
   64MOL   C46535871   1.240   3.603   3.593 -0.1443 -0.3368 -0.2775
   64MOL   C46635872   1.145   3.518   3.534 -0.2257 -0.5612  0.2200
   64MOL   C46735873   1.037   3.473   3.613 -1.1022  0.0044 -0.5782
   64MOL   H46835874   1.128   3.624   3.908  1.1320 -0.0429  0.2116
   64MOL   H46935875   1.322   3.758   3.893  2.5892 -0.0226  0.1066
   64MOL   H47035876   1.506   3.837   3.768 -1.9697  0.8727  0.9079
   64MOL   H47135877   1.724   3.841   3.293  0.3631  0.1147  1.5100
   64MOL   H47235878   1.689   3.715   3.187 -0.4429  0.5916 -0.3450
   64MOL   H47335879   1.893   3.722   3.396 -0.4354  1.5960 -1.0349
   64MOL   H47435880   1.799   3.591   3.433 -0.8695 -2.3990 -0.9521
   64MOL   H47535881   1.361   3.620   3.416  2.2671  0.0893  0.3488
   64MOL   H47635882   1.157   3.509   3.427 -0.6507  0.0386  0.1207
   64MOL   H47735883   0.958   3.409   3.578 -1.6727  0.4252 -0.0768
   64MOL   O47835884   1.704   3.443   3.227  0.2949 -0.2473  0.3365
   64MOL   C47935885   1.825   3.472   3.196 -0.8064  0.2988  0.4460
   64MOL   O48035886   1.880   3.584   3.246 -0.1609 -0.1056  0.0114
   64MOL   C48135887   1.921   3.404   3.100  0.3988  0.5557  0.6634
   64MOL   C48235888   2.046   3.468   3.068 -0.0719  0.5145  0.3188
   64MOL   C48335889   2.122   3.409   2.967  0.2088 -0.3661  0.3228
   64MOL   C48435890   2.246   3.463   2.944 -0.1321 -0.5752  0.2367
   64MOL   C48535891   2.332   3.410   2.845  0.3327  0.0919  0.4035
   64MOL   C48635892   2.290   3.297   2.771  0.1974 -0.1944 -0.5327
   64MOL   C48735893   2.366   3.240   2.657  0.6572 -0.2272  0.0982
   64MOL   O48835894   2.492   3.287   2.655  0.5459  0.5260  0.4199
   64MOL   C48935895   2.589   3.251   2.552 -0.2224  0.1410 -0.7016
   64MOL   C49035896   2.623   3.099   2.548  0.1661  0.2183 -0.1627
   64MOL   O49135897   2.318   3.161   2.580  0.1282  0.0312 -0.0428
   64MOL   C49235898   2.170   3.233   2.808 -0.0041 -0.5611  0.8950
   64MOL   C49335899   2.083   3.289   2.907  0.5397 -0.1861 -0.8793
   64MOL   C49435900   1.963   3.228   2.941  0.3996  0.0522  0.1144
   64MOL   C49535901   1.885   3.288   3.037  0.1946 -0.2944 -0.2964
   64MOL   H49635902   2.065   3.570   3.100  0.6157  0.0628  1.3935
   64MOL   H49735903   2.285   3.552   2.989 -2.1974  0.3478  0.2673
   64MOL   H49835904   2.423   3.468   2.830  0.3137  0.0308  0.0367
   64MOL   H49935905   2.678   3.302   2.590 -0.3489  0.6735 -1.1085
   64MOL   H50035906   2.561   3.284   2.452 -3.0142 -0.8895 -0.3065
   64MOL   H50135907   2.602   3.050   2.643  1.7183 -0.9673 -0.4116
   64MOL   H50235908   2.553   3.062   2.473 -1.5975  1.3313  0.8844
   64MOL   H50335909   2.139   3.150   2.746 -2.3000 -0.0742  1.3279
   64MOL   H50435910   1.939   3.134   2.893  0.0659  0.1150  0.1576
   64MOL   H50535911   1.790   3.242   3.055  0.0604  0.4218  0.9160
   64MOL   O50635912   2.820   3.097   2.723 -0.3466 -0.0367  0.6901
   64MOL   C50735913   2.846   3.082   2.603 -0.4744 -0.7855  0.0430
   64MOL   O50835914   2.751   3.076   2.505 -0.2331 -0.7645 -0.0024
   64MOL   C50935915   2.980   3.058   2.563  0.2616  0.2972  0.5789
   64MOL   C51035916   3.019   2.996   2.439 -0.2262  0.3872  0.4019
   64MOL   C51135917   3.157   2.974   2.412 -0.4837  0.1055  0.0904
   64MOL   C51235918   3.204   2.914   2.297 -0.6602  0.1689  0.3830
   64MOL   C51335919   3.342   2.893   2.267  0.1901 -0.1858  0.3775
   64MOL   C51435920   3.439   2.924   2.366  0.0832  0.0808 -0.7236
   64MOL   C51535921   3.581   2.906   2.334  0.3291  0.5746 -0.9606
   64MOL   O51635922   3.600   2.875   2.210 -0.4667 -0.4083 -0.3865
   64MOL   C51735923   3.733   2.864   2.151  0.0454  0.5086 -0.6071
   64MOL   C51835924   3.787   2.726   2.162 -0.1896 -0.5084  0.6833
   64MOL   O51935925   3.671   2.933   2.416  0.0584  0.1134 -0.1723
   64MOL   C52035926   3.396   2.995   2.480  0.5091 -0.1908  0.1032
   64MOL   C52135927   3.260   3.017   2.501  0.7788  0.1909 -0.6672
   64MOL   C52235928   3.222   3.087   2.624  0.3885  0.9661  0.1360
   64MOL   C52335929   3.083   3.100   2.650 -0.1039  0.2018  0.0432
   64MOL   H52435930   2.936   2.961   2.381 -0.2054  0.9860  0.0119
   64MOL   H52535931   3.137   2.876   2.221  1.0663 -0.8409 -0.6706
   64MOL   H52635932   3.370   2.854   2.170 -1.1299  1.5053 -0.7005
   64MOL   H52735933   3.801   2.942   2.186 -0.7963  1.3760 -0.8965
   64MOL   H52835934   3.708   2.890   2.049 -1.7983 -1.6948 -0.7592
   64MOL   H52935935   3.705   2.662   2.193 -2.2416  2.4545  1.6437
   64MOL   H53035936   3.838   2.697   2.070 -0.4531  0.6872  0.1466
   64MOL   H53135937   3.465   3.033   2.553  0.5591  0.0875 -0.0892
   64MOL   H53235938   3.294   3.113   2.700  3.1118 -0.0885 -1.9850
   64MOL   H53335939   3.063   3.148   2.744 -0.9750  0.6271 -0.3502
   64MOL   O53435940   3.944   2.524   2.198  0.4883 -0.2611 -0.2053
   64MOL   C53535941   3.945   2.611   2.288 -0.4042  0.2097 -0.0352
   64MOL   O53635942   3.877   2.730   2.271  0.1372 -0.0994 -0.5485
   64MOL   C53735943   4.033   2.613   2.409 -0.3025 -0.1838  0.8272
   64MOL   C53835944   4.132   2.511   2.416  0.6944 -0.1494  0.7688
   64MOL   C53935945   4.213   2.505   2.533 -0.9682  0.1455  0.1265
   64MOL   C54035946   4.315   2.408   2.541 -0.2118  0.4920  0.4217
   64MOL   C54135947   4.400   2.412   2.651 -0.3118 -0.3175  0.1502
   64MOL   C54235948   4.375   2.507   2.756  0.0678  0.2451  0.5796
   64MOL   C54335949   4.481   2.504   2.866  0.1420 -0.4640  0.1929
   64MOL   O54435950   4.451   2.601   2.951 -0.2160  0.0723 -0.3434
   64MOL   C54535951   4.526   2.628   3.063  0.9670  1.3218 -0.3544
   64MOL   C54635952   4.444   2.592   3.189  0.1795 -0.4827  0.4492
   64MOL   O54735953   4.585   2.439   2.862 -0.3705  0.2487  0.6517
   64MOL   C54835954   4.275   2.605   2.745 -0.1197  0.1091 -0.0938
   64MOL   C54935955   4.197   2.603   2.629  0.7503 -0.1375  0.0770
   64MOL   C55035956   4.099   2.706   2.615  0.3312 -0.1499  0.2077
   64MOL   C55135957   4.023   2.716   2.502 -0.7127  0.1617  0.8138
   64MOL   H55235958   4.136   2.432   2.343  0.6873  1.2533 -0.7736
   64MOL   H55335959   4.324   2.332   2.465  0.7667 -0.4771  1.4827
   64MOL   H55435960   4.479   2.338   2.657  1.2978  1.2585 -1.0131
   64MOL   H55535961   4.574   2.725   3.057  1.4659  0.9858 -1.9933
   64MOL   H55635962   4.608   2.556   3.064 -1.3129 -1.4029 -1.7880
   64MOL   H55735963   4.392   2.497   3.198  0.1923 -0.7099 -1.5626
   64MOL   H55835964   4.360   2.660   3.201  1.0470  0.5979  0.5151
   64MOL   H55935965   4.264   2.691   2.810  0.8566  1.2072 -1.3465
   64MOL   H56035966   4.083   2.776   2.695 -0.0021 -0.1582  0.1479
   64MOL   H56135967   3.954   2.799   2.493 -0.5157  0.2041 -0.3815
   64MOL   H56235968   4.509   2.601   3.276  0.4468 -0.9148  0.2973
   65MOL     O135969   0.259   5.134   0.718 -0.3975 -0.0582 -0.6493
   65MOL     C235970   0.233   5.249   0.756  0.0606 -0.3548  0.6828
   65MOL     O335971   0.106   5.295   0.780 -0.8547  0.2685 -0.5083
   65MOL     C435972   0.345   5.353   0.764 -0.4097 -0.1189  0.7701
   65MOL     C535973   0.477   5.309   0.783 -0.0114  0.3843  0.9392
   65MOL     C635974   0.586   5.403   0.794 -0.1553 -0.0670 -0.5046
   65MOL     C735975   0.707   5.341   0.821 -0.2311 -0.5051 -0.0826
   65MOL     C835976   0.826   5.425   0.812 -0.9021  0.0938  0.3847
   65MOL     C935977   0.813   5.566   0.793  0.5520 -0.5617 -0.9360
   65MOL    C1035978   0.930   5.652   0.804 -0.1447  0.5283  0.2411
   65MOL    O1135979   1.050   5.592   0.812 -0.0235 -0.2482  0.3361
   65MOL    C1235980   1.173   5.664   0.803 -0.3900  0.5009 -0.4900
   65MOL    C1335981   1.295   5.572   0.829  0.8668 -0.9784 -0.5028
   65MOL    O1435982   0.909   5.770   0.803  0.1576  0.1437 -0.1623
   65MOL    C1535983   0.681   5.619   0.767  0.0175 -0.9169  0.5445
   65MOL    C1635984   0.568   5.539   0.773  0.1406 -0.0328 -0.7570
   65MOL    C1735985   0.432   5.585   0.747 -0.9387  0.3069 -0.3513
   65MOL    C1835986   0.325   5.489   0.742  0.1357  0.6320 -1.0668
   65MOL    H1935987   0.486   5.202   0.775 -2.6522  0.0297  2.1543
   65MOL    H2035988   0.716   5.236   0.845  1.8579 -0.2144  0.4811
   65MOL    H2135989   0.920   5.380   0.839 -1.4127 -0.5343  1.1275
   65MOL    H2235990   1.193   5.704   0.704  0.9727  2.4882  0.5614
   65MOL    H2335991   1.177   5.745   0.876  1.9623  0.4049 -0.4787
   65MOL    H2435992   1.308   5.531   0.929  2.2893  1.8435  0.5264
   65MOL    H2535993   1.269   5.479   0.778  0.4451 -1.4553  0.5580
   65MOL    H2635994   0.664   5.723   0.745  0.4285 -0.6937  1.2434
   65MOL    H2735995   0.406   5.688   0.726 -0.2273  0.2013 -1.8156
   65MOL    H2835996   0.227   5.529   0.723 -0.3000 -0.0870 -0.3675
   65MOL    H2935997   0.052   5.232   0.735 -0.2637  0.0078 -0.8657
   65MOL    O3035998   1.435   5.766   0.957  0.5919  0.5709 -0.1602
   65MOL    C3135999   1.473   5.722   0.851 -0.2512 -0.4975  0.2851
   65MOL    O3236000   1.411   5.632   0.779  0.8089 -0.5798  0.2785
   65MOL    C3336001   1.588   5.775   0.773  0.7083 -0.8767  0.2698
   65MOL    C3436002   1.604   5.741   0.637  0.3366 -0.2650  0.1172
   65MOL    C3536003   1.716   5.795   0.569  0.1472 -0.2260  0.6076
   65MOL    C3636004   1.728   5.759   0.433  0.4798 -0.4954 -0.3456
   65MOL    C3736005   1.840   5.810   0.366  0.4399  0.2562  0.4897
   65MOL    C3836006   1.941   5.885   0.430  0.0607  0.4615 -0.2999
   65MOL    C3936007   2.052   5.923   0.337  0.3890 -0.0249  0.0029
   65MOL    O4036008   2.157   5.983   0.397  0.5904 -0.2098 -0.0644
   65MOL    C4136009   2.275   5.997   0.318 -0.1629 -0.5987  0.2125
   65MOL    C4236010   2.358   5.866   0.320 -0.0997  0.1762 -0.0606
   65MOL    O4336011   2.053   5.904   0.210 -0.1032  0.2221  0.0067
   65MOL    C4436012   1.928   5.916   0.568  0.2566 -0.6718 -0.6963
   65MOL    C4536013   1.811   5.877   0.634  0.2783  0.5362 -0.1563
   65MOL    C4636014   1.787   5.915   0.765 -0.5538  0.0739 -0.3151
   65MOL    C4736015   1.685   5.854   0.831  0.3650  0.0956 -0.8258
   65MOL    H4836016   1.533   5.672   0.595  1.1515  0.0363 -1.8205
   65MOL    H4936017   1.651   5.700   0.385  2.2927 -2.7567 -0.5513
   65MOL    H5036018   1.848   5.800   0.259 -2.3152  1.8098  0.1100
   65MOL    H5136019   2.338   6.070   0.367 -0.9052 -1.6620  2.8170
   65MOL    H5236020   2.256   6.043   0.221  0.3767  1.0600  0.8820
   65MOL    H5336021   2.460   5.905   0.328  0.4811 -1.3369 -0.0551
   65MOL    H5436022   2.354   5.794   0.402  2.2317 -0.5756 -0.5554
   65MOL    H5536023   2.004   5.961   0.630 -0.3121  1.3400 -1.4437
   65MOL    H5636024   1.853   5.985   0.813  0.1124 -0.0933 -0.9827
   65MOL    H5736025   1.677   5.887   0.934 -1.5521 -1.2069 -0.5207
   65MOL    O5836026   2.592   5.811   0.160 -0.4900 -0.2387  0.2373
   65MOL    C5936027   2.482   5.765   0.134 -0.2242 -0.0017 -0.1570
   65MOL    O6036028   2.361   5.791   0.197 -0.9069 -0.8422  0.4880
   65MOL    C6136029   2.474   5.672   0.019  0.3690  0.7037  0.0275
   65MOL    C6236030   2.358   5.661   8.196 -0.0477  0.2718 -0.2385
   65MOL    C6336031   2.349   5.577   8.080 -0.5801 -0.5628 -0.0670
   65MOL    C6436032   2.220   5.568   8.016  0.4649 -0.2842 -0.5632
   65MOL    C6536033   2.214   5.486   7.902  0.3524  0.0969 -0.1373
   65MOL    C6636034   2.322   5.412   7.855  0.0095  0.0540  0.7828
   65MOL    C6736035   2.317   5.314   7.742 -0.5386  0.1621 -0.8606
   65MOL    O6836036   2.202   5.327   7.670  0.6650 -0.2431  0.7330
   65MOL    C6936037   2.164   5.230   7.581  0.0897  0.5707  0.1784
   65MOL    C7036038   2.112   5.301   7.451  0.0298 -0.1415 -0.0513
   65MOL    O7136039   2.411   5.237   7.722 -0.5939  0.3324  0.1665
   65MOL    C7236040   2.443   5.414   7.927 -0.0448 -0.2648  0.2891
   65MOL    C7336041   2.459   5.509   8.035  0.2675 -0.3210  0.3985
   65MOL    C7436042   2.582   5.520   8.106 -0.1461  0.2287 -0.2578
   65MOL    C7536043   2.585   5.598   8.225 -0.2888 -0.3659  0.0660
   65MOL    H7636044   2.270   5.718   8.224  0.9931  0.2847  3.2867
   65MOL    H7736045   2.132   5.616   8.057  1.1222  0.8818 -0.4918
   65MOL    H7836046   2.114   5.477   7.862 -0.1978  0.5133  1.1340
   65MOL    H7936047   2.085   5.168   7.623  1.7409 -2.2244 -0.7169
   65MOL    H8036048   2.250   5.165   7.562 -0.7299 -0.5112  0.1472
   65MOL    H8136049   2.043   5.239   7.395 -1.3389  1.3567 -0.0522
   65MOL    H8236050   2.064   5.397   7.469 -0.3570 -0.6641  1.7904
   65MOL    H8336051   2.525   5.352   7.893  0.5507 -0.8066  2.5938
   65MOL    H8436052   2.670   5.461   8.085 -0.6086 -0.3768 -0.5059
   65MOL    H8536053   2.684   5.607   0.017  0.3631 -0.3235 -1.4584
   65MOL    O8636054   2.195   5.138   7.251 -0.2123 -0.3765  0.9716
   65MOL    C8736055   2.266   5.233   7.282 -0.4061 -0.1546  0.3808
   65MOL    O8836056   2.238   5.318   7.381  0.0397 -0.2144  0.0478
   65MOL    C8936057   2.407   5.242   7.225  1.0802 -0.4557  0.0447
   65MOL    C9036058   2.507   5.329   7.267  0.1761  0.2200  0.4138
   65MOL    C9136059   2.636   5.342   7.205 -0.3291 -0.2431  0.4122
   65MOL    C9236060   2.730   5.437   7.247  0.7223  0.9809 -0.1618
   65MOL    C9336061   2.849   5.450   7.184 -1.0140  0.0985 -0.2088
   65MOL    C9436062   2.886   5.360   7.085 -0.3437  0.5175  0.2197
   65MOL    C9536063   3.007   5.379   6.998 -0.1640 -0.1238 -0.1797
   65MOL    O9636064   3.072   5.265   6.959  0.2555  0.5228  0.0487
   65MOL    C9736065   3.185   5.277   6.874 -0.2295  0.3543 -0.4468
   65MOL    C9836066   3.145   5.263   6.727 -0.3979  0.1714 -0.5109
   65MOL    O9936067   3.055   5.498   6.974  0.4716  0.0940 -0.1866
   65MOL   C10036068   2.800   5.254   7.047 -0.3264 -0.4545 -0.1279
   65MOL   C10136069   2.672   5.247   7.111 -0.1526  0.1247  0.1160
   65MOL   C10236070   2.574   5.155   7.070  0.2257  0.6486 -0.5509
   65MOL   C10336071   2.444   5.158   7.116 -0.7455  0.2863  0.4961
   65MOL   H10436072   2.499   5.380   7.362 -0.7011  0.4219  0.2373
   65MOL   H10536073   2.694   5.514   7.314 -2.9776 -0.1956 -0.6604
   65MOL   H10636074   2.913   5.533   7.211 -0.0834 -0.4948 -0.5767
   65MOL   H10736075   3.260   5.204   6.906 -2.3306 -2.6814 -2.2383
   65MOL   H10836076   3.228   5.373   6.902 -0.2767 -0.4557  2.5467
   65MOL   H10936077   3.230   5.267   6.658  1.0749 -0.4714  1.2145
   65MOL   H11036078   3.089   5.174   6.700  0.5109 -0.9417  1.1589
   65MOL   H11136079   2.823   5.186   6.967 -1.8160 -1.3842  0.2149
   65MOL   H11236080   2.607   5.088   6.992  1.7248 -1.3494  1.7621
   65MOL   H11336081   2.373   5.100   7.059  0.1703  0.3676 -0.7582
   65MOL   O11436082   3.245   5.499   6.634 -0.2992 -0.0766  0.1505
   65MOL   C11536083   3.125   5.492   6.651  0.0744  0.8728  0.0715
   65MOL   O11636084   3.064   5.378   6.694  0.3428  0.2546 -0.2720
   65MOL   C11736085   3.016   5.588   6.620  0.2249 -0.8758  0.1128
   65MOL   C11836086   3.012   5.646   6.495 -0.1131 -0.4633  0.0238
   65MOL   C11936087   2.909   5.737   6.467 -0.1649 -0.0435 -0.5340
   65MOL   C12036088   2.903   5.806   6.343 -0.7630 -0.6542  0.4902
   65MOL   C12136089   2.787   5.879   6.300 -0.0046 -0.6208 -0.0100
   65MOL   C12236090   2.683   5.900   6.391 -1.1148 -0.4824 -0.1286
   65MOL   C12336091   2.562   5.976   6.343 -0.0564 -0.4058  0.0986
   65MOL   O12436092   2.456   5.947   6.425 -0.3851 -0.0710  0.1165
   65MOL   C12536093   2.329   5.993   6.389 -0.4538  0.6283  0.0017
   65MOL   C12636094   2.276   6.086   6.507 -0.0736 -0.5082  0.3011
   65MOL   O12736095   2.559   6.043   6.237  0.2620  0.3401 -0.1654
   65MOL   C12836096   2.687   5.844   6.518 -0.2168  0.3390  0.0793
   65MOL   C12936097   2.802   5.761   6.553  0.6797  0.5900  0.1321
   65MOL   C13036098   2.800   5.699   6.677 -0.4657  0.5638  0.1719
   65MOL   C13136099   2.906   5.616   6.709 -0.0489  0.7508 -0.6628
   65MOL   H13236100   3.092   5.632   6.423 -1.0309 -0.5110 -1.0120
   65MOL   H13336101   2.985   5.796   6.273 -1.3568 -1.9952 -0.0317
   65MOL   H13436102   2.780   5.921   6.201 -0.3312  3.4466  1.6231
   65MOL   H13536103   2.256   5.913   6.371  0.2569  0.5418 -2.7016
   65MOL   H13636104   2.319   6.052   6.298  0.2300  0.9760  0.1550
   65MOL   H13736105   2.168   6.070   6.505 -0.0580 -0.5092 -1.0637
   65MOL   H13836106   2.314   6.045   6.601  1.1838  1.4777  0.6957
   65MOL   H13936107   2.619   5.846   6.602 -1.5747  1.2422 -1.0233
   65MOL   H14036108   2.717   5.711   6.746 -1.2953  1.2251 -0.9115
   65MOL   H14136109   2.900   5.569   6.806  0.7493 -0.9752 -1.4362
   65MOL   O14236110   2.504   6.212   6.606  0.2402  0.0587 -0.5388
   65MOL   C14336111   2.411   6.277   6.554 -0.7830 -0.5793  0.0130
   65MOL   O14436112   2.311   6.219   6.483 -0.0873 -0.7629  0.3940
   65MOL   C14536113   2.405   6.423   6.564 -0.2569  0.0963 -0.1255
   65MOL   C14636114   2.350   6.499   6.460 -0.0173 -0.2925 -0.0622
   65MOL   C14736115   2.335   6.634   6.484  0.0540 -0.9853 -0.0341
   65MOL   C14836116   2.266   6.713   6.390  0.5376 -0.5540 -0.1094
   65MOL   C14936117   2.257   6.853   6.396 -0.5634  0.1227  0.1195
   65MOL   C15036118   2.317   6.919   6.508 -0.3105  0.5659 -0.7864
   65MOL   C15136119   2.303   7.064   6.536  0.5397 -0.6161  0.5048
   65MOL   O15236120   2.229   7.120   6.443 -0.3035  0.4877  0.1299
   65MOL   C15336121   2.217   7.261   6.447  1.0491  0.6835  0.7509
   65MOL   C15436122   2.344   7.321   6.379 -0.2341  0.0337 -0.3187
   65MOL   O15536123   2.344   7.121   6.636 -0.2569 -0.2114 -0.1430
   65MOL   C15636124   2.393   6.838   6.604  0.0625 -0.2697  0.2926
   65MOL   C15736125   2.394   6.702   6.597 -0.7907 -0.5175 -0.4405
   65MOL   C15836126   2.458   6.624   6.693  0.0835  0.2872  0.3507
   65MOL   C15936127   2.463   6.483   6.680 -0.5323 -0.4245  0.3813
   65MOL   H16036128   2.314   6.463   6.365 -3.7699 -1.9521  1.8783
   65MOL   H16136129   2.220   6.674   6.300 -1.1756  0.1869  0.4199
   65MOL   H16236130   2.203   6.912   6.323 -3.2519  0.7925  2.5699
   65MOL   H16336131   2.197   7.305   6.545  1.7258 -2.1921  2.2340
   65MOL   H16436132   2.132   7.285   6.383  0.2606 -1.8927  0.7855
   65MOL   H16536133   2.327   7.429   6.376 -0.3710 -0.0027 -1.3984
   65MOL   H16636134   2.433   7.306   6.439 -0.8888 -1.2236  0.3542
   65MOL   H16736135   2.429   6.889   6.692  0.2619 -1.8981  1.1663
   65MOL   H16836136   2.506   6.660   6.783  3.9297 -2.6448 -0.4037
   65MOL   H16936137   2.517   6.425   6.753  1.7927  2.7847  1.3107
   65MOL   O17036138   2.501   7.122   6.299 -0.7595  0.3959 -0.0145
   65MOL   C17136139   2.440   7.188   6.217  0.2178  0.5480 -0.8054
   65MOL   O17236140   2.349   7.273   6.247  0.3459 -0.1943 -0.4146
   65MOL   C17336141   2.461   7.166   6.069 -0.4232 -0.3112 -0.1689
   65MOL   C17436142   2.363   7.221   5.984  0.1896 -0.5689  0.4642
   65MOL   C17536143   2.380   7.208   5.845 -0.0847 -0.9411  0.3243
   65MOL   C17636144   2.301   7.282   5.758  0.0138  0.3202  0.6872
   65MOL   C17736145   2.317   7.282   5.620 -0.4643  1.4321 -0.6755
   65MOL   C17836146   2.420   7.204   5.563  0.2914  0.2715 -0.2946
   65MOL   C17936147   2.433   7.205   5.411 -0.3127  0.2154  0.2369
   65MOL   O18036148   2.549   7.145   5.369  0.4082 -0.0441  0.3329
   65MOL   C18136149   2.573   7.148   5.232 -0.2560  0.0219 -0.5247
   65MOL   C18236150   2.610   7.288   5.172 -0.3286  0.3069  0.3852
   65MOL   O18336151   2.360   7.265   5.337  0.1129 -0.4732 -0.1220
   65MOL   C18436152   2.513   7.138   5.650 -0.7148 -0.4159 -0.2092
   65MOL   C18536153   2.492   7.142   5.793  0.4831 -0.1296 -0.2717
   65MOL   C18636154   2.581   7.073   5.879 -0.2549 -0.4046  0.3551
   65MOL   C18736155   2.567   7.083   6.019 -0.1610  0.2314  0.4007
   65MOL   H18836156   2.285   7.286   6.022  0.2349 -0.3474  0.1773
   65MOL   H18936157   2.226   7.350   5.796 -3.3964 -1.6630 -2.2146
   65MOL   H19036158   2.247   7.321   5.549 -0.4190 -0.0256 -1.5543
   65MOL   H19136159   2.488   7.115   5.173  0.2629  1.2535 -1.9857
   65MOL   H19236160   2.652   7.076   5.208 -0.7541  0.0091 -2.1941
   65MOL   H19336161   2.653   7.270   5.073 -1.5657  0.9819 -0.2872
   65MOL   H19436162   2.528   7.358   5.155 -0.1503  0.0911 -1.4668
   65MOL   H19536163   2.598   7.093   5.601  0.2303  1.2593 -0.1272
   65MOL   H19636164   2.673   7.031   5.841 -1.0312 -2.1341  0.3401
   65MOL   H19736165   2.637   7.035   6.085  0.1146 -0.4132 -0.3531
   65MOL   O19836166   2.894   7.288   5.159 -0.2633 -0.2738  0.8673
   65MOL   C19936167   2.835   7.335   5.259  0.0483  0.9236 -0.2916
   65MOL   O20036168   2.703   7.349   5.261  0.0956  0.0301  0.0996
   65MOL   C20136169   2.906   7.396   5.374  0.1559  0.1394  0.2384
   65MOL   C20236170   3.049   7.414   5.373 -0.0781  0.3713  0.0472
   65MOL   C20336171   3.118   7.470   5.482 -0.3793  0.1226  0.1019
   65MOL   C20436172   3.258   7.478   5.479 -0.6009  0.1669  0.8441
   65MOL   C20536173   3.321   7.541   5.586  0.5045  0.1879 -0.4469
   65MOL   C20636174   3.254   7.587   5.697  0.7261 -0.6410  0.7150
   65MOL   C20736175   3.316   7.670   5.801 -0.1736 -0.2563  0.7449
   65MOL   O20836176   3.452   7.703   5.772 -0.1564 -0.3410  0.6253
   65MOL   C20936177   3.522   7.770   5.881 -0.2168 -0.0513 -0.2015
   65MOL   C21036178   3.658   7.820   5.837 -0.3762 -0.5160  0.0477
   65MOL   O21136179   3.263   7.700   5.910 -0.6551 -0.2851 -0.7197
   65MOL   C21236180   3.115   7.564   5.700  0.8191 -0.9070 -0.1932
   65MOL   C21336181   3.044   7.505   5.600 -0.1676 -0.6071  0.2177
   65MOL   C21436182   2.900   7.483   5.602 -0.6475 -0.4096 -0.1506
   65MOL   C21536183   2.833   7.416   5.494 -0.4092 -0.0374 -0.5918
   65MOL   H21636184   3.110   7.385   5.289  0.6348  2.1663 -0.0843
   65MOL   H21736185   3.316   7.451   5.392 -0.0157 -0.1634  1.3291
   65MOL   H21836186   3.427   7.561   5.589  0.7908 -1.3361  0.1591
   65MOL   H21936187   3.521   7.703   5.967 -1.6535 -0.1859 -0.3135
   65MOL   H22036188   3.467   7.860   5.909 -1.9185 -1.8871  2.5595
   65MOL   H22136189   3.721   7.814   5.925 -1.2158 -2.0997  0.5699
   65MOL   H22236190   3.703   7.751   5.765 -1.9615 -2.5678  0.9682
   65MOL   H22336191   3.060   7.595   5.788 -0.1036 -0.9500 -0.7465
   65MOL   H22436192   2.838   7.501   5.688  0.9536 -0.3718  1.0202
   65MOL   H22536193   2.727   7.395   5.495 -0.2791 -0.8033 -1.9981
   65MOL   O22636194   3.589   7.933   5.581 -0.5114 -0.6034 -0.3829
   65MOL   C22736195   3.609   8.007   5.682 -0.0055  0.8764  0.4123
   65MOL   O22836196   3.654   7.959   5.800 -0.4065 -0.2667  0.0070
   65MOL   C22936197   3.603   8.154   5.688 -0.0167  0.0918  0.0227
   65MOL   C23036198   3.663   8.230   5.795 -0.0536  0.2892 -0.3017
   65MOL   C23136199   3.628   0.120   5.803 -0.0320 -0.4257 -0.6326
   65MOL   C23236200   3.665   0.192   5.917  0.4076 -0.0467 -0.1111
   65MOL   C23336201   3.633   0.336   5.925  0.2197  0.5429 -0.5075
   65MOL   C23436202   3.566   0.402   5.825 -0.0705 -0.4494 -0.4763
   65MOL   C23536203   3.527   0.551   5.830 -0.3802 -0.0415 -0.0049
   65MOL   O23636204   3.604   0.610   5.915 -0.3236 -0.5752  0.5922
   65MOL   C23736205   3.607   0.750   5.919  0.2724  0.4894 -1.0004
   65MOL   C23836206   3.499   0.796   6.010  0.4127 -0.3145 -0.0720
   65MOL   O23936207   3.436   0.597   5.766 -0.4889  0.5844  0.2322
   65MOL   C24036208   3.520   0.326   5.720 -0.8350 -0.0461  0.2843
   65MOL   C24136209   3.547   0.182   5.706  0.2022 -0.8115  0.6186
   65MOL   C24236210   3.500   0.106   5.593  0.0043 -0.5571  0.1112
   65MOL   C24336211   3.527   8.219   5.585 -1.0353 -0.7821  0.5725
   65MOL   H24436212   3.736   8.186   5.860  2.0951  1.3443 -1.9525
   65MOL   H24536213   3.725   0.140   5.991 -0.8859 -0.4995  0.6397
   65MOL   H24636214   3.676   0.395   6.006 -1.1277 -0.0542  0.6686
   65MOL   H24736215   3.616   0.786   5.817 -2.2937  0.4953 -1.2602
   65MOL   H24836216   3.700   0.757   5.975  1.4378  2.3105 -3.0796
   65MOL   H24936217   3.508   0.900   6.040 -1.2250 -0.8387  2.4149
   65MOL   H25036218   3.402   0.776   5.964  1.0783 -0.8846 -1.2549
   65MOL   H25136219   3.450   0.370   5.650 -1.1150  0.1462  0.6776
   65MOL   H25236220   3.437   0.152   5.518  3.8031  0.8896 -2.3446
   65MOL   H25336221   3.474   8.161   5.511  1.3841 -0.6080 -1.3696
   65MOL   O25436222   3.675   0.817   6.208  0.0659  0.0060  0.5110
   65MOL   C25536223   3.581   0.742   6.220  0.1717 -0.5166  0.0963
   65MOL   O25636224   3.486   0.732   6.131 -0.6073 -0.3145  0.1853
   65MOL   C25736225   3.563   0.651   6.335  0.2020  0.1715 -0.3871
   65MOL   C25836226   3.449   0.568   6.358 -0.2220 -0.1125  0.5248
   65MOL   C25936227   3.451   0.478   6.467  0.1281 -0.2399 -0.2916
   65MOL   C26036228   3.356   0.376   6.477 -0.4621 -0.1770 -0.2561
   65MOL   C26136229   3.351   0.289   6.589 -0.3946  0.6738 -0.2713
   65MOL   C26236230   3.448   0.301   6.694 -0.8693 -0.4217 -0.0620
   65MOL   C26336231   3.457   0.207   6.806 -0.1916  0.1413 -0.3960
   65MOL   O26436232   3.366   0.115   6.805 -0.1788 -0.2487 -0.9724
   65MOL   C26536233   3.332   0.016   6.899  0.7379 -0.2546  0.2548
   65MOL   C26636234   3.287   0.076   7.035 -0.5548 -0.2548 -0.0463
   65MOL   O26736235   3.552   0.202   6.884  0.3978 -0.8716 -0.6232
   65MOL   C26836236   3.549   0.395   6.683  0.3412 -0.2805 -0.2548
   65MOL   C26936237   3.555   0.481   6.570  0.9884  0.7367 -0.5530
   65MOL   C27036238   3.659   0.567   6.553  0.4978  0.0140 -0.6279
   65MOL   C27136239   3.668   0.649   6.436  0.7802  0.6105 -0.6718
   65MOL   H27236240   3.376   0.552   6.280  0.4364  0.0818 -0.1424
   65MOL   H27336241   3.274   0.374   6.406 -1.1802  1.5629  0.4761
   65MOL   H27436242   3.267   0.225   6.610  0.1604  0.5053  1.5227
   65MOL   H27536243   3.419   8.200   6.912  2.0503  1.3005 -0.5926
   65MOL   H27636244   3.254   8.209   6.847  0.9895 -0.2934 -0.0805
   65MOL   H27736245   3.239   0.008   7.106 -1.2962  0.1614 -0.1427
   65MOL   H27836246   3.378   0.105   7.087 -0.5458 -0.7451  0.2102
   65MOL   H27936247   3.628   0.407   6.756  0.0940 -0.4703  0.0419
   65MOL   H28036248   3.742   0.567   6.622  0.8134 -1.5566 -0.9972
   65MOL   H28136249   3.749   0.719   6.424  0.1575  1.1623 -1.7695
   65MOL   O28236250   3.004   0.072   7.016 -0.2865 -0.2400  0.2084
   65MOL   C28336251   3.067   0.175   6.995 -0.0824 -1.1766  0.5724
   65MOL   O28436252   3.193   0.191   7.019  0.6098 -0.0197  0.3341
   65MOL   C28536253   3.004   0.300   6.936  0.3583 -0.3763 -0.0990
   65MOL   C28636254   3.080   0.386   6.853 -0.2940  0.3217 -0.3165
   65MOL   C28736255   3.021   0.490   6.783  0.3071 -0.3191  0.0691
   65MOL   C28836256   3.090   0.553   6.679  0.9393  0.1630  0.2439
   65MOL   C28936257   3.028   0.650   6.598 -1.1312 -0.1452 -0.0519
   65MOL   C29036258   2.896   0.695   6.628  0.3954  1.2339  0.0532
   65MOL   C29136259   2.826   0.798   6.557 -0.4867 -0.1909 -0.1087
   65MOL   O29236260   2.894   0.845   6.455  0.4275  0.3051 -0.5989
   65MOL   C29336261   2.837   0.931   6.357  0.4794 -0.3359 -0.1585
   65MOL   C29436262   2.792   0.847   6.237  0.1459 -0.3322 -0.5362
   65MOL   O29536263   2.709   0.841   6.583  0.5723  0.2374 -0.2695
   65MOL   C29636264   2.830   0.624   6.729  0.3578 -0.3811  0.5767
   65MOL   C29736265   2.884   0.514   6.802 -0.4943 -0.3861 -0.1363
   65MOL   C29836266   2.801   0.433   6.881  0.4198  0.0036 -0.2919
   65MOL   C29936267   2.866   0.318   6.941  0.4785 -0.0584 -0.4130
   65MOL   H30036268   3.185   0.368   6.838 -0.7745 -2.7619 -0.1440
   65MOL   H30136269   3.196   0.533   6.673  1.0501  0.8940 -0.2138
   65MOL   H30236270   3.087   0.712   6.531 -1.6024  1.0500  0.6273
   65MOL   H30336271   2.911   1.007   6.332  1.2800 -0.3839  1.9414
   65MOL   H30436272   2.756   0.988   6.401  1.1595  1.1927 -0.8576
   65MOL   H30536273   2.762   0.918   6.161  0.1172 -0.1063 -0.3153
   65MOL   H30636274   2.865   0.782   6.188 -0.1934 -1.1778  0.0517
   65MOL   H30736275   2.724   0.648   6.730  0.1456 -1.2520 -0.3059
   65MOL   H30836276   2.698   0.459   6.899  0.6335 -0.1268  1.1619
   65MOL   H30936277   2.805   0.246   6.995  2.4849 -0.2811  1.6197
   65MOL   O31036278   2.548   0.800   6.102  0.3811 -0.3343 -0.4564
   65MOL   C31136279   2.568   0.750   6.212 -0.2235 -0.0629 -0.1208
   65MOL   O31236280   2.688   0.770   6.291 -0.0315  0.3354  0.3440
   65MOL   C31336281   2.484   0.657   6.291 -1.0646 -0.8520 -0.0383
   65MOL   C31436282   2.538   0.586   6.405  0.3509 -0.1959 -0.3151
   65MOL   C31536283   2.455   0.505   6.486 -0.2561 -0.3933 -0.2316
   65MOL   C31636284   2.506   0.446   6.603  0.2902 -0.2820  0.2717
   65MOL   C31736285   2.414   0.356   6.668 -0.3702 -0.0473 -0.4512
   65MOL   C31836286   2.274   0.347   6.646  0.0310 -0.4750  0.2039
   65MOL   C31936287   2.179   0.264   6.724 -0.3552 -0.2994  0.5896
   65MOL   O32036288   2.049   0.278   6.687 -0.6309 -0.0021 -0.3875
   65MOL   C32136289   1.943   0.241   6.769  0.5150  0.8278 -0.1674
   65MOL   C32236290   1.915   0.095   6.818 -0.7337 -0.1564 -0.2102
   65MOL   O32336291   2.216   0.180   6.810 -0.4761  0.4269 -0.3423
   65MOL   C32436292   2.229   0.418   6.535  0.1232 -0.4505  0.4403
   65MOL   C32536293   2.315   0.499   6.459 -0.3844  0.2218 -0.7230
   65MOL   C32636294   2.262   0.571   6.353  0.1204  0.0005 -0.2561
   65MOL   C32736295   2.343   0.645   6.266 -0.3327 -0.5921  0.1281
   65MOL   H32836296   2.641   0.599   6.434 -0.6340  0.3829  3.1569
   65MOL   H32936297   2.610   0.452   6.631 -0.1106 -2.0901  2.2541
   65MOL   H33036298   2.457   0.310   6.756 -0.9149 -3.2937 -1.7961
   65MOL   H33136299   1.852   0.260   6.712  0.1919  0.3256  0.1677
   65MOL   H33236300   1.923   0.310   6.851  1.0444 -0.2592  0.8956
   65MOL   H33336301   1.811   0.068   6.803 -0.7194 -0.6719  0.6019
   65MOL   H33436302   1.979   0.031   6.758  2.1107  1.7957  0.5931
   65MOL   H33536303   2.121   0.420   6.523 -0.0922  0.6596  2.2630
   65MOL   H33636304   2.159   0.560   6.324 -0.0894  1.0532  0.0771
   65MOL   H33736305   2.300   0.696   6.182 -1.2873 -1.8474 -0.1528
   65MOL   O33836306   1.737   0.155   7.009 -0.3480 -0.5065  0.0462
   65MOL   C33936307   1.846   0.106   7.042 -0.4525 -0.2770 -0.3117
   65MOL   O34036308   1.941   0.089   6.955  0.3006 -0.4448 -0.1258
   65MOL   C34136309   1.876   0.042   7.172  0.0959  0.1003  0.3421
   65MOL   C34236310   1.780   0.044   7.272  0.3422 -0.2055  0.6056
   65MOL   C34336311   1.815   8.238   7.404 -0.2181 -0.0946 -0.3325
   65MOL   C34436312   1.723   0.009   7.513 -0.2997  0.2404 -0.3504
   65MOL   C34536313   1.759   8.205   7.643 -0.1260 -0.2461  0.4742
   65MOL   C34636314   1.887   8.147   7.661  0.7766 -0.3832 -0.3105
   65MOL   C34736315   1.920   8.110   7.796 -0.1185  0.4096 -0.1578
   65MOL   O34836316   2.054   8.109   7.812 -0.1913  0.8192  0.1167
   65MOL   C34936317   2.118   8.071   7.932  0.8306  0.5176 -0.1900
   65MOL   C35036318   2.127   8.187   8.034 -0.5639  0.6004 -0.1306
   65MOL   O35136319   1.829   8.085   7.879  0.2692  0.8911 -0.1264
   65MOL   C35236320   1.973   8.129   7.550  0.5104 -0.0321 -0.3916
   65MOL   C35336321   1.941   8.172   7.423 -0.0970 -1.1253 -0.6764
   65MOL   C35436322   2.041   8.173   7.323  1.2004  0.3923  0.7160
   65MOL   C35536323   2.003   8.226   7.194 -0.3031 -0.0148  0.2765
   65MOL   H35636324   1.683   0.088   7.260  1.7182  3.4431  2.0085
   65MOL   H35736325   1.627   0.051   7.487  0.6041  1.9894 -0.9330
   65MOL   H35836326   1.691   8.205   7.727 -1.2072  0.8178 -0.3823
   65MOL   H35936327   2.221   8.047   7.905  0.8624  2.4338 -1.8706
   65MOL   H36036328   2.071   7.980   7.970 -0.3579  1.2079  0.0101
   65MOL   H36136329   2.223   8.174   8.082  1.0151 -0.1551 -3.3320
   65MOL   H36236330   2.140   0.033   7.983 -1.7658  0.5232 -0.6003
   65MOL   H36336331   2.072   8.096   7.578  0.3676 -1.3755 -1.4140
   65MOL   H36436332   2.133   8.121   7.345 -1.5656 -4.2476  2.1475
   65MOL   H36536333   2.090   8.234   7.131 -0.2575 -0.7077  0.2506
   65MOL   O36636334   2.081   8.082   0.035  0.3890 -0.0061 -0.3366
   65MOL   C36736335   1.999   8.153   8.234  0.3829 -1.0375  0.2629
   65MOL   O36836336   2.010   8.210   8.113  0.1567 -0.2661  0.0832
   65MOL   C36936337   1.868   8.176   0.048 -0.0482  0.4183 -0.2043
   65MOL   C37036338   1.779   0.021   8.241  0.0511 -1.2761  0.1841
   65MOL   C37136339   1.652   0.048   0.052 -0.2054  0.1227 -0.1895
   65MOL   C37236340   1.565   0.139   8.241 -0.5765  0.3500  0.0268
   65MOL   C37336341   1.436   0.151   0.037  0.0761 -0.4080 -0.3475
   65MOL   C37436342   1.392   0.073   0.152 -0.1290  0.6022  0.5875
   65MOL   C37536343   1.251   0.088   0.196 -0.0082  0.7594  0.0175
   65MOL   O37636344   1.209   0.018   0.305  0.5364  0.5203 -0.0747
   65MOL   C37736345   1.077   0.034   0.344 -0.5157 -0.0692  0.1707
   65MOL   C37836346   0.968   8.241   0.249 -0.0775 -0.6448  0.5645
   65MOL   O37936347   1.172   0.161   0.136  0.4032 -0.0351  0.6084
   65MOL   C38036348   1.484   8.230   0.216  0.0128 -0.2386 -0.0477
   65MOL   C38136349   1.615   8.223   0.164 -0.5461  0.0369  0.3022
   65MOL   C38236350   1.706   8.137   0.224  0.6298 -0.0255  0.0540
   65MOL   C38336351   1.831   8.112   0.167  0.6335  0.3681 -0.1105
   65MOL   H38436352   1.801   0.084   8.157  0.7088 -0.6079  0.8461
   65MOL   H38536353   1.585   0.187   8.147  1.4797 -1.1695 -0.3567
   65MOL   H38636354   1.367   0.222   8.244 -2.0428 -0.8383  2.3047
   65MOL   H38736355   1.068   0.138   0.376  1.5758 -0.2193  1.3082
   65MOL   H38836356   1.072   8.228   0.438  1.5672  0.0276  0.3654
   65MOL   H38936357   0.868   0.034   0.264  0.4558  0.3389  1.3485
   65MOL   H39036358   1.008   0.011   0.150 -0.2289  0.3754  0.6952
   65MOL   H39136359   1.464   8.168   0.302  2.2627 -1.2051 -0.1686
   65MOL   H39236360   1.675   8.069   0.303  1.1673 -0.4029 -0.0583
   65MOL   H39336361   1.912   8.052   0.206 -1.8791 -3.1342 -0.0581
   65MOL   O39436362   0.758   8.099   0.366 -0.7177 -0.0867  0.0805
   65MOL   C39536363   0.852   8.039   0.314 -0.1139 -0.1877  0.1448
   65MOL   O39636364   0.964   8.101   0.259 -0.6093 -0.0485  0.4963
   65MOL   C39736365   0.856   7.891   0.324  0.8252 -0.1005 -0.0911
   65MOL   C39836366   0.947   7.819   0.242  0.7272  0.1417  0.3445
   65MOL   C39936367   0.942   7.677   0.228 -0.2376  0.0306 -0.0803
   65MOL   C40036368   1.031   7.609   0.136 -0.7824 -1.1117 -0.4786
   65MOL   C40136369   1.029   7.470   0.129  0.2221  0.4378  0.0208
   65MOL   C40236370   0.940   7.392   0.209  0.4818 -0.1060  0.2053
   65MOL   C40336371   0.938   7.244   0.196 -0.8699  0.5700 -0.1121
   65MOL   O40436372   0.844   7.182   0.262  0.2026 -0.2962  0.2291
   65MOL   C40536373   0.858   7.045   0.285 -0.1884 -0.7694 -0.7178
   65MOL   C40636374   0.825   6.969   0.161 -0.2409 -0.5932  0.1071
   65MOL   O40736375   1.034   7.185   0.148 -0.0087 -0.4716 -0.5402
   65MOL   C40836376   0.855   7.461   0.300  0.3471 -0.1254  0.0784
   65MOL   C40936377   0.860   7.604   0.313 -0.7337 -0.1915  0.4524
   65MOL   C41036378   0.779   7.677   0.396  0.5216 -0.0718  0.3341
   65MOL   C41136379   0.772   7.818   0.403 -0.0464  0.1289  0.2816
   65MOL   H41236380   1.007   7.868   0.167 -0.2865 -0.1941 -0.6953
   65MOL   H41336381   1.094   7.666   0.068 -1.0369  0.6932  0.7773
   65MOL   H41436382   1.107   7.421   0.073  0.5470 -0.3025  1.1034
   65MOL   H41536383   0.788   7.026   0.367 -0.6228 -0.6802 -1.0716
   65MOL   H41636384   0.959   7.026   0.322 -0.7111 -0.9357  0.6512
   65MOL   H41736385   0.718   6.951   0.156 -0.2499 -0.3192 -0.7503
   65MOL   H41836386   0.857   7.019   0.069 -0.4122 -0.1439  0.2907
   65MOL   H41936387   0.800   7.403   0.372 -1.1454  1.5513  0.3092
   65MOL   H42036388   0.703   7.630   0.457 -0.6038 -0.6581 -1.4930
   65MOL   H42136389   0.701   7.865   0.469  1.4152 -1.6220  3.1811
   65MOL   O42236390   0.710   6.724   0.223 -0.2435  0.3591 -0.3981
   65MOL   C42336391   0.832   6.737   0.217 -0.0525  0.1185 -0.1074
   65MOL   O42436392   0.896   6.849   0.171 -0.2874 -0.3313 -0.2532
   65MOL   C42536393   0.926   6.639   0.259  0.7838  0.4239 -0.1356
   65MOL   C42636394   0.884   6.532   0.348 -0.4460  0.0136  0.0279
   65MOL   C42736395   0.982   6.436   0.388 -0.2779  0.2186  0.2238
   65MOL   C42836396   0.944   6.333   0.475  0.4782 -0.2294 -0.0292
   65MOL   C42936397   1.035   6.230   0.509  0.4285 -0.0642  0.2390
   65MOL   C43036398   1.170   6.229   0.472 -0.3901  0.7561  0.7981
   65MOL   C43136399   1.268   6.127   0.528 -0.4915 -0.0755  0.2556
   65MOL   O43236400   1.396   6.151   0.477 -0.1854  0.1267  0.1004
   65MOL   C43336401   1.514   6.087   0.533  0.1693 -0.5909 -0.3624
   65MOL   C43436402   1.644   6.163   0.504  0.1381 -0.0597  0.3167
   65MOL   O43536403   1.235   6.042   0.617  0.2021 -0.4961  0.1017
   65MOL   C43636404   1.207   6.337   0.386 -0.5726 -0.1836  0.2661
   65MOL   C43736405   1.117   6.439   0.344 -0.5375  0.0486  0.0461
   65MOL   C43836406   1.152   6.543   0.250 -0.4290  0.2802 -0.0772
   65MOL   C43936407   1.061   6.641   0.217  0.1078  0.8577  0.3112
   65MOL   H44036408   0.779   6.518   0.371 -0.1124 -0.4816  1.2953
   65MOL   H44136409   0.849   6.334   0.526 -0.0595  0.2622 -1.0373
   65MOL   H44236410   0.991   6.160   0.578  1.1105  1.3109  2.1302
   65MOL   H44336411   1.514   5.987   0.488 -1.1113 -1.1210  0.7800
   65MOL   H44436412   1.506   6.094   0.641  3.3294 -1.3931 -0.0186
   65MOL   H44536413   1.646   6.264   0.545 -1.8765 -0.5075  1.6103
   65MOL   H44636414   1.730   6.120   0.557  0.4727 -1.6819 -1.4978
   65MOL   H44736415   1.301   6.343   0.332 -1.3726  0.8739 -1.0654
   65MOL   H44836416   1.254   6.551   0.216 -0.0335  2.3936  1.5165
   65MOL   H44936417   1.104   6.719   0.156 -1.5141  0.9466 -0.7693
   65MOL   O45036418   1.704   6.378   0.322 -0.1395  0.4161 -0.4694
   65MOL   C45136419   1.708   6.259   0.290 -0.7401 -0.2180 -0.3224
   65MOL   O45236420   1.680   6.151   0.368 -0.4180 -0.2995 -0.6790
   65MOL   C45336421   1.725   6.225   0.146  0.2314  0.2935 -0.5667
   65MOL   C45436422   1.765   6.098   0.106  0.1141 -0.1227  0.5674
   65MOL   C45536423   1.780   6.066   8.216 -0.0265  0.0201 -0.0757
   65MOL   C45636424   1.812   5.938   8.177  0.0934 -0.7699 -0.4075
   65MOL   C45736425   1.800   5.890   8.044 -0.3823  0.6466 -0.8803
   65MOL   C45836426   1.776   5.984   7.940  0.2521  0.2972 -0.4118
   65MOL   C45936427   1.788   5.942   7.800  0.8799  0.3187  0.2454
   65MOL   O46036428   1.796   6.047   7.718  0.4342 -0.5931 -0.3331
   65MOL   C46136429   1.816   6.026   7.580  0.2132  0.1951 -0.0605
   65MOL   C46236430   1.737   6.128   7.494 -0.9619 -0.7216  0.1015
   65MOL   O46336431   1.778   5.827   7.756 -0.1434  0.3387 -0.3993
   65MOL   C46436432   1.746   6.118   7.978 -0.6842  0.6815  0.5050
   65MOL   C46536433   1.752   6.158   8.118  0.0321  0.4948  0.2671
   65MOL   C46636434   1.712   6.294   8.161 -0.3315 -0.4751 -1.0942
   65MOL   C46736435   1.705   6.328   0.047  0.1678 -0.5364 -0.2935
   65MOL   H46836436   1.776   6.023   0.184 -1.2896 -1.7991 -0.8140
   65MOL   H46936437   1.840   5.858   8.244 -0.4372 -1.3842 -0.9120
   65MOL   H47036438   1.826   5.788   8.020  0.1212  0.8493 -1.2069
   65MOL   H47136439   1.781   5.929   7.546 -1.2857 -0.2338  2.6220
   65MOL   H47236440   1.922   6.038   7.557  0.4764  0.7286  1.3884
   65MOL   H47336441   1.735   6.084   7.395  0.6343 -0.1731 -0.1829
   65MOL   H47436442   1.639   6.153   7.535 -1.8209 -3.0151 -0.4467
   65MOL   H47536443   1.716   6.195   7.908 -0.2801 -0.7209 -1.2317
   65MOL   H47636444   1.703   6.370   8.085  1.4247 -0.7407 -1.5998
   65MOL   H47736445   1.690   6.429   0.081 -0.3451 -1.6096  2.7941
   65MOL   O47836446   1.738   6.357   7.673 -0.0075 -0.4733 -0.5561
   65MOL   C47936447   1.815   6.346   7.573  0.5571 -0.2714 -0.3074
   65MOL   O48036448   1.824   6.241   7.489 -0.0234  0.3666  0.0182
   65MOL   C48136449   1.934   6.434   7.555 -0.8013  0.2352 -0.7991
   65MOL   C48236450   2.035   6.405   7.459 -0.5475  0.0897  0.1906
   65MOL   C48336451   2.152   6.488   7.460  0.2210 -0.1907 -0.3970
   65MOL   C48436452   2.247   6.460   7.361  0.1393 -0.2932 -0.0623
   65MOL   C48536453   2.355   6.553   7.346 -0.2218  0.6748 -0.0244
   65MOL   C48636454   2.373   6.660   7.432 -0.4398 -0.3000 -0.2501
   65MOL   C48736455   2.488   6.754   7.430  0.4253 -0.0830 -0.2821
   65MOL   O48836456   2.464   6.880   7.478  1.0035 -0.1733  0.1134
   65MOL   C48936457   2.557   6.981   7.484 -0.0515  0.1466  0.3693
   65MOL   C49036458   2.481   7.103   7.435  0.4908  0.7019 -0.0782
   65MOL   O49136459   2.599   6.724   7.379 -0.3234  0.0110 -0.1951
   65MOL   C49236460   2.273   6.680   7.527 -0.1244  0.5726 -0.1139
   65MOL   C49336461   2.161   6.598   7.541  0.1110 -0.7269  0.4390
   65MOL   C49436462   2.060   6.631   7.632  0.2526  0.2061  1.4012
   65MOL   C49536463   1.945   6.543   7.640 -0.3212 -0.3493  0.1613
   65MOL   H49636464   2.030   6.327   7.385 -0.5829 -0.4366  0.7488
   65MOL   H49736465   2.230   6.371   7.301  0.8252 -0.7054  0.3608
   65MOL   H49836466   2.432   6.533   7.272 -1.1871 -1.8181 -0.4068
   65MOL   H49936467   2.651   6.969   7.431  0.0144  0.7514  0.3387
   65MOL   H50036468   2.583   6.986   7.590 -0.0526 -1.8235  0.4737
   65MOL   H50136469   2.557   7.177   7.413  1.3204  0.4980  2.0196
   65MOL   H50236470   2.436   7.081   7.338  0.4730 -1.3487  0.3570
   65MOL   H50336471   2.288   6.765   7.591  0.3065  0.3938  0.0204
   65MOL   H50436472   2.065   6.719   7.693 -0.5367  1.0993  0.1999
   65MOL   H50536473   1.874   6.558   7.720  1.3397  0.1494  1.5728
   65MOL   O50636474   2.538   7.252   7.654 -0.0819 -0.3705  0.6294
   65MOL   C50736475   2.419   7.218   7.636  0.1331  0.5407 -0.1070
   65MOL   O50836476   2.387   7.145   7.534 -0.1458 -0.0699 -0.6567
   65MOL   C50936477   2.306   7.237   7.731  0.1653  0.1717 -0.4894
   65MOL   C51036478   2.206   7.146   7.736 -0.4103  0.1166  0.6118
   65MOL   C51136479   2.110   7.150   7.841  1.0822  0.2632  0.3048
   65MOL   C51236480   2.012   7.057   7.845  0.3699  0.3006  0.8228
   65MOL   C51336481   1.914   7.071   7.945 -0.1354 -0.3472  0.4607
   65MOL   C51436482   1.931   7.160   8.051 -0.5961  0.4621 -0.0420
   65MOL   C51536483   1.843   7.163   8.164  0.1278  0.1285  0.2205
   65MOL   O51636484   1.748   7.073   8.153  0.8242 -0.3651  0.6743
   65MOL   C51736485   1.632   7.071   8.239 -0.5864 -0.6911  0.0305
   65MOL   C51836486   1.501   7.054   8.157  0.4864 -0.5172  0.4086
   65MOL   O51936487   1.849   7.248   0.006  0.0918 -0.3135  0.5573
   65MOL   C52036488   2.032   7.257   8.045  0.5335  0.1749  0.4641
   65MOL   C52136489   2.123   7.245   7.940 -0.7895  0.5050 -1.0382
   65MOL   C52236490   2.224   7.341   7.935  0.5846  0.0063  0.0631
   65MOL   C52336491   2.315   7.339   7.830 -0.0994  0.7346  0.1779
   65MOL   H52436492   2.198   7.072   7.658 -0.4157 -1.7784  2.3563
   65MOL   H52536493   1.999   6.979   7.771 -1.9473  0.4805  1.0166
   65MOL   H52636494   1.838   6.994   7.951  0.3963 -0.7889  1.7014
   65MOL   H52736495   1.621   7.162   0.050  0.6016 -1.6029  1.6572
   65MOL   H52836496   1.654   6.995   0.064 -0.3566 -0.6004  0.0568
   65MOL   H52936497   1.416   7.081   8.220  0.4557  1.7908 -0.5586
   65MOL   H53036498   1.508   7.130   8.078 -1.1558 -0.4225  0.3467
   65MOL   H53136499   2.038   7.319   8.134 -0.0771 -1.3251  1.5750
   65MOL   H53236500   2.234   7.422   8.007  1.9858  0.2199 -0.3537
   65MOL   H53336501   2.391   7.415   7.828 -0.1855  0.8665  1.6132
   65MOL   O53436502   1.431   6.816   0.042 -0.0705  0.3305  0.1574
   65MOL   C53536503   1.475   6.812   8.176 -0.1810 -0.0715 -0.4612
   65MOL   O53636504   1.501   6.924   8.104  0.2375 -0.8137 -0.2122
   65MOL   C53736505   1.487   6.687   8.097 -0.2147  0.5738 -0.1431
   65MOL   C53836506   1.416   6.574   8.145  0.1865  0.1397  0.5970
   65MOL   C53936507   1.410   6.457   8.067 -0.3909 -0.6216 -0.5408
   65MOL   C54036508   1.344   6.346   8.118 -0.1509  0.0538  0.3138
   65MOL   C54136509   1.343   6.230   8.043  0.0109 -0.4412 -0.1711
   65MOL   C54236510   1.404   6.217   7.913  0.4048 -0.2018  0.0409
   65MOL   C54336511   1.396   6.097   7.829 -0.2155 -0.3489  0.6208
   65MOL   O54436512   1.305   6.010   7.877 -0.6044 -0.2014  0.0981
   65MOL   C54536513   1.249   5.916   7.790 -0.4018  0.2486 -0.0368
   65MOL   C54636514   1.111   5.875   7.853  0.1050  0.3636  0.0221
   65MOL   O54736515   1.467   6.083   7.729  0.1615 -0.5600  0.2582
   65MOL   C54836516   1.467   6.335   7.865 -0.2648  0.2171 -0.2958
   65MOL   C54936517   1.471   6.450   7.941 -1.0237 -0.5014 -0.7030
   65MOL   C55036518   1.545   6.563   7.900  0.3690 -0.0234  0.2839
   65MOL   C55136519   1.556   6.679   7.976  0.2543 -0.3584 -0.5904
   65MOL   H55236520   1.364   6.574   8.240 -0.7037  0.1383  0.1180
   65MOL   H55336521   1.317   6.347   8.223 -0.3546 -0.2672  0.2664
   65MOL   H55436522   1.305   6.134   8.075  1.8145 -1.2752 -0.4397
   65MOL   H55536523   1.311   5.829   7.769  1.2086  1.3060  0.1747
   65MOL   H55636524   1.238   5.968   7.694 -0.1071 -2.0421 -1.3595
   65MOL   H55736525   1.065   5.812   7.777  2.2161 -0.0608 -0.9483
   65MOL   H55836526   1.038   5.953   7.870 -0.5619 -0.2481 -0.0055
   65MOL   H55936527   1.508   6.343   7.765 -0.3541 -0.4859 -0.3930
   65MOL   H56036528   1.603   6.546   7.810 -0.2802  0.0471 -0.1539
   65MOL   H56136529   1.622   6.760   7.946  0.6510 -1.1354 -1.8338
   65MOL   H56236530   1.126   5.829   7.951  1.1950  2.9397  1.0859
   66MOL     O136531   2.189   6.400   1.046 -0.0536  0.6770 -0.7027
   66MOL     C236532   2.141   6.356   1.156  1.1895 -0.4567 -0.1321
   66MOL     O336533   2.189   6.396   1.274  0.2533 -0.0729 -0.4384
   66MOL     C436534   2.007   6.283   1.156 -0.6186  0.0640  0.0336
   66MOL     C536535   1.921   6.286   1.049 -0.7518  0.2808  0.8250
   66MOL     C636536   1.793   6.228   1.052  0.9810  0.0430 -0.2274
   66MOL     C736537   1.701   6.238   0.943  0.4939 -0.1511  0.2418
   66MOL     C836538   1.574   6.197   0.958  0.6043  0.1161  0.6850
   66MOL     C936539   1.531   6.131   1.073  0.5420  1.4251  0.0787
   66MOL    C1036540   1.387   6.091   1.097  0.0190  0.1451  0.9049
   66MOL    O1136541   1.310   6.099   0.982  0.7037  0.2823 -0.7514
   66MOL    C1236542   1.171   6.064   0.987  0.7501  0.0627 -0.2768
   66MOL    C1336543   1.072   6.185   0.986 -0.5468  0.1907 -0.5170
   66MOL    O1436544   1.351   6.054   1.209 -0.2146  0.4739 -0.3272
   66MOL    C1536545   1.623   6.101   1.174 -0.1845  0.1643 -0.0362
   66MOL    C1636546   1.751   6.158   1.170  0.4004  0.0769 -0.5401
   66MOL    C1736547   1.842   6.144   1.274 -0.5053 -1.1060 -0.5187
   66MOL    C1836548   1.965   6.204   1.268 -0.6131 -0.1145  0.4522
   66MOL    H1936549   1.946   6.340   0.959 -0.6753 -0.3991  0.4340
   66MOL    H2036550   1.715   6.291   0.851 -0.7624 -1.9689 -1.0333
   66MOL    H2136551   1.504   6.224   0.881 -0.5484 -0.8081  1.3914
   66MOL    H2236552   1.163   6.004   0.896  1.8233 -0.6887  0.1103
   66MOL    H2336553   1.142   6.000   1.071  0.7281  0.5219  0.0659
   66MOL    H2436554   1.069   6.241   0.893 -1.7843 -2.6845 -2.2920
   66MOL    H2536555   0.978   6.130   0.989  0.5240 -1.6271  2.4357
   66MOL    H2636556   1.597   6.057   1.269 -1.2590 -0.1010 -0.4499
   66MOL    H2736557   1.819   6.085   1.362 -0.7437  2.8678  2.2442
   66MOL    H2836558   2.029   6.188   1.353 -0.4961  0.6332  0.5018
   66MOL    H2936559   2.225   6.483   1.263 -2.3272  1.0385 -0.4970
   66MOL    O3036560   1.223   6.418   1.001 -0.6447 -0.1056 -0.3376
   66MOL    C3136561   1.168   6.372   1.103 -0.5227  0.2409 -0.0732
   66MOL    O3236562   1.084   6.264   1.108  0.4341 -0.2524  0.5937
   66MOL    C3336563   1.197   6.426   1.238 -0.3054  0.3132  0.0197
   66MOL    C3436564   1.281   6.537   1.260  0.2961  0.0918  1.3301
   66MOL    C3536565   1.324   6.586   1.385 -0.1275  0.1425  0.7872
   66MOL    C3636566   1.406   6.702   1.395 -0.6136  0.9730  0.2865
   66MOL    C3736567   1.462   6.729   1.519 -0.2174  0.0792  0.4737
   66MOL    C3836568   1.421   6.657   1.630 -0.1277 -0.0206 -0.8816
   66MOL    C3936569   1.484   6.680   1.761  0.0050  0.0809 -0.8273
   66MOL    O4036570   1.597   6.765   1.760  0.9301 -0.4774 -0.0607
   66MOL    C4136571   1.685   6.758   1.872  0.3170  0.4616  0.3153
   66MOL    C4236572   1.775   6.639   1.854  0.2649  0.4130  0.6485
   66MOL    O4336573   1.446   6.628   1.864 -0.4492  0.0976  0.9163
   66MOL    C4436574   1.319   6.566   1.626 -0.2163 -0.4818 -0.5155
   66MOL    C4536575   1.282   6.517   1.498 -0.8422  0.0073 -0.1264
   66MOL    C4636576   1.198   6.402   1.479  0.3614  0.7006  0.5636
   66MOL    C4736577   1.158   6.358   1.353  0.5295  0.1965  0.4053
   66MOL    H4836578   1.316   6.566   1.163 -2.0137  1.4315  0.8690
   66MOL    H4936579   1.443   6.743   1.302  0.0512 -0.8902 -0.2911
   66MOL    H5036580   1.543   6.799   1.531  0.1220 -0.0825 -0.7754
   66MOL    H5136581   1.644   6.753   1.973 -0.2892 -0.6038  0.0291
   66MOL    H5236582   1.742   6.849   1.860 -0.2072  0.4683 -2.5729
   66MOL    H5336583   1.712   6.557   1.890 -1.4995  0.8870 -1.2938
   66MOL    H5436584   1.786   6.628   1.746 -1.2072  2.0002  0.3292
   66MOL    H5536585   1.280   6.525   1.719  1.1908  1.3167  0.9072
   66MOL    H5636586   1.170   6.344   1.566 -0.0890 -0.0012 -0.0468
   66MOL    H5736587   1.104   6.265   1.350 -0.0802  0.5219  0.9736
   66MOL    O5836588   1.821   6.614   2.131  0.3865 -0.0387 -0.4105
   66MOL    C5936589   1.912   6.652   2.056  0.2489  0.1172 -0.5095
   66MOL    O6036590   1.896   6.658   1.919  0.7867 -0.4625 -0.6055
   66MOL    C6136591   2.040   6.705   2.102  0.1827  0.0144  1.5789
   66MOL    C6236592   2.127   6.763   2.006  0.2685 -0.5896 -0.7123
   66MOL    C6336593   2.240   6.833   2.048 -0.2657 -0.9390 -0.2874
   66MOL    C6436594   2.322   6.893   1.949  0.2197  0.3208  0.2821
   66MOL    C6536595   2.438   6.958   1.989 -0.5845 -0.0043  1.0792
   66MOL    C6636596   2.481   6.965   2.120  0.0591  0.5577 -0.3166
   66MOL    C6736597   2.597   7.042   2.156 -0.0741  0.1677 -1.0102
   66MOL    O6836598   2.655   7.096   2.046 -0.1472  0.0025  0.3809
   66MOL    C6936599   2.773   7.173   2.053 -0.2654  0.0544  0.1914
   66MOL    C7036600   2.873   7.107   1.953  0.0135 -0.0598  0.2656
   66MOL    O7136601   2.651   7.045   2.273  0.0868  0.2785 -0.1277
   66MOL    C7236602   2.395   6.910   2.217 -0.6374  0.0261  0.1251
   66MOL    C7336603   2.279   6.840   2.181 -0.0337 -0.3343 -0.1663
   66MOL    C7436604   2.194   6.778   2.278  0.0253  0.1108  0.3930
   66MOL    C7536605   2.080   6.708   2.237 -0.3927  0.1044  0.6007
   66MOL    H7636606   2.107   6.764   1.900 -0.0168  1.4749 -0.6649
   66MOL    H7736607   2.290   6.880   1.846  1.5650 -4.2255  0.3442
   66MOL    H7836608   2.501   7.003   1.913 -1.5343 -1.7634 -0.7990
   66MOL    H7936609   2.811   7.184   2.155  0.1813  0.0962  0.0176
   66MOL    H8036610   2.738   7.271   2.022  1.7373  1.7772  3.1934
   66MOL    H8136611   2.957   7.177   1.945  0.1914 -0.5046 -2.5727
   66MOL    H8236612   2.906   7.016   2.003 -0.2423  0.2973  1.0826
   66MOL    H8336613   2.417   6.919   2.322  1.0502 -4.6334  0.2888
   66MOL    H8436614   2.228   6.778   2.381  0.9866 -0.5926  0.0827
   66MOL    H8536615   2.017   6.660   2.311  0.7225  0.7371  1.9864
   66MOL    O8636616   2.789   7.286   1.769 -0.3500  0.4170  0.0480
   66MOL    C8736617   2.772   7.171   1.739 -0.2170  0.5165  0.5200
   66MOL    O8836618   2.826   7.076   1.816  0.3512 -0.1046  0.4946
   66MOL    C8936619   2.702   7.116   1.624  0.7986 -0.7347 -1.0204
   66MOL    C9036620   2.639   6.993   1.645 -0.7983 -0.0938  0.3186
   66MOL    C9136621   2.570   6.934   1.539  0.2088 -0.2134  0.1361
   66MOL    C9236622   2.511   6.806   1.556  0.0750  0.0327 -0.3301
   66MOL    C9336623   2.453   6.745   1.444  0.1451  0.3556  0.0497
   66MOL    C9436624   2.452   6.804   1.315  0.0720  0.3984  1.2857
   66MOL    C9536625   2.401   6.724   1.203 -0.2781 -0.5383  0.3334
   66MOL    O9636626   2.476   6.741   1.095 -0.2732 -0.5081  0.3583
   66MOL    C9736627   2.441   6.678   0.979 -0.5374  0.0894  0.0262
   66MOL    C9836628   2.558   6.703   0.882  0.5299  0.1553  0.0148
   66MOL    O9936629   2.304   6.644   1.214  0.4939  0.4672  0.3034
   66MOL   C10036630   2.520   6.928   1.299 -0.5115 -0.3034 -0.6649
   66MOL   C10136631   2.567   6.995   1.413  0.0619  0.1579  0.3255
   66MOL   C10236632   2.621   7.124   1.400 -0.1391  0.3216 -0.5283
   66MOL   C10336633   2.684   7.191   1.504 -0.1327  0.3800  0.1326
   66MOL   H10436634   2.643   6.943   1.740 -1.8158  1.4581  1.2124
   66MOL   H10536635   2.529   6.747   1.645 -0.2602 -0.2219 -0.4301
   66MOL   H10636636   2.414   6.648   1.473  1.6776 -0.4607 -0.5864
   66MOL   H10736637   2.347   6.711   0.934  0.3954 -1.1025 -2.8999
   66MOL   H10836638   2.439   6.571   0.999 -0.2841  0.0579 -0.1131
   66MOL   H10936639   2.655   6.677   0.924 -0.1801 -1.6340  0.5864
   66MOL   H11036640   2.539   6.630   0.803 -1.5617  2.8698 -2.1191
   66MOL   H11136641   2.527   6.981   1.205  1.3792 -1.4325 -1.1772
   66MOL   H11236642   2.612   7.164   1.300 -0.1151  1.8066  0.0541
   66MOL   H11336643   2.726   7.291   1.499 -0.1808  0.6339  3.5811
   66MOL   O11436644   2.356   6.804   0.717 -0.1094 -0.3792  0.5760
   66MOL   C11536645   2.469   6.858   0.723  0.1304  0.6465 -0.1234
   66MOL   O11636646   2.562   6.824   0.809  0.6776  0.3501  0.3135
   66MOL   C11736647   2.516   6.972   0.640 -0.4272  0.6882 -0.4002
   66MOL   C11836648   2.649   6.982   0.588 -0.0000  0.3493  0.0884
   66MOL   C11936649   2.689   7.094   0.510  0.0200 -0.3695  0.3064
   66MOL   C12036650   2.819   7.120   0.475 -0.2761  0.2510  0.0217
   66MOL   C12136651   2.851   7.238   0.408  0.3832  1.7143 -0.1913
   66MOL   C12236652   2.755   7.330   0.367  0.0337 -0.6994  0.5149
   66MOL   C12336653   2.789   7.458   0.298 -0.2065 -0.5825 -0.6407
   66MOL   O12436654   2.682   7.510   0.227  0.6904  0.2993  0.3450
   66MOL   C12536655   2.699   7.631   0.154  0.2218  0.0223 -0.5342
   66MOL   C12636656   2.619   7.750   0.217  0.0387 -0.0183 -0.3548
   66MOL   O12736657   2.906   7.498   0.300 -0.1699 -0.2397 -0.5189
   66MOL   C12836658   2.626   7.308   0.409 -0.2691 -0.3361  0.6860
   66MOL   C12936659   2.592   7.192   0.479  0.4041 -0.0958  0.3689
   66MOL   C13036660   2.460   7.180   0.526 -0.1285  0.0195 -0.1566
   66MOL   C13136661   2.421   7.064   0.596 -0.7909 -0.4891 -0.0838
   66MOL   H13236662   2.734   6.923   0.619  0.6827  1.4147  0.3067
   66MOL   H13336663   2.897   7.053   0.509  0.3702 -0.6819 -3.1507
   66MOL   H13436664   2.956   7.256   0.386  0.6737  1.0272  0.6410
   66MOL   H13536665   2.680   7.623   0.047 -0.6727  0.5864 -0.4221
   66MOL   H13636666   2.802   7.665   0.152  2.0613 -4.8889  0.9599
   66MOL   H13736667   2.651   7.781   0.316  1.0665 -0.7717 -0.4474
   66MOL   H13836668   2.648   7.831   0.150  0.1680  0.3523  0.1485
   66MOL   H13936669   2.541   7.372   0.390  0.2402  0.0186 -0.4309
   66MOL   H14036670   2.383   7.254   0.509  0.6312  0.2753 -2.6016
   66MOL   H14136671   2.318   7.054   0.628 -1.4566  0.2017 -1.9130
   66MOL   O14236672   2.440   7.843   0.026  0.1465 -0.5658 -0.3284
   66MOL   C14336673   2.402   7.766   0.116 -0.4946  0.3562 -0.3042
   66MOL   O14436674   2.481   7.718   0.212 -0.3149  0.4297 -0.2890
   66MOL   C14536675   2.265   7.709   0.117 -0.0521  0.1424 -0.2658
   66MOL   C14636676   2.170   7.760   0.024 -0.4087 -0.8453  0.6601
   66MOL   C14736677   2.044   7.706   0.020  0.0097  0.3013 -0.7103
   66MOL   C14836678   1.943   7.750   8.182 -0.0279 -0.7201  0.1443
   66MOL   C14936679   1.819   7.688   8.180  0.3489 -0.1184 -0.2936
   66MOL   C15036680   1.782   7.595   0.023  0.0819 -0.5476  0.3467
   66MOL   C15136681   1.639   7.532   0.036  0.3510  0.9431  0.5818
   66MOL   O15236682   1.559   7.576   8.189 -0.3854  0.1614  0.6761
   66MOL   C15336683   1.416   7.569   8.208 -0.1761 -0.1391  0.7148
   66MOL   C15436684   1.371   7.450   8.133 -0.3059 -0.4166  0.0134
   66MOL   O15536685   1.607   7.442   0.115 -0.0067  0.3274 -0.1849
   66MOL   C15636686   1.876   7.552   0.123  0.4227  0.2457 -0.2867
   66MOL   C15736687   2.005   7.607   0.118 -0.3527 -0.6318 -0.0800
   66MOL   C15836688   2.091   7.560   0.212 -0.0716  0.1703  0.0582
   66MOL   C15936689   2.226   7.607   0.207  0.1676  0.2185  0.7587
   66MOL   H16036690   2.187   7.829   8.192 -0.3962 -2.1628 -0.4735
   66MOL   H16136691   1.978   7.825   8.113 -0.5555  0.8373  1.5392
   66MOL   H16236692   1.750   7.704   8.098  0.9960 -1.1197 -1.0391
   66MOL   H16336693   1.376   7.659   8.161  2.2952  0.7770  0.2724
   66MOL   H16436694   1.400   7.565   0.067  2.8229 -0.7444  1.1896
   66MOL   H16536695   1.390   7.355   8.182 -0.1807 -1.0561 -1.2729
   66MOL   H16636696   1.263   7.447   8.117 -0.0173 -0.0241 -2.1337
   66MOL   H16736697   1.848   7.486   0.204 -2.1814  2.2788  0.5240
   66MOL   H16836698   2.055   7.486   0.282  0.5979 -0.7155 -0.5456
   66MOL   H16936699   2.302   7.558   0.266  0.6050  0.3932  0.3496
   66MOL   O17036700   1.304   7.619   7.917  0.3245 -0.4139  0.3367
   66MOL   C17136701   1.397   7.534   7.909  0.2328 -0.3528  0.4279
   66MOL   O17236702   1.429   7.447   8.007 -0.1312 -0.0706 -0.4591
   66MOL   C17336703   1.492   7.525   7.796 -0.7749  0.6538  0.2730
   66MOL   C17436704   1.612   7.441   7.798  1.3710 -0.2285 -0.5554
   66MOL   C17536705   1.700   7.428   7.690 -0.4001 -0.1576  0.1676
   66MOL   C17636706   1.808   7.348   7.704 -0.1758  0.2782 -0.1248
   66MOL   C17736707   1.892   7.320   7.594  0.3209  0.2669  0.5985
   66MOL   C17836708   1.868   7.390   7.470  0.1430  0.1090 -1.1190
   66MOL   C17936709   1.961   7.373   7.352  0.3567 -0.2695 -0.2200
   66MOL   O18036710   2.076   7.301   7.388  0.2881 -0.7394  0.1801
   66MOL   C18136711   2.177   7.275   7.294 -0.0205 -0.4066 -0.1896
   66MOL   C18236712   2.141   7.149   7.206 -0.1826 -0.3437  0.1271
   66MOL   O18336713   1.944   7.421   7.240  0.8109 -0.3922  0.5087
   66MOL   C18436714   1.770   7.488   7.463  0.0701  0.1828 -0.0241
   66MOL   C18536715   1.675   7.499   7.568  0.4189 -0.3144  0.1020
   66MOL   C18636716   1.560   7.588   7.555 -0.1965  1.0044 -0.0093
   66MOL   C18736717   1.480   7.602   7.674 -0.5559 -0.4882 -0.0775
   66MOL   H18836718   1.638   7.384   7.886  1.1728 -0.9897 -0.9885
   66MOL   H18936719   1.838   7.310   7.800  0.4644  0.0652 -0.4011
   66MOL   H19036720   1.969   7.245   7.600  0.2827  0.0080 -1.7518
   66MOL   H19136721   2.274   7.258   7.341  0.0401 -3.1260 -1.1706
   66MOL   H19236722   2.191   7.363   7.232  1.1946  1.2314  2.3553
   66MOL   H19336723   2.076   7.077   7.257 -2.0312  1.2857  0.1463
   66MOL   H19436724   2.066   7.187   7.136 -1.5598 -1.0009  1.2087
   66MOL   H19536725   1.750   7.546   7.375 -0.2610  0.5732  0.3071
   66MOL   H19636726   1.548   7.645   7.464 -0.4650 -1.0678 -1.2992
   66MOL   H19736727   1.393   7.666   7.678  0.7078  1.2421  0.3887
   66MOL   O19836728   2.228   6.893   7.223 -0.2455  0.4711  0.1738
   66MOL   C19936729   2.287   6.970   7.142 -0.2503  0.1120 -0.6286
   66MOL   O20036730   2.255   7.103   7.139 -0.2499 -0.1242 -0.4005
   66MOL   C20136731   2.411   6.938   7.064 -0.4789  0.0776  1.1092
   66MOL   C20236732   2.471   6.803   7.083 -0.3019 -0.0079  1.4233
   66MOL   C20336733   2.593   6.773   7.020 -0.1666  0.1628  0.1360
   66MOL   C20436734   2.651   6.648   7.035  0.1246  0.2941 -0.4021
   66MOL   C20536735   2.781   6.622   6.994  0.5455 -0.1864  0.5737
   66MOL   C20636736   2.855   6.721   6.926 -0.3231  0.6753  0.3078
   66MOL   C20736737   2.998   6.692   6.894  0.1908  0.7027 -0.1173
   66MOL   O20836738   3.043   6.595   6.972  0.2515 -0.1177  0.4930
   66MOL   C20936739   3.177   6.554   6.942 -0.1795 -0.4392 -0.5001
   66MOL   C21036740   3.173   6.429   6.848  0.3260 -0.4551  0.5293
   66MOL   O21136741   3.058   6.747   6.804 -0.5146 -0.1759 -0.4964
   66MOL   C21236742   2.796   6.846   6.900 -1.0582 -0.2161  0.4387
   66MOL   C21336743   2.662   6.872   6.944 -0.1390  0.1201  0.1886
   66MOL   C21436744   2.603   6.994   6.916  0.2009 -0.0781  0.5744
   66MOL   C21536745   2.481   7.033   6.980  0.5361  0.4077  0.6395
   66MOL   H21636746   2.421   6.731   7.145 -0.7395 -1.1102 -0.1548
   66MOL   H21736747   2.592   6.567   7.076  0.3643 -0.8534 -2.2466
   66MOL   H21836748   2.827   6.529   7.024 -0.7352 -1.0055  0.0221
   66MOL   H21936749   3.231   6.531   7.034  0.5487 -1.4008 -1.1550
   66MOL   H22036750   3.231   6.635   6.892  0.6445  0.5995  1.9881
   66MOL   H22136751   3.272   6.400   6.815 -0.3140 -1.1716 -0.7518
   66MOL   H22236752   3.129   6.344   6.900  0.5922  0.9563  3.2131
   66MOL   H22336753   2.847   6.915   6.835 -2.3306 -0.0743 -0.4281
   66MOL   H22436754   2.662   7.061   6.855  2.6565 -1.9434  0.8297
   66MOL   H22536755   2.448   7.134   6.960 -2.1817 -0.6837 -0.6069
   66MOL   O22636756   3.044   6.251   6.686  0.3444  0.0024 -0.4054
   66MOL   C22736757   3.019   6.370   6.680 -0.1660  0.6682  0.2393
   66MOL   O22836758   3.084   6.469   6.739  0.4063  0.2616  0.0821
   66MOL   C22936759   2.916   6.418   6.581 -0.1584 -0.4400 -0.0508
   66MOL   C23036760   2.876   6.328   6.482 -0.8635  0.2753 -0.2218
   66MOL   C23136761   2.783   6.372   6.387  0.9204 -0.5545 -0.2975
   66MOL   C23236762   2.758   6.295   6.271  0.6574 -0.1282 -0.9772
   66MOL   C23336763   2.665   6.346   6.175 -0.2609 -0.0277 -0.3198
   66MOL   C23436764   2.604   6.474   6.187  0.0710  0.1508  0.4675
   66MOL   C23536765   2.528   6.529   6.072 -0.4431 -0.0356  0.3328
   66MOL   O23636766   2.440   6.616   6.103 -0.3863  0.8875 -0.3460
   66MOL   C23736767   2.340   6.648   6.006  0.1490 -0.0373 -0.1280
   66MOL   C23836768   2.355   6.790   5.954  0.2121 -0.2495 -0.5072
   66MOL   O23936769   2.536   6.475   5.960 -0.2162  0.0311  0.4638
   66MOL   C24036770   2.630   6.548   6.303 -1.5410 -0.5701  0.2062
   66MOL   C24136771   2.722   6.500   6.396 -0.2781  0.1631 -0.0574
   66MOL   C24236772   2.765   6.588   6.497  0.1363  0.1372 -0.2966
   66MOL   C24336773   2.860   6.548   6.592 -0.1188 -0.0747 -0.2440
   66MOL   H24436774   2.921   6.233   6.460 -1.0377  0.2277 -0.3729
   66MOL   H24536775   2.807   6.202   6.247 -0.0524 -0.5962 -0.6284
   66MOL   H24636776   2.641   6.280   6.092  0.8318 -0.4479 -0.2979
   66MOL   H24736777   2.246   6.645   6.059 -0.2796  0.1562 -0.8685
   66MOL   H24836778   2.332   6.578   5.923 -2.0049  0.5674 -0.4464
   66MOL   H24936779   2.257   6.836   5.937 -0.1295 -0.6945  0.2469
   66MOL   H25036780   2.389   6.845   6.041 -1.4760 -0.0782  0.0573
   66MOL   H25136781   2.575   6.639   6.319 -0.6331 -0.1747  1.1701
   66MOL   H25236782   2.730   6.690   6.495 -0.9528 -0.2353 -0.6818
   66MOL   H25336783   2.899   6.613   6.668  0.3163  1.1833 -1.5354
   66MOL   O25436784   2.315   6.865   5.686  0.0426 -0.4310 -0.4177
   66MOL   C25536785   2.422   6.810   5.722  0.8404  1.1053 -0.1914
   66MOL   O25636786   2.446   6.773   5.848  0.1862  0.2134  0.2720
   66MOL   C25736787   2.531   6.772   5.630 -0.5700  0.2254  0.1139
   66MOL   C25836788   2.524   6.781   5.490 -0.4134 -0.2197 -0.1796
   66MOL   C25936789   2.628   6.734   5.401 -0.7485  0.2178 -0.0378
   66MOL   C26036790   2.614   6.735   5.260  0.0811  0.1274 -0.9719
   66MOL   C26136791   2.716   6.684   5.174  0.4983 -0.4314 -0.1071
   66MOL   C26236792   2.834   6.630   5.233  0.0998 -0.3053 -0.5847
   66MOL   C26336793   2.948   6.585   5.144 -0.0117 -0.0098  0.0164
   66MOL   O26436794   2.915   6.562   5.020  0.7365 -0.0567  0.1704
   66MOL   C26536795   3.005   6.520   4.929 -0.4290 -0.5596  1.2156
   66MOL   C26636796   3.030   6.628   4.826  0.6011  0.3162  0.2957
   66MOL   O26736797   3.066   6.572   5.186 -0.0015 -0.2524 -0.0246
   66MOL   C26836798   2.847   6.619   5.380  0.1556 -0.3570 -0.0872
   66MOL   C26936799   2.743   6.676   5.462  0.4405  0.4576  0.3638
   66MOL   C27036800   2.756   6.675   5.602 -0.4258  0.3642 -0.5841
   66MOL   C27136801   2.654   6.724   5.683  0.3966  0.6003 -0.2163
   66MOL   H27236802   2.434   6.829   5.454 -0.7033 -0.5759  0.0688
   66MOL   H27336803   2.524   6.779   5.220  0.2650  1.3049 -0.1108
   66MOL   H27436804   2.718   6.702   5.067 -0.8850 -0.0312 -0.0709
   66MOL   H27536805   2.974   6.429   4.879  0.8873 -0.1793 -0.3477
   66MOL   H27636806   3.105   6.501   4.969 -0.0133  1.4636  1.1915
   66MOL   H27736807   2.960   6.617   4.743  2.0591  1.1988 -1.0974
   66MOL   H27836808   3.009   6.727   4.865 -0.4563  0.5229 -0.7841
   66MOL   H27936809   2.932   6.579   5.433 -0.7564 -0.6695  1.1726
   66MOL   H28036810   2.844   6.637   5.653 -1.4372  1.5599  2.1376
   66MOL   H28136811   2.669   6.701   5.788  0.7336 -1.7308 -0.7575
   66MOL   O28236812   3.103   6.463   4.634 -0.0859  0.5003 -0.0831
   66MOL   C28336813   3.189   6.543   4.677  0.0876  0.5109 -0.0589
   66MOL   O28436814   3.164   6.623   4.781 -0.2700  0.2525  0.2512
   66MOL   C28536815   3.331   6.555   4.627 -0.5275  0.0917  0.3712
   66MOL   C28636816   3.420   6.669   4.645 -0.1353 -0.5143  0.1140
   66MOL   C28736817   3.547   6.662   4.591 -0.9212 -0.5495 -0.4146
   66MOL   C28836818   3.629   6.781   4.594  0.5689 -0.0564  0.2695
   66MOL   C28936819   3.762   6.777   4.549 -0.7871 -0.3996 -0.8966
   66MOL   C29036820   3.811   6.660   4.489  0.2685  0.2695 -0.2489
   66MOL   C29136821   3.948   6.646   4.434  0.4255 -0.2539  0.3689
   66MOL   O29236822   4.009   6.757   4.421  0.2554 -1.0528 -0.2350
   66MOL   C29336823   4.153   6.768   4.405  0.1847 -0.4525 -1.2773
   66MOL   C29436824   4.203   6.879   4.499  0.4374  0.8873  0.1640
   66MOL   O29536825   4.000   6.542   4.395  0.9339  0.2533 -0.3288
   66MOL   C29636826   3.731   6.543   4.485  0.1530 -0.3077 -0.1908
   66MOL   C29736827   3.598   6.544   4.535 -0.2168  0.6027 -0.1489
   66MOL   C29836828   3.515   6.434   4.512  0.4285 -0.7271 -0.4127
   66MOL   C29936829   3.381   6.442   4.558  0.0564 -0.5709  0.6056
   66MOL   H30036830   3.381   6.761   4.688 -0.3581 -0.5397 -0.0312
   66MOL   H30136831   3.602   6.877   4.637  4.6012 -0.7995  4.7907
   66MOL   H30236832   3.824   6.864   4.534  0.9348 -0.8636  2.9001
   66MOL   H30336833   4.168   6.786   4.299  0.4852  0.4943 -1.0790
   66MOL   H30436834   4.195   6.672   4.435 -2.0291 -1.1296 -0.2223
   66MOL   H30536835   4.308   6.896   4.475  0.0528  1.0257 -1.5179
   66MOL   H30636836   4.157   6.977   4.488  2.2623  1.7900  0.4394
   66MOL   H30736837   3.751   6.453   4.429  1.6641  0.4587 -0.9364
   66MOL   H30836838   3.549   6.350   4.453 -0.9538 -1.1844 -0.5661
   66MOL   H30936839   3.317   6.357   4.536  1.0019 -0.9125 -0.9063
   66MOL   O31036840   4.289   6.656   4.642 -0.0681 -0.1214 -0.2235
   66MOL   C31136841   4.231   6.743   4.703 -0.2666 -1.6144 -0.4351
   66MOL   O31236842   4.184   6.858   4.639 -0.1653 -0.1231 -0.0952
   66MOL   C31336843   4.193   6.727   4.848  0.4110  0.2012 -0.2800
   66MOL   C31436844   4.228   6.604   4.910 -0.4850  0.8916  0.0473
   66MOL   C31536845   4.198   6.583   5.044  0.8057 -0.2614 -0.2739
   66MOL   C31636846   4.225   6.461   5.106  0.3561 -0.3411  0.4748
   66MOL   C31736847   4.190   6.439   5.242 -0.6040 -0.5112 -0.3556
   66MOL   C31836848   4.145   6.547   5.326  0.1399 -0.5992 -0.2455
   66MOL   C31936849   4.156   6.541   5.477 -0.2749  0.4176 -0.3867
   66MOL   O32036850   4.084   6.636   5.541 -0.0748 -0.4551  0.0500
   66MOL   C32136851   4.104   6.651   5.680  0.3737  0.2061  0.5272
   66MOL   C32236852   4.181   6.780   5.705  0.0285 -0.7341  0.3648
   66MOL   O32336853   4.244   6.469   5.527  0.3238  0.3570 -0.1539
   66MOL   C32436854   4.114   6.667   5.263 -0.0317 -0.3173 -0.1898
   66MOL   C32536855   4.134   6.683   5.123 -0.0202  0.2205 -0.2015
   66MOL   C32636856   4.093   6.799   5.059 -0.3052  0.3263  0.6320
   66MOL   C32736857   4.123   6.829   4.921  0.6339  0.1493 -0.1890
   66MOL   H32836858   4.285   6.531   4.855 -0.1678  0.6280  0.7142
   66MOL   H32936859   4.270   6.382   5.048  1.9631 -0.8660  2.4117
   66MOL   H33036860   4.217   6.344   5.286 -0.1000  1.4880  3.8751
   66MOL   H33136861   4.152   6.566   5.729 -0.0271 -0.5185 -0.3160
   66MOL   H33236862   4.010   6.665   5.734  0.3987  1.0585  0.3454
   66MOL   H33336863   4.109   6.854   5.670  0.6319 -0.3065  0.0108
   66MOL   H33436864   4.192   6.790   5.813 -1.1519  0.2044  0.4081
   66MOL   H33536865   4.078   6.754   5.316 -1.2781 -0.5026 -0.7207
   66MOL   H33636866   4.048   6.873   5.123 -2.0223 -1.1001  1.0881
   66MOL   H33736867   4.083   6.922   4.882 -1.3467  0.1799  1.7897
   66MOL   O33836868   4.251   6.925   5.491 -0.3755  1.0711 -0.2225
   66MOL   C33936869   4.329   6.839   5.535  0.2689 -0.4697 -0.4432
   66MOL   O34036870   4.311   6.780   5.643  0.2616  0.2958  0.2966
   66MOL   C34136871   4.444   6.793   5.452 -0.0546  0.8237 -0.0133
   66MOL   C34236872   4.436   6.785   5.313 -0.5028  0.2208 -0.3230
   66MOL   C34336873   4.548   6.753   5.227  0.0079 -0.2418  0.8365
   66MOL   C34436874   4.529   6.746   5.088  0.5715  0.2338 -0.5719
   66MOL   C34536875   4.646   6.727   5.009 -0.5387 -0.2556 -0.8758
   66MOL   C34636876   4.773   6.701   5.063 -0.6246 -0.6059  0.5292
   66MOL   C34736877   4.897   6.675   4.992 -0.0896  0.1945 -0.0935
   66MOL   O34836878   4.871   6.638   4.870  0.6426  0.0181  0.1788
   66MOL   C34936879   4.970   6.613   4.771 -0.1190  0.0900  0.9485
   66MOL   C35036880   4.909   6.650   4.634 -0.4485 -0.1880 -0.7507
   66MOL   O35136881   5.009   6.663   5.039 -0.1495 -0.5460 -0.2570
   66MOL   C35236882   4.790   6.706   5.206  0.3340 -0.7230  0.0155
   66MOL   C35336883   4.677   6.735   5.288 -0.0554 -0.6581  0.6210
   66MOL   C35436884   4.685   6.744   5.423  0.0625  0.2293 -0.1691
   66MOL   C35536885   4.573   6.773   5.501  0.5171  0.0497 -0.5601
   66MOL   H35636886   4.338   6.802   5.271 -0.6296  2.9301  0.9713
   66MOL   H35736887   4.431   6.755   5.044  0.5628  0.4606 -0.5016
   66MOL   H35836888   4.627   6.730   4.902 -2.2761  1.3244 -0.5412
   66MOL   H35936889   5.002   6.509   4.768  0.9501  0.4597 -1.1851
   66MOL   H36036890   5.055   6.681   4.785  0.9260 -0.8632 -0.5765
   66MOL   H36136891   4.850   6.741   4.633  0.3784  0.3492 -2.5262
   66MOL   H36236892   4.983   6.674   4.557 -0.7624 -1.1935 -1.3735
   66MOL   H36336893   4.879   6.676   5.258 -1.2424  0.0773  3.3323
   66MOL   H36436894   4.771   6.728   5.487 -0.0881  3.2237  0.8982
   66MOL   H36536895   4.573   6.785   5.608 -0.0306  2.3705 -0.7975
   66MOL   O36636896   4.631   6.641   4.661  1.0647  0.6009  0.3604
   66MOL   C36736897   4.700   6.538   4.637  0.2195 -0.3654  0.3499
   66MOL   O36836898   4.831   6.534   4.597  0.3140  0.2714  0.2633
   66MOL   C36936899   4.641   6.400   4.643 -0.3347  0.4417  0.2612
   66MOL   C37036900   4.512   6.385   4.694  0.7014  0.1257  0.2475
   66MOL   C37136901   4.456   6.259   4.711 -0.2429 -0.7435  0.5984
   66MOL   C37236902   4.321   6.245   4.757 -0.0702  0.4231  0.7700
   66MOL   C37336903   4.268   6.117   4.762  0.7759 -0.2290  1.1045
   66MOL   C37436904   4.333   6.003   4.729  0.3211  0.8807 -0.6122
   66MOL   C37536905   4.261   5.870   4.729 -0.2152  0.1714  0.2981
   66MOL   O37636906   4.345   5.769   4.715 -0.2657 -0.1226 -0.4453
   66MOL   C37736907   4.290   5.645   4.690  0.7362 -0.1096 -0.5315
   66MOL   C37836908   4.403   5.552   4.664  0.5880 -0.2169 -0.5571
   66MOL   O37936909   4.139   5.860   4.747  0.3318  0.4379  0.4102
   66MOL   C38036910   4.468   6.010   4.684 -0.3019 -0.0221  0.3305
   66MOL   C38136911   4.532   6.140   4.673  0.3109  0.4495  0.2188
   66MOL   C38236912   4.665   6.154   4.626 -0.1155  0.3194  0.4293
   66MOL   C38336913   4.711   6.285   4.609  0.0720 -0.5946  0.2920
   66MOL   H38436914   4.456   6.476   4.714  0.4303 -0.0400  0.2502
   66MOL   H38536915   4.262   6.326   4.797 -1.6082 -0.7463  0.8922
   66MOL   H38636916   4.162   6.116   4.784  0.3064 -0.1020 -1.0842
   66MOL   H38736917   4.225   5.645   4.602 -0.6289 -2.8651  0.4182
   66MOL   H38836918   4.241   5.603   4.778  0.8758 -1.3315 -1.0260
   66MOL   H38936919   4.453   5.525   4.757  0.5200 -0.7572 -0.6799
   66MOL   H39036920   4.373   5.452   4.635  1.3308  0.1356 -2.6105
   66MOL   H39136921   4.523   5.921   4.656 -0.2405  0.2607 -0.4766
   66MOL   H39236922   4.725   6.066   4.607 -1.1876  0.0625 -1.9387
   66MOL   H39336923   4.816   6.288   4.582 -0.4480 -0.2253 -1.8119
   66MOL   O39436924   4.391   5.522   4.394  0.0657  0.0322  0.2579
   66MOL   C39536925   4.479   5.593   4.442  0.1081  0.4346  0.2646
   66MOL   O39636926   4.499   5.615   4.571 -0.3894 -0.0148  0.6812
   66MOL   C39736927   4.587   5.658   4.357  0.3574  0.2399 -0.6479
   66MOL   C39836928   4.564   5.677   4.216  0.0574  0.8847  0.0764
   66MOL   C39936929   4.669   5.737   4.140  0.8224 -0.4048 -0.1856
   66MOL   C40036930   4.654   5.748   3.996  0.2796  1.0403  0.1034
   66MOL   C40136931   4.756   5.806   3.929 -0.3605 -0.6928  0.9224
   66MOL   C40236932   4.872   5.861   3.991  0.3985  0.3288 -0.7116
   66MOL   C40336933   4.981   5.924   3.907 -0.0062 -0.1811 -0.1644
   66MOL   O40436934   4.958   5.938   3.777  0.1032  0.3892 -0.4333
   66MOL   C40536935   5.059   5.971   3.688  0.5061 -0.4902 -0.1742
   66MOL   C40636936   5.103   6.118   3.695 -0.7668  0.0090 -0.8010
   66MOL   O40736937   5.087   5.961   3.947  0.1520  0.5081 -0.4492
   66MOL   C40836938   4.887   5.846   4.135  1.0909 -0.7094  0.1597
   66MOL   C40936939   4.784   5.784   4.202 -0.0069  0.4802  0.1573
   66MOL   C41036940   4.804   5.777   4.338  1.0765  0.3129 -0.6870
   66MOL   C41136941   4.701   5.717   4.412  0.2807 -0.3428 -0.2261
   66MOL   H41236942   4.466   5.660   4.175  1.0063 -3.4877 -0.6066
   66MOL   H41336943   4.572   5.705   3.940  2.0805 -1.0145 -1.0400
   66MOL   H41436944   4.754   5.802   3.821  1.4061  0.6353  0.8175
   66MOL   H41536945   5.019   5.961   3.587 -1.8237  1.3839  0.4971
   66MOL   H41636946   5.140   5.903   3.711  1.1745  0.2898 -0.2117
   66MOL   H41736947   5.009   6.172   3.699 -1.1744 -0.7345 -0.1843
   66MOL   H41836948   5.160   6.144   3.784 -0.0814  0.7813 -1.4561
   66MOL   H41936949   4.974   5.892   4.179 -0.8977  3.7277 -0.3128
   66MOL   H42036950   4.883   5.818   4.398 -0.3056  0.3333  1.1645
   66MOL   H42136951   4.708   5.714   4.520 -4.0823 -1.0020  0.1371
   66MOL   O42236952   5.332   6.036   3.589  0.1136  0.2789  0.1351
   66MOL   C42336953   5.270   6.127   3.530  0.3350 -0.3052 -0.1694
   66MOL   O42436954   5.157   6.169   3.573  0.7194  0.0853 -0.5342
   66MOL   C42536955   5.326   6.220   3.426  0.0865  0.3409 -0.3891
   66MOL   C42636956   5.446   6.179   3.362  0.7585 -0.2605 -0.1432
   66MOL   C42736957   5.506   6.272   3.271 -0.0521  0.0797  0.5741
   66MOL   C42836958   5.623   6.240   3.208 -0.7437 -0.4654 -1.4712
   66MOL   C42936959   5.695   6.328   3.129 -0.2419  0.3767  0.0598
   66MOL   C43036960   5.650   6.466   3.126  0.0851 -0.0175  0.1505
   66MOL   C43136961   5.737   6.569   3.061 -0.0034  0.1268  0.4251
   66MOL   O43236962   5.697   6.694   3.100 -0.5297 -0.0535 -0.1101
   66MOL   C43336963   5.785   6.805   3.087 -0.3569 -0.0077  0.5409
   66MOL   C43436964   5.740   6.915   3.184 -1.5290  0.0406  0.0523
   66MOL   O43536965   5.842   6.551   2.996 -0.1838 -0.0072 -0.1934
   66MOL   C43636966   5.528   6.500   3.187  0.5116 -0.4486 -0.1294
   66MOL   C43736967   5.457   6.406   3.260  0.1063 -0.4333 -0.0637
   66MOL   C43836968   5.337   6.445   3.324  0.2502  0.4018 -0.1118
   66MOL   C43936969   5.268   6.351   3.401 -0.0017  0.3164 -0.6046
   66MOL   H44036970   5.502   6.087   3.371  3.5197  1.3878  0.0047
   66MOL   H44136971   5.662   6.139   3.219 -0.8627 -0.4344 -0.7816
   66MOL   H44236972   5.790   6.301   3.087  0.7959  0.7411  2.0990
   66MOL   H44336973   5.777   6.843   2.985 -0.2213 -1.2475  0.0616
   66MOL   H44436974   5.890   6.778   3.101 -0.1193  0.6109  0.0066
   66MOL   H44536975   5.691   6.879   3.274 -0.9372  2.0716  1.2179
   66MOL   H44636976   5.823   6.977   3.217  0.4142 -3.6319  2.3828
   66MOL   H44736977   5.495   6.603   3.179  0.1871 -0.4740  0.8205
   66MOL   H44836978   5.306   6.548   3.316  2.4895  0.9706 -1.7584
   66MOL   H44936979   5.167   6.364   3.435 -0.7251 -0.5507 -2.3763
   66MOL   O45036980   5.462   6.851   3.172 -0.3416 -0.1366 -0.2529
   66MOL   C45136981   5.511   6.947   3.118 -0.4071 -0.3880 -0.7597
   66MOL   O45236982   5.645   6.994   3.128 -0.8810  0.1005  0.1542
   66MOL   C45336983   5.430   7.032   3.031 -0.0654 -0.1062  0.4522
   66MOL   C45436984   5.291   7.041   3.051  0.1571 -0.1620  0.3734
   66MOL   C45536985   5.212   7.110   2.957 -0.5042  0.2944  0.1283
   66MOL   C45636986   5.071   7.122   2.968 -0.1195 -0.4261 -0.5080
   66MOL   C45736987   4.996   7.201   2.881 -0.2094  0.3651 -0.2036
   66MOL   C45836988   5.062   7.271   2.780  0.3180 -0.8223  0.0750
   66MOL   C45936989   4.995   7.355   2.682  0.4739 -0.5937 -0.6004
   66MOL   O46036990   4.857   7.373   2.715 -0.3227 -0.4557  0.0530
   66MOL   C46136991   4.790   7.488   2.659  0.0865 -0.1063  0.4097
   66MOL   C46236992   4.683   7.533   2.759 -0.3691 -0.0191 -0.2041
   66MOL   O46336993   5.052   7.433   2.612 -0.4751  0.1362 -0.1765
   66MOL   C46436994   5.202   7.256   2.763 -0.6532 -0.6016 -0.1159
   66MOL   C46536995   5.272   7.177   2.850 -0.1021 -0.2305 -0.0762
   66MOL   C46636996   5.405   7.160   2.823  0.3338 -0.7997  0.0157
   66MOL   C46736997   5.485   7.091   2.918 -0.4410  0.6675  0.6317
   66MOL   H46836998   5.250   6.989   3.137  0.3623 -1.1187 -0.0974
   66MOL   H46936999   5.025   7.075   3.053 -0.0196 -0.1761 -0.3130
   66MOL   H47037000   4.892   7.210   2.909 -0.8327 -0.7957 -2.0822
   66MOL   H47137001   4.737   7.453   2.570  1.6742 -0.4660 -0.4339
   66MOL   H47237002   4.862   7.566   2.633  1.4740 -1.0431  1.3502
   66MOL   H47337003   4.620   7.613   2.719 -1.3929 -0.1858  1.0201
   66MOL   H47437004   4.611   7.454   2.783  1.1537 -0.9508  1.4396
   66MOL   H47537005   5.252   7.303   2.680 -5.0526 -1.1222 -3.2310
   66MOL   H47637006   5.455   7.198   2.736  0.2519 -1.2909 -0.2470
   66MOL   H47737007   5.590   7.082   2.892 -0.3348  0.3530  1.1693
   66MOL   O47837008   4.694   7.418   3.009  0.0994 -0.0797 -0.0255
   66MOL   C47937009   4.755   7.523   2.980  0.7534 -0.1164  0.0691
   66MOL   O48037010   4.749   7.590   2.865 -0.0182 -0.3778  0.1634
   66MOL   C48137011   4.844   7.581   3.078  0.6907  0.7421 -0.1366
   66MOL   C48237012   4.850   7.524   3.207  0.6499  0.0282 -0.6214
   66MOL   C48337013   4.948   7.568   3.297  0.0627 -0.1751  0.2446
   66MOL   C48437014   4.967   7.499   3.416 -0.5122 -0.2495 -0.4029
   66MOL   C48537015   5.066   7.546   3.500  0.0499 -0.3903 -0.4980
   66MOL   C48637016   5.150   7.654   3.468  0.0327 -0.0700  0.2054
   66MOL   C48737017   5.259   7.689   3.566 -0.1821 -0.0429 -0.6098
   66MOL   O48837018   5.243   7.634   3.688  0.4509  0.2857  0.4681
   66MOL   C48937019   5.349   7.638   3.776  0.2757 -0.4387  0.0835
   66MOL   C49037020   5.445   7.526   3.741 -0.3435 -0.5113 -0.4902
   66MOL   O49137021   5.359   7.758   3.538 -0.1966 -0.0995  0.5307
   66MOL   C49237022   5.133   7.713   3.343  0.2697  0.3315 -0.2453
   66MOL   C49337023   5.028   7.677   3.266 -0.6940  0.0050  0.0545
   66MOL   C49437024   5.011   7.744   3.141  0.1666  0.5307 -0.8770
   66MOL   C49537025   4.924   7.690   3.051 -0.1171  0.3167  0.0331
   66MOL   H49637026   4.795   7.435   3.232  0.9939 -0.0215 -0.0324
   66MOL   H49737027   4.909   7.411   3.440 -2.5905  0.9566 -0.9646
   66MOL   H49837028   5.085   7.490   3.591 -1.3511  0.8797  0.6136
   66MOL   H49937029   5.317   7.621   3.879 -0.5139 -1.8896 -0.3831
   66MOL   H50037030   5.400   7.734   3.777 -1.4160  0.4727 -0.2585
   66MOL   H50137031   5.387   7.445   3.697  0.1506 -0.3621 -1.4135
   66MOL   H50237032   5.505   7.569   3.661 -0.5847  0.9746  0.1024
   66MOL   H50337033   5.194   7.798   3.314 -0.5717  1.0208 -0.0420
   66MOL   H50437034   5.073   7.831   3.125  1.3893  0.2345  1.8917
   66MOL   H50537035   4.908   7.734   2.954 -0.7757 -1.3707 -0.6308
   66MOL   O50637036   5.374   7.345   3.922  0.5568 -0.3027  0.0538
   66MOL   C50737037   5.481   7.399   3.936 -0.0829  0.4313  1.0339
   66MOL   O50837038   5.532   7.486   3.850 -0.2166  0.4537  0.2407
   66MOL   C50937039   5.559   7.396   4.057 -0.6827  0.0304 -0.1432
   66MOL   C51037040   5.521   7.303   4.161 -0.5941  0.2599 -0.1456
   66MOL   C51137041   5.592   7.290   4.282 -1.1673 -0.5329 -0.2207
   66MOL   C51237042   5.544   7.219   4.389  0.1505  0.3606 -0.4927
   66MOL   C51337043   5.620   7.207   4.505 -0.5300  0.5337 -0.9539
   66MOL   C51437044   5.747   7.269   4.526 -0.4000 -0.1151  0.2654
   66MOL   C51537045   5.823   7.262   4.653 -0.2309 -0.1484 -0.3177
   66MOL   O51637046   5.758   7.204   4.753 -0.0458  1.1485  0.2507
   66MOL   C51737047   5.826   7.177   4.867 -0.5218 -0.1338 -0.0612
   66MOL   C51837048   5.894   7.038   4.861 -0.8291  0.0111  0.5040
   66MOL   O51937049   5.939   7.304   4.665  0.3506 -0.3958 -0.0380
   66MOL   C52037050   5.784   7.356   4.418  0.6642  0.4858  0.8469
   66MOL   C52137051   5.710   7.364   4.297 -0.8523 -0.3467 -0.0640
   66MOL   C52237052   5.759   7.446   4.194  0.3659 -1.2413  0.1298
   66MOL   C52337053   5.685   7.463   4.073  0.6150 -0.3812 -0.7212
   66MOL   H52437054   5.433   7.241   4.151 -0.7489  0.5251 -0.4296
   66MOL   H52537055   5.457   7.156   4.381  1.2237 -1.0967 -1.1433
   66MOL   H52637056   5.572   7.158   4.589 -0.0393 -0.4956 -1.2647
   66MOL   H52737057   5.760   7.184   4.954 -1.0738  0.7004 -0.5358
   66MOL   H52837058   5.904   7.250   4.888  0.6853 -1.2823 -0.4973
   66MOL   H52937059   5.916   7.011   4.758  0.6963  0.9802  0.5608
   66MOL   H53037060   5.990   7.036   4.912  0.1410  1.0271 -1.2208
   66MOL   H53137061   5.870   7.420   4.428  0.7738  0.3895  0.5056
   66MOL   H53237062   5.856   7.490   4.213 -0.9058  1.8135 -0.1168
   66MOL   H53337063   5.722   7.527   3.994  0.3917  1.2747  0.4891
   66MOL   O53437064   5.941   6.907   5.107 -0.1540 -0.3206  0.2661
   66MOL   C53537065   5.835   6.886   5.042 -0.1207 -0.3162 -0.4414
   66MOL   O53637066   5.803   6.939   4.918 -0.2484  0.1542  0.1223
   66MOL   C53737067   5.733   6.801   5.098 -0.4420 -0.1046  0.4254
   66MOL   C53837068   5.753   6.757   5.229 -0.7444 -0.1939  0.0517
   66MOL   C53937069   5.651   6.691   5.300  0.0803 -0.1339 -0.5420
   66MOL   C54037070   5.671   6.660   5.434  0.4633  0.4989 -0.0508
   66MOL   C54137071   5.570   6.597   5.508 -0.8970  0.0677 -0.6740
   66MOL   C54237072   5.450   6.549   5.443 -0.2001  0.0070 -0.7622
   66MOL   C54337073   5.341   6.486   5.523  0.6390 -0.6387 -0.0849
   66MOL   O54437074   5.224   6.470   5.446  0.0289 -0.4213  0.2036
   66MOL   C54537075   5.106   6.425   5.505 -1.0736  0.2515 -0.2178
   66MOL   C54637076   4.992   6.460   5.405  0.1789  0.0316 -0.0886
   66MOL   O54737077   5.353   6.451   5.640 -0.1965 -0.1615  0.1936
   66MOL   C54837078   5.435   6.583   5.309  0.4247  0.4389 -0.9243
   66MOL   C54937079   5.525   6.655   5.235 -0.3902  0.6853 -0.2161
   66MOL   C55037080   5.514   6.685   5.098 -0.2624 -0.2928  0.7466
   66MOL   C55137081   5.614   6.764   5.033  0.1403 -0.1310  0.6701
   66MOL   H55237082   5.842   6.783   5.284 -0.2151 -0.1351 -0.8263
   66MOL   H55337083   5.759   6.699   5.484  0.1854 -0.6959  1.4189
   66MOL   H55437084   5.583   6.565   5.610  0.7017 -0.5192 -1.0636
   66MOL   H55537085   5.087   6.469   5.603 -0.8373 -1.3633  0.5685
   66MOL   H55637086   5.111   6.316   5.515 -1.0443 -0.0205 -2.8871
   66MOL   H55737087   4.994   6.405   5.312  0.0196  1.9482 -1.2544
   66MOL   H55837088   4.981   6.566   5.383  0.4561  0.1460  0.3044
   66MOL   H55937089   5.338   6.574   5.262  0.6739  1.0255 -1.5563
   66MOL   H56037090   5.430   6.669   5.031 -0.3115  0.8123  0.5259
   66MOL   H56137091   5.595   6.790   4.930  2.4366  1.4121  0.5981
   66MOL   H56237092   4.897   6.434   5.451  0.4386 -0.6748  0.0513
   67MOL     O137093   1.793   3.820   3.866  0.3124 -0.4517  0.0114
   67MOL     C237094   1.879   3.772   3.791  1.3544 -0.1920  0.8550
   67MOL     O337095   1.993   3.835   3.767  0.2435 -1.3180  0.4026
   67MOL     C437096   1.868   3.635   3.729 -0.0264 -0.1145  0.2113
   67MOL     C537097   1.740   3.579   3.706 -0.6292  0.4227 -0.6564
   67MOL     C637098   1.732   3.460   3.631 -0.1657  0.1765 -0.6777
   67MOL     C737099   1.609   3.401   3.602 -0.5639 -0.2056  0.9302
   67MOL     C837100   1.594   3.285   3.522 -0.2952  0.1823 -0.5717
   67MOL     C937101   1.708   3.215   3.477 -0.3211 -0.5027 -0.1846
   67MOL    C1037102   1.683   3.088   3.393 -0.0425  0.0522  0.3560
   67MOL    O1137103   1.804   3.032   3.347 -0.4266 -0.3711 -0.1452
   67MOL    C1237104   1.811   2.902   3.284 -0.3256 -0.1716 -0.6545
   67MOL    C1337105   1.797   2.913   3.134  0.5885 -0.8191  1.2107
   67MOL    O1437106   1.570   3.046   3.372  0.0143 -0.2749  0.4690
   67MOL    C1537107   1.837   3.267   3.511  0.1685 -0.7709  0.2372
   67MOL    C1637108   1.845   3.385   3.585  0.8203 -0.1594  0.1910
   67MOL    C1737109   1.972   3.445   3.613  0.4632 -0.1690 -0.6806
   67MOL    C1837110   1.982   3.571   3.679 -0.0264  0.8513  0.0721
   67MOL    H1937111   1.646   3.612   3.749 -0.6090 -1.7290  1.1423
   67MOL    H2037112   1.520   3.453   3.636  0.4164  2.6972 -0.7677
   67MOL    H2137113   1.495   3.248   3.501 -0.1378  0.5990 -2.0549
   67MOL    H2237114   1.905   2.854   3.313 -0.7343  0.2355  1.3902
   67MOL    H2337115   1.747   2.823   3.322 -0.8277  0.1742 -0.7711
   67MOL    H2437116   1.718   2.980   3.101  1.6212 -0.1110  0.1252
   67MOL    H2537117   1.884   2.958   3.085 -2.4905  2.9907 -1.0716
   67MOL    H2637118   1.926   3.218   3.475  1.7954  0.4425  2.4794
   67MOL    H2737119   2.063   3.407   3.569 -0.1967 -0.2066 -2.0446
   67MOL    H2837120   2.083   3.606   3.693  0.1633  0.7141 -0.8769
   67MOL    H2937121   2.016   3.880   3.846  4.5193 -1.1128 -0.8161
   67MOL    O3037122   1.992   2.741   3.030 -0.2319 -0.2679  0.5005
   67MOL    C3137123   1.871   2.714   3.034 -0.0460  0.5584 -0.4640
   67MOL    O3237124   1.773   2.793   3.078 -0.1845 -0.1252  0.0773
   67MOL    C3337125   1.819   2.589   2.964  0.1894  0.5163 -0.0127
   67MOL    C3437126   1.915   2.510   2.884 -0.1171 -0.1954 -0.0571
   67MOL    C3537127   1.871   2.429   2.784  0.3460 -0.0412  0.8090
   67MOL    C3637128   1.962   2.378   2.691 -0.4540 -0.3176  0.4967
   67MOL    C3737129   1.917   2.298   2.579  0.1676  0.1232  0.3731
   67MOL    C3837130   1.781   2.258   2.580 -0.5750  0.0613 -0.0537
   67MOL    C3937131   1.729   2.163   2.477  0.0324 -0.2604 -1.1015
   67MOL    O4037132   1.818   2.103   2.401  0.0161  0.3312 -0.2603
   67MOL    C4137133   1.785   1.994   2.315 -0.7208  0.0548 -0.3287
   67MOL    C4237134   1.773   1.857   2.389 -0.4307  0.1696  0.8059
   67MOL    O4337135   1.610   2.130   2.478 -0.3731  0.0438  0.2657
   67MOL    C4437136   1.694   2.304   2.679 -0.3293 -0.4437 -0.8830
   67MOL    C4537137   1.735   2.394   2.779  0.2183 -0.8025 -0.0800
   67MOL    C4637138   1.649   2.451   2.874 -0.3669 -0.2337 -0.1025
   67MOL    C4737139   1.684   2.553   2.962  0.6216  0.5398 -0.6079
   67MOL    H4837140   2.020   2.537   2.886 -0.2733  0.3692  0.4563
   67MOL    H4937141   2.064   2.411   2.707 -0.9335  0.7424  1.4136
   67MOL    H5037142   1.985   2.247   2.512 -0.5289  0.0347 -0.2722
   67MOL    H5137143   1.855   1.987   2.231 -0.1916 -1.0925  0.2021
   67MOL    H5237144   1.689   2.015   2.267 -1.1821 -1.1551  0.0428
   67MOL    H5337145   1.745   1.873   2.493 -0.9006  2.0868  0.4161
   67MOL    H5437146   1.685   1.809   2.347 -0.6004  0.9892  0.2022
   67MOL    H5537147   1.588   2.282   2.686 -0.3940 -0.3557 -1.5557
   67MOL    H5637148   1.546   2.420   2.862 -0.2292 -0.1986 -1.3966
   67MOL    H5737149   1.615   2.596   3.032 -0.4019 -2.7235  0.4573
   67MOL    O5837150   1.983   1.870   2.552 -0.5183 -0.1317 -0.2549
   67MOL    C5937151   1.992   1.800   2.449  0.3739 -0.0931 -0.4683
   67MOL    O6037152   1.892   1.790   2.366  0.4683 -0.4271  0.2930
   67MOL    C6137153   2.119   1.738   2.403 -0.6558 -0.0535  0.3757
   67MOL    C6237154   2.242   1.762   2.473 -0.5282 -0.7799  0.7291
   67MOL    C6337155   2.355   1.700   2.432 -0.1702 -0.3946  0.9147
   67MOL    C6437156   2.476   1.732   2.494 -0.9448  0.8073 -0.4753
   67MOL    C6537157   2.594   1.685   2.440 -0.0510 -0.2351 -0.6259
   67MOL    C6637158   2.591   1.595   2.323  0.1326  0.8991 -0.1098
   67MOL    C6737159   2.720   1.551   2.256  0.1040 -0.2974  0.1447
   67MOL    O6837160   2.830   1.584   2.327  0.1438 -0.3942  0.3553
   67MOL    C6937161   2.961   1.576   2.269 -0.6068  0.1160 -0.2751
   67MOL    C7037162   3.049   1.679   2.337 -0.0600 -0.1174  0.1861
   67MOL    O7137163   2.730   1.498   2.146 -0.4390  0.1316  0.2654
   67MOL    C7237164   2.471   1.565   2.264 -0.4593 -0.2478  0.2878
   67MOL    C7337165   2.353   1.615   2.315  0.0315 -0.0270 -0.1935
   67MOL    C7437166   2.237   1.597   2.240  0.1118 -0.0053 -0.1227
   67MOL    C7537167   2.118   1.651   2.293  0.4505 -0.3181 -0.0401
   67MOL    H7637168   2.243   1.840   2.547  0.1713  1.6587 -1.7617
   67MOL    H7737169   2.492   1.803   2.573 -2.2998  1.2862 -0.6157
   67MOL    H7837170   2.686   1.731   2.471 -0.3411 -0.2333  0.2299
   67MOL    H7937171   2.964   1.585   2.161  1.8504 -1.5651 -0.3717
   67MOL    H8037172   3.006   1.479   2.290  0.5605  1.0286  1.5797
   67MOL    H8137173   3.153   1.663   2.309  0.3912 -2.1572  2.8105
   67MOL    H8237174   3.023   1.782   2.316  0.6467 -0.0382 -0.3173
   67MOL    H8337175   2.476   1.496   2.182  3.2774 -0.2724  0.4302
   67MOL    H8437176   2.240   1.548   2.144  0.7516 -1.4820  0.6382
   67MOL    H8537177   2.033   1.633   2.228 -0.6592  0.5679  1.1297
   67MOL    O8637178   3.186   1.825   2.509  0.5601  0.3086  0.4366
   67MOL    C8737179   3.124   1.729   2.551  0.1399 -0.2316 -0.6812
   67MOL    O8837180   3.050   1.653   2.474  0.1985 -0.1307 -0.3000
   67MOL    C8937181   3.134   1.673   2.689  0.6637 -0.3407  0.1253
   67MOL    C9037182   3.220   1.731   2.785 -0.5992  0.3316  0.1748
   67MOL    C9137183   3.235   1.674   2.913 -0.5438  0.0105  0.1681
   67MOL    C9237184   3.319   1.728   3.013  0.0709 -0.5242 -0.4797
   67MOL    C9337185   3.346   1.659   3.133 -0.5595  0.6701  0.6064
   67MOL    C9437186   3.271   1.550   3.165 -0.1181  0.0838  0.1539
   67MOL    C9537187   3.294   1.485   3.294  1.0353 -0.3101 -0.1141
   67MOL    O9637188   3.178   1.460   3.363 -0.0939  0.1436 -0.3828
   67MOL    C9737189   3.191   1.390   3.493  0.9417 -0.5059 -0.3126
   67MOL    C9837190   3.200   1.487   3.615  0.1576  0.1278 -0.1801
   67MOL    O9937191   3.410   1.449   3.331  0.2240 -0.2247  0.4076
   67MOL   C10037192   3.166   1.507   3.077  0.3316 -0.1445  0.4244
   67MOL   C10137193   3.162   1.564   2.950  0.1987 -0.9572 -0.0829
   67MOL   C10237194   3.078   1.506   2.860 -0.3748 -0.0043 -0.2078
   67MOL   C10337195   3.062   1.558   2.727  0.2195  0.0736 -0.1259
   67MOL   H10437196   3.277   1.821   2.768  0.2111 -0.7929 -3.6207
   67MOL   H10537197   3.381   1.812   2.985  1.8208 -0.2281  3.8518
   67MOL   H10637198   3.418   1.702   3.201  1.3751  0.8919 -1.5002
   67MOL   H10737199   3.271   1.316   3.485  1.4817  0.0814 -0.4935
   67MOL   H10837200   3.115   1.316   3.515  0.8187 -0.6321 -1.1379
   67MOL   H10937201   3.129   1.567   3.596 -0.7980 -0.7878 -0.4898
   67MOL   H11037202   3.172   1.439   3.708 -0.7209  0.9000 -0.0404
   67MOL   H11137203   3.105   1.419   3.086  3.1813 -2.3207 -0.6094
   67MOL   H11237204   3.027   1.417   2.892  1.1897 -0.7225  0.3611
   67MOL   H11337205   2.988   1.504   2.670 -0.3743  1.2012 -0.4378
   67MOL   O11437206   3.261   1.690   3.786 -0.1733  0.2674 -0.8065
   67MOL   C11537207   3.343   1.647   3.706 -0.7936  1.3778 -0.0201
   67MOL   O11637208   3.334   1.543   3.622  0.4576 -0.1576  1.0240
   67MOL   C11737209   3.479   1.723   3.697  0.4424 -0.1039 -0.0117
   67MOL   C11837210   3.540   1.787   3.810  0.1286 -0.5439 -0.4469
   67MOL   C11937211   3.664   1.858   3.787  0.1861  0.6908  0.1228
   67MOL   C12037212   3.723   1.921   3.895 -0.8779  0.3857  1.0195
   67MOL   C12137213   3.841   2.000   3.880  0.0620  0.2288  0.1941
   67MOL   C12237214   3.889   2.018   3.748 -0.5651  0.0056  0.2982
   67MOL   C12337215   4.010   2.103   3.718  0.5613 -1.1236 -0.4598
   67MOL   O12437216   4.066   2.166   3.823 -0.4848 -0.0372 -0.1326
   67MOL   C12537217   4.188   2.245   3.809  0.2460  0.7223 -0.7337
   67MOL   C12637218   4.157   2.392   3.780  0.4005 -0.3531 -0.4025
   67MOL   O12737219   4.043   2.121   3.598  0.0556  0.0221  0.8456
   67MOL   C12837220   3.838   1.941   3.644 -0.3574 -0.6549 -0.6887
   67MOL   C12937221   3.725   1.861   3.662 -0.7689 -0.6231  0.9503
   67MOL   C13037222   3.667   1.785   3.555 -0.5086 -0.3389  0.5667
   67MOL   C13137223   3.552   1.709   3.570 -0.2887 -0.4765  0.8235
   67MOL   H13237224   3.490   1.787   3.906 -1.0052 -2.0584 -1.0129
   67MOL   H13337225   3.684   1.905   3.994  0.1955  1.8603  1.7075
   67MOL   H13437226   3.885   2.053   3.962  0.3471  0.5258 -0.1480
   67MOL   H13537227   4.254   2.202   3.733 -1.0145 -0.4486 -1.1873
   67MOL   H13637228   4.243   2.218   3.899 -0.6651 -0.8936 -0.6417
   67MOL   H13737229   4.106   2.441   3.863  0.6286 -2.0525  0.7643
   67MOL   H13837230   4.257   2.435   3.787  0.1579  0.2024 -0.3273
   67MOL   H13937231   3.875   1.954   3.543  0.3993 -0.4698 -0.3853
   67MOL   H14037232   3.710   1.792   3.456 -0.8976  0.0489  0.4227
   67MOL   H14137233   3.512   1.650   3.489  0.9361  0.9781 -0.8747
   67MOL   O14237234   4.293   2.430   3.543 -0.0286  0.0894  0.2803
   67MOL   C14337235   4.171   2.412   3.539 -0.3056  0.6675 -0.4673
   67MOL   O14437236   4.100   2.411   3.655  0.5964 -0.3397 -0.0093
   67MOL   C14537237   4.089   2.394   3.421 -0.5594 -0.0355  0.6736
   67MOL   C14637238   4.146   2.371   3.293 -0.2235 -0.5405 -0.6860
   67MOL   C14737239   4.068   2.348   3.181 -0.3106 -0.1346  0.4603
   67MOL   C14837240   4.130   2.320   3.057 -0.4804  0.9509 -0.3032
   67MOL   C14937241   4.059   2.321   2.934 -0.3888  0.6823  0.0625
   67MOL   C15037242   3.916   2.328   2.945  0.1329  0.0295  1.1899
   67MOL   C15137243   3.835   2.328   2.824 -0.3464  0.2601 -0.1713
   67MOL   O15237244   3.907   2.304   2.718 -0.0147 -0.4304 -0.1669
   67MOL   C15337245   3.853   2.321   2.587  0.0739  0.1903  0.1837
   67MOL   C15437246   3.715   2.261   2.555 -0.0395  0.7458  0.6616
   67MOL   O15537247   3.713   2.331   2.837 -0.1049 -0.1392  0.4244
   67MOL   C15637248   3.852   2.341   3.070  0.0359  0.1241  0.2714
   67MOL   C15737249   3.926   2.362   3.188  0.4885  0.3273  0.2398
   67MOL   C15837250   3.863   2.388   3.315 -0.0265 -0.3117 -0.2255
   67MOL   C15937251   3.946   2.399   3.428  0.4538 -0.5288 -0.0951
   67MOL   H16037252   4.254   2.362   3.288  0.0218  2.1083 -1.1671
   67MOL   H16137253   4.234   2.294   3.067 -0.6862  0.4500  0.6505
   67MOL   H16237254   4.117   2.290   2.848  1.9580  0.0732  1.8042
   67MOL   H16337255   3.931   2.272   2.529  2.1550  2.2359  1.1160
   67MOL   H16437256   3.854   2.423   2.547 -1.5767  0.2234  0.1796
   67MOL   H16537257   3.647   2.329   2.606 -1.4919  1.1390 -1.7126
   67MOL   H16637258   3.677   2.269   2.453 -0.7507  0.5580  0.9094
   67MOL   H16737259   3.746   2.358   3.062 -0.0976 -0.2234  1.2669
   67MOL   H16837260   3.759   2.417   3.323 -0.2112 -0.3880 -1.9809
   67MOL   H16937261   3.902   2.418   3.524  1.3393 -2.0709  0.6333
   67MOL   O17037262   3.826   2.066   2.410 -0.5513 -0.6717  0.1558
   67MOL   C17137263   3.761   2.036   2.503 -0.3129  0.6157  0.2567
   67MOL   O17237264   3.707   2.125   2.584 -0.0064  0.2374 -0.2853
   67MOL   C17337265   3.725   1.888   2.534  0.2975 -0.5869  0.2613
   67MOL   C17437266   3.679   1.855   2.661 -0.7034  0.0361 -0.8702
   67MOL   C17537267   3.623   1.729   2.673  0.2178  0.0998 -0.9135
   67MOL   C17637268   3.573   1.695   2.799  1.3396 -0.6491  0.3751
   67MOL   C17737269   3.522   1.568   2.820 -0.8680  0.1037 -0.0418
   67MOL   C17837270   3.504   1.477   2.716 -0.0337  0.4435 -0.0760
   67MOL   C17937271   3.429   1.343   2.735 -0.8486  0.3271  0.0663
   67MOL   O18037272   3.408   1.319   2.861 -0.2143 -0.8457 -0.0505
   67MOL   C18137273   3.327   1.205   2.903  0.3119 -0.2998 -0.9322
   67MOL   C18237274   3.357   1.151   3.037 -0.4975  0.7936 -0.4123
   67MOL   O18337275   3.381   1.267   2.646 -0.1225 -0.0522 -0.3661
   67MOL   C18437276   3.549   1.515   2.594  0.6867 -0.2295  0.2405
   67MOL   C18537277   3.611   1.639   2.572 -0.2042  0.9887 -0.3938
   67MOL   C18637278   3.672   1.667   2.451 -0.3908  0.4372  0.2822
   67MOL   C18737279   3.726   1.796   2.427  0.0559  0.4077  0.1038
   67MOL   H18837280   3.679   1.929   2.740 -0.1193 -0.0471 -0.7888
   67MOL   H18937281   3.581   1.762   2.884  0.9739 -0.8558  0.5693
   67MOL   H19037282   3.499   1.541   2.922 -1.2429 -1.0869 -0.4306
   67MOL   H19137283   3.336   1.120   2.835  1.5724  0.2302 -1.4473
   67MOL   H19237284   3.222   1.235   2.899  0.1720 -0.2862  1.9572
   67MOL   H19337285   3.357   1.243   3.095  1.8242  0.2453  0.5298
   67MOL   H19437286   3.280   1.086   3.079  0.6325 -0.4700 -0.2563
   67MOL   H19537287   3.542   1.442   2.514  1.7165  2.0243 -1.9527
   67MOL   H19637288   3.673   1.608   2.361 -0.0881  0.9439 -0.0468
   67MOL   H19737289   3.770   1.827   2.333 -0.4750  2.6862  0.5951
   67MOL   O19837290   3.494   0.988   3.224 -0.3867  0.3926  0.3111
   67MOL   C19937291   3.552   1.015   3.120  0.5872 -1.2371 -0.4685
   67MOL   O20037292   3.487   1.082   3.028 -0.1014  0.3202  0.3673
   67MOL   C20137293   3.697   0.991   3.094 -0.0708 -0.4433  0.0898
   67MOL   C20237294   3.759   1.041   2.978  0.4073 -0.5600 -0.1651
   67MOL   C20337295   3.888   0.988   2.953  1.0340 -0.7356  0.1211
   67MOL   C20437296   3.954   1.040   2.840 -0.0035  0.4531  0.4367
   67MOL   C20537297   4.073   0.987   2.800  0.4493 -0.1302  0.1946
   67MOL   C20637298   4.145   0.892   2.873  0.4169  0.4899 -0.6146
   67MOL   C20737299   4.277   0.839   2.836 -0.4459 -0.3869 -0.5879
   67MOL   O20837300   4.314   0.875   2.714 -0.1301 -0.2322 -0.1366
   67MOL   C20937301   4.444   0.829   2.669 -0.5387  0.5807 -0.2425
   67MOL   C21037302   4.439   0.777   2.522  0.4223  0.1735 -0.4003
   67MOL   O21137303   4.338   0.771   2.916 -0.5732  0.5427  0.5370
   67MOL   C21237304   4.080   0.846   2.988 -0.2827  0.2668 -0.1017
   67MOL   C21337305   3.954   0.889   3.031  0.2654  0.1699  0.4502
   67MOL   C21437306   3.889   0.843   3.144  0.0056  0.5314  0.2867
   67MOL   C21537307   3.766   0.905   3.183 -0.2085  0.1518 -0.3179
   67MOL   H21637308   3.721   1.114   2.909  1.8916 -1.5881 -2.1346
   67MOL   H21737309   3.903   1.111   2.776 -0.4111  0.6393  0.9581
   67MOL   H21837310   4.109   1.045   2.716 -0.7529  0.9888  0.4316
   67MOL   H21937311   4.480   0.745   2.729  0.9058  2.0762  1.0434
   67MOL   H22037312   4.527   0.898   2.687 -1.5470  1.7404  0.0074
   67MOL   H22137313   4.447   0.669   2.511 -2.1946 -0.2172  1.1785
   67MOL   H22237314   4.346   0.804   2.473  1.0747 -1.5705 -2.7101
   67MOL   H22337315   4.131   0.772   3.049 -0.0843  1.1269  0.7810
   67MOL   H22437316   3.933   0.771   3.212  3.0555  1.2024 -0.8861
   67MOL   H22537317   3.719   0.867   3.272  0.6561 -0.6730 -0.2109
   67MOL   O22637318   4.430   0.794   2.250 -0.2103 -0.7078 -0.3416
   67MOL   C22737319   4.523   0.852   2.308  0.0693  0.2501  0.4381
   67MOL   O22837320   4.532   0.849   2.441  0.0649  0.1465 -0.1937
   67MOL   C22937321   4.637   0.917   2.231 -0.6768  0.0798  0.0557
   67MOL   C23037322   4.749   0.977   2.295 -0.5313  0.5736 -0.5660
   67MOL   C23137323   4.848   1.048   2.226 -0.4608  0.4211  0.5739
   67MOL   C23237324   4.962   1.099   2.297  0.4506  0.1460  0.1541
   67MOL   C23337325   5.057   1.174   2.233  0.6752 -0.0876  0.4458
   67MOL   C23437326   5.036   1.201   2.096  0.4487 -0.6240  0.1919
   67MOL   C23537327   5.124   1.285   2.014 -0.3187  0.5031  0.1111
   67MOL   O23637328   5.220   1.355   2.086  0.3209 -0.3810 -0.0038
   67MOL   C23737329   5.285   1.466   2.022 -0.1968 -0.3773 -0.0770
   67MOL   C23837330   5.410   1.423   1.945  0.1206  0.5792  0.3054
   67MOL   O23937331   5.104   1.309   1.893  0.4031 -0.4281  0.6083
   67MOL   C24037332   4.924   1.153   2.026 -0.2364  0.1773 -0.1455
   67MOL   C24137333   4.832   1.073   2.091 -0.1422  0.0531 -0.0403
   67MOL   C24237334   4.730   1.015   2.022  0.4142  0.4147 -0.7349
   67MOL   C24337335   4.627   0.939   2.089 -0.3520  0.3641  0.4836
   67MOL   H24437336   4.773   0.953   2.398  0.8535  0.3731 -0.9277
   67MOL   H24537337   4.988   1.076   2.400  0.7582  1.2861  0.3390
   67MOL   H24637338   5.140   1.222   2.283 -1.0600  2.2422  1.2111
   67MOL   H24737339   5.310   1.541   2.097 -2.9415  0.6454 -0.1437
   67MOL   H24837340   5.220   1.514   1.949  1.9606  0.6211 -1.4073
   67MOL   H24937341   5.396   1.331   1.888 -1.1964  0.0028  1.5245
   67MOL   H25037342   5.424   1.493   1.862 -0.5419  1.9372  1.3068
   67MOL   H25137343   4.918   1.175   1.921  0.2751 -0.8244 -0.3927
   67MOL   H25237344   4.721   1.040   1.918 -1.3255  0.4799 -0.5802
   67MOL   H25337345   4.550   0.898   2.026 -0.3653  0.7940  0.2194
   67MOL   O25437346   5.542   1.651   2.016  0.0515  0.0440  0.0600
   67MOL   C25537347   5.582   1.539   2.052 -0.7433 -0.3240 -0.2405
   67MOL   O25637348   5.523   1.422   2.024  0.2292  0.5063  0.1459
   67MOL   C25737349   5.707   1.522   2.134  0.1295  0.2750 -0.2890
   67MOL   C25837350   5.719   1.602   2.246  0.1533  0.5969  0.0256
   67MOL   C25937351   5.816   1.576   2.343  0.7401 -0.6797 -0.1657
   67MOL   C26037352   5.826   1.649   2.464  0.3538  1.2987 -1.0466
   67MOL   C26137353   5.929   1.617   2.560  0.0527 -0.3685  0.4641
   67MOL   C26237354   6.026   1.518   2.534 -0.8202  0.7998  0.3476
   67MOL   C26337355   6.146   1.491   2.622 -0.0106  0.0765 -0.0755
   67MOL   O26437356   6.123   1.535   2.747  0.0892  0.4102  0.0181
   67MOL   C26537357   6.216   1.514   2.851  0.3563 -0.7780  0.8745
   67MOL   C26637358   6.193   1.384   2.922 -0.0740 -0.2286 -0.2048
   67MOL   O26737359   6.246   1.428   2.592 -0.6144 -0.1766  0.0143
   67MOL   C26837360   6.021   1.450   2.412  0.5589  0.0912 -0.5647
   67MOL   C26937361   5.913   1.477   2.321  0.2872 -0.1162  0.1805
   67MOL   C27037362   5.906   1.395   2.203 -0.0141 -0.1919 -0.0442
   67MOL   C27137363   5.802   1.419   2.112 -0.2489 -0.0666 -0.6253
   67MOL   H27237364   5.644   1.677   2.271 -0.2679 -0.2162  1.2411
   67MOL   H27337365   5.751   1.719   2.498  0.6953  2.3408 -2.3857
   67MOL   H27437366   5.928   1.673   2.653 -2.1697 -1.2159  0.9664
   67MOL   H27537367   6.219   1.598   2.920  0.8053  0.1572 -0.2634
   67MOL   H27637368   6.314   1.514   2.803 -0.9526  1.8261 -2.0231
   67MOL   H27737369   6.253   1.311   2.867  0.0378 -0.8288  0.7149
   67MOL   H27837370   6.224   1.391   3.026 -0.3831  0.0938 -0.1344
   67MOL   H27937371   6.090   1.370   2.390  3.3499  1.4277  2.9592
   67MOL   H28037372   5.982   1.320   2.182  0.7687  0.7053 -0.4156
   67MOL   H28137373   5.791   1.367   2.017  0.5969 -0.1177 -0.6940
   67MOL   O28237374   5.995   1.384   3.128  0.1085 -0.1939  0.5065
   67MOL   C28337375   5.966   1.368   3.009  0.4802  0.6531  0.1687
   67MOL   O28437376   6.056   1.348   2.911  0.3145  0.3448  0.4683
   67MOL   C28537377   5.829   1.363   2.957  0.0976  0.5418 -0.0669
   67MOL   C28637378   5.806   1.358   2.820 -0.2912  0.3845 -0.0234
   67MOL   C28737379   5.675   1.363   2.768 -0.6569  0.4111  0.5812
   67MOL   C28837380   5.652   1.368   2.630 -0.4608 -0.2904 -0.6383
   67MOL   C28937381   5.521   1.369   2.584  0.2121 -0.4528  0.0418
   67MOL   C29037382   5.414   1.343   2.673 -0.4267  0.1805 -0.1392
   67MOL   C29137383   5.283   1.314   2.610  0.1782 -0.0996  0.2769
   67MOL   O29237384   5.190   1.281   2.697  0.5891  0.3796  0.8128
   67MOL   C29337385   5.063   1.243   2.662 -0.4696 -0.2596  0.0096
   67MOL   C29437386   5.007   1.145   2.767  0.0528 -0.0519  0.2997
   67MOL   O29537387   5.268   1.315   2.487  0.6458  0.5868 -0.1037
   67MOL   C29637388   5.435   1.334   2.811  0.0974 -0.1515  0.5762
   67MOL   C29737389   5.567   1.351   2.859 -1.2414 -0.3928 -0.0820
   67MOL   C29837390   5.592   1.357   2.996  0.3780  0.0191 -0.0721
   67MOL   C29937391   5.721   1.355   3.049 -0.3679 -0.0929 -0.6089
   67MOL   H30037392   5.887   1.356   2.749  0.0093  3.7992  0.1296
   67MOL   H30137393   5.732   1.388   2.561 -0.5597  0.3567 -0.5722
   67MOL   H30237394   5.505   1.387   2.478  0.8039 -0.7373 -0.0962
   67MOL   H30337395   5.082   1.204   2.561 -1.8494  0.9448 -0.7287
   67MOL   H30437396   5.001   1.331   2.647 -0.2255 -0.4864 -2.6735
   67MOL   H30537397   5.026   1.046   2.725 -1.5951  1.4058 -4.1604
   67MOL   H30637398   5.068   1.147   2.857  2.7865 -2.7067 -1.3839
   67MOL   H30737399   5.360   1.312   2.885 -1.1160  0.1770 -0.5357
   67MOL   H30837400   5.506   1.353   3.061  0.3327  1.0559 -0.0509
   67MOL   H30937401   5.745   1.352   3.154  0.0664 -1.5971 -0.7413
   67MOL   O31037402   4.798   1.030   2.626  0.0434 -0.0076 -0.4436
   67MOL   C31137403   4.774   1.118   2.713  0.6699  0.0481 -0.2749
   67MOL   O31237404   4.864   1.164   2.797  0.5024 -0.3712 -0.2584
   67MOL   C31337405   4.634   1.174   2.735  0.1907  0.0622  0.0778
   67MOL   C31437406   4.595   1.232   2.854 -0.1413  0.6421  0.5281
   67MOL   C31537407   4.471   1.303   2.858  0.0107 -0.2851  0.2314
   67MOL   C31637408   4.415   1.364   2.977 -0.0670  0.3311  0.0218
   67MOL   C31737409   4.303   1.447   2.983  0.0218 -0.3292  0.5747
   67MOL   C31837410   4.234   1.464   2.863  0.4090 -0.0104 -0.3247
   67MOL   C31937411   4.112   1.546   2.869  0.3698 -0.0433  0.1259
   67MOL   O32037412   4.032   1.531   2.768 -0.4510  0.4399  0.1689
   67MOL   C32137413   3.895   1.552   2.785 -0.2675 -0.6573 -0.8385
   67MOL   C32237414   3.827   1.438   2.855  0.2588 -0.1281  0.4565
   67MOL   O32337415   4.089   1.624   2.959 -0.1879  0.7043  0.1930
   67MOL   C32437416   4.273   1.398   2.743  0.4837  0.2994 -0.2011
   67MOL   C32537417   4.390   1.319   2.742  0.4299 -0.3096 -0.3062
   67MOL   C32637418   4.436   1.259   2.621  0.3563 -0.1087  0.5301
   67MOL   C32737419   4.551   1.188   2.617  0.1363  0.0480 -0.3887
   67MOL   H32837420   4.653   1.229   2.945  1.0306 -0.1382 -0.2421
   67MOL   H32937421   4.483   1.370   3.061  0.9728 -1.0961 -0.6877
   67MOL   H33037422   4.265   1.487   3.076  0.5827  0.3967  0.4936
   67MOL   H33137423   3.856   1.558   2.684  0.1024 -0.5839 -0.9788
   67MOL   H33237424   3.870   1.644   2.839  0.7348 -0.3357 -0.9038
   67MOL   H33337425   3.728   1.422   2.812  0.7053  0.3853 -0.8066
   67MOL   H33437426   3.882   1.346   2.834 -0.9550 -0.8078  0.1997
   67MOL   H33537427   4.226   1.412   2.646 -1.7324 -1.1946  0.6081
   67MOL   H33637428   4.376   1.256   2.531  0.4025  0.2834  0.4820
   67MOL   H33737429   4.583   1.158   2.518 -3.1890 -1.1583 -1.1355
   67MOL   O33837430   3.649   1.356   3.048  0.4198  0.1795  0.6520
   67MOL   C33937431   3.750   1.418   3.082 -0.1249 -0.4602 -0.2028
   67MOL   O34037432   3.850   1.457   2.995  0.3938 -0.2989 -0.2519
   67MOL   C34137433   3.784   1.458   3.226  0.2729  0.0747 -0.4225
   67MOL   C34237434   3.726   1.384   3.336 -0.3274  0.1070  0.1159
   67MOL   C34337435   3.753   1.419   3.470 -0.1621 -0.2970 -1.2753
   67MOL   C34437436   3.694   1.348   3.569 -0.4762 -0.4239  0.1770
   67MOL   C34537437   3.730   1.384   3.706 -0.0622  0.0859 -0.2790
   67MOL   C34637438   3.831   1.482   3.731  0.0735 -0.0278  0.2854
   67MOL   C34737439   3.866   1.514   3.870  0.6844  0.9384 -0.3059
   67MOL   O34837440   3.957   1.614   3.871 -0.4508 -0.0398 -0.3943
   67MOL   C34937441   4.032   1.652   3.988 -0.0283  0.3250  0.2543
   67MOL   C35037442   4.159   1.732   3.951  1.2704  0.1166  0.2143
   67MOL   O35137443   3.825   1.462   3.974 -0.4005 -0.3438 -0.1037
   67MOL   C35237444   3.901   1.543   3.624  0.0738  0.0576  0.5247
   67MOL   C35337445   3.858   1.513   3.490  0.1097 -0.0535 -0.1977
   67MOL   C35437446   3.927   1.580   3.386 -0.3170 -0.6916 -0.1852
   67MOL   C35537447   3.887   1.553   3.258 -0.2213 -0.3673  0.5046
   67MOL   H35637448   3.665   1.301   3.305  0.1905  0.1001 -0.9062
   67MOL   H35737449   3.623   1.271   3.545 -0.5099 -0.7844  1.3962
   67MOL   H35837450   3.681   1.330   3.785 -0.5745  0.3019 -0.4415
   67MOL   H35937451   4.056   1.560   4.041 -1.9440  0.6860  1.7937
   67MOL   H36037452   3.969   1.717   4.047 -1.9719 -1.6236  0.3842
   67MOL   H36137453   4.231   1.669   3.898  2.3141  0.1806  1.5210
   67MOL   H36237454   4.137   1.805   3.872 -2.0564 -1.3278 -0.2713
   67MOL   H36337455   3.981   1.614   3.635  0.8746 -0.7136 -0.2584
   67MOL   H36437456   4.009   1.647   3.404 -0.1249 -0.3669 -2.1452
   67MOL   H36537457   3.942   1.603   3.180  0.9745 -0.3881  1.3210
   67MOL   O36637458   4.090   1.968   4.071 -0.2827 -0.2420  0.0664
   67MOL   C36737459   4.182   1.898   4.124 -0.0660  0.8553 -0.3740
   67MOL   O36837460   4.222   1.785   4.069 -0.1322  0.1618 -0.0855
   67MOL   C36937461   4.244   1.927   4.254  0.1230 -0.1779  0.2273
   67MOL   C37037462   4.302   1.826   4.331 -0.2641  0.6294 -0.5885
   67MOL   C37137463   4.345   1.848   4.461  0.0715 -0.2729  0.3232
   67MOL   C37237464   4.392   1.744   4.535 -0.2850  0.1996 -0.7029
   67MOL   C37337465   4.455   1.775   4.661  0.3725 -0.2888 -0.8367
   67MOL   C37437466   4.468   1.905   4.707  0.1310  0.0393  0.2185
   67MOL   C37537467   4.507   1.934   4.844 -0.7263 -0.0783  0.6158
   67MOL   O37637468   4.450   1.852   4.938  0.2902  0.4591 -0.2316
   67MOL   C37737469   4.461   1.872   5.076  1.1630 -0.3177  1.2356
   67MOL   C37837470   4.354   1.969   5.119 -0.1104  0.1244  0.3743
   67MOL   O37937471   4.567   2.030   4.886 -0.0242 -0.3664  0.5543
   67MOL   C38037472   4.422   2.012   4.626  0.4388  0.1437  0.5950
   67MOL   C38137473   4.357   1.985   4.501  0.7574 -0.2555 -0.5800
   67MOL   C38237474   4.311   2.093   4.423  0.3246  0.1678  1.1895
   67MOL   C38337475   4.251   2.058   4.296  0.0134  0.0099 -0.4567
   67MOL   H38437476   4.291   1.723   4.302  0.4325  0.4240 -0.1283
   67MOL   H38537477   4.404   1.648   4.488  0.8327 -0.0417  0.0736
   67MOL   H38637478   4.506   1.700   4.721 -0.9810 -1.0430 -0.6165
   67MOL   H38737479   4.562   1.897   5.108  0.7863  2.1883  0.6076
   67MOL   H38837480   4.444   1.780   5.131  2.8985 -0.8514  0.9128
   67MOL   H38937481   4.373   2.006   5.219 -3.0650  0.1879  0.9518
   67MOL   H39037482   4.335   2.056   5.057 -0.5265  0.0985  0.4625
   67MOL   H39137483   4.425   2.115   4.658  2.0982  0.2845  0.0198
   67MOL   H39237484   4.321   2.195   4.459 -1.8221  0.7068  0.4008
   67MOL   H39337485   4.213   2.142   4.240 -2.3399 -0.8285 -0.1804
   67MOL   O39437486   4.127   1.964   4.954 -0.0617 -0.0565 -0.4063
   67MOL   C39537487   4.137   1.887   5.040  0.7230  0.1267  0.4533
   67MOL   O39637488   4.237   1.891   5.134 -0.4336 -0.0779  0.7287
   67MOL   C39737489   4.027   1.788   5.076  0.5636  0.8727  0.0789
   67MOL   C39837490   3.895   1.811   5.028  0.2521  0.1291  0.1626
   67MOL   C39937491   3.798   1.708   5.033  0.5437 -0.0404  0.0935
   67MOL   C40037492   3.663   1.735   4.984 -0.8411  0.2277  0.1112
   67MOL   C40137493   3.574   1.626   4.976 -1.0074  0.1924  0.1231
   67MOL   C40237494   3.607   1.501   5.033  0.0220 -0.1946 -0.5556
   67MOL   C40337495   3.512   1.391   5.049  0.0434  0.9092 -0.1998
   67MOL   O40437496   3.393   1.401   4.969 -0.0805  0.3939 -0.0380
   67MOL   C40537497   3.305   1.294   4.957 -0.6233 -0.6403  0.3501
   67MOL   C40637498   3.336   1.211   4.831  0.5299  0.1982  0.0142
   67MOL   O40737499   3.540   1.287   5.120 -0.6398  0.3734 -0.2433
   67MOL   C40837500   3.737   1.476   5.093 -0.5082 -1.0061  0.0394
   67MOL   C40937501   3.827   1.586   5.097  0.3363  0.4033  0.1473
   67MOL   C41037502   3.952   1.568   5.159 -0.0942  0.1509  0.4337
   67MOL   C41137503   4.049   1.671   5.146  0.5282  0.0251  0.3778
   67MOL   H41237504   3.873   1.910   4.992 -0.3664 -0.6735 -1.7111
   67MOL   H41337505   3.643   1.836   4.953 -1.7780 -0.3782 -1.3021
   67MOL   H41437506   3.470   1.643   4.957 -0.6894 -0.4564 -2.2753
   67MOL   H41537507   3.209   1.343   4.941  0.1121  0.5130 -0.7142
   67MOL   H41637508   3.289   1.232   5.045 -0.2035  0.3756  1.1463
   67MOL   H41737509   3.246   1.155   4.807  1.0519 -0.0656 -1.3691
   67MOL   H41837510   3.356   1.271   4.742 -0.3651  0.5701  0.0541
   67MOL   H41937511   3.773   1.384   5.136  0.7111 -0.2045  0.7679
   67MOL   H42037512   3.983   1.482   5.218  0.4272  0.2681  0.3350
   67MOL   H42137513   4.145   1.656   5.193 -0.4776 -3.4596  1.4761
   67MOL   O42237514   3.382   0.988   4.680 -0.0811 -0.2256 -0.2939
   67MOL   C42337515   3.457   1.018   4.776 -0.2901  0.4460  0.2687
   67MOL   O42437516   3.437   1.116   4.852 -0.6832  0.0409 -0.3158
   67MOL   C42537517   3.584   0.943   4.801 -0.2935 -0.2284  0.2283
   67MOL   C42637518   3.640   0.945   4.926  0.1154 -0.2110 -0.4463
   67MOL   C42737519   3.757   0.876   4.955  0.7193 -0.1320  0.8176
   67MOL   C42837520   3.815   0.892   5.081 -0.4038  0.4783  0.3861
   67MOL   C42937521   3.948   0.834   5.104 -0.0300 -0.1339  0.2156
   67MOL   C43037522   4.008   0.760   5.003 -0.6399 -0.3916  0.2349
   67MOL   C43137523   4.149   0.711   5.035  0.1298 -0.7306  0.4570
   67MOL   O43237524   4.195   0.645   4.933  0.0650  0.5641 -0.2786
   67MOL   C43337525   4.323   0.578   4.942 -0.4191  0.4213  0.3697
   67MOL   C43437526   4.314   0.445   5.026  0.0320 -0.5200 -0.0740
   67MOL   O43537527   4.215   0.735   5.139  0.3631  0.1656 -0.4874
   67MOL   C43637528   3.944   0.735   4.880  0.1346 -0.3954 -0.8350
   67MOL   C43737529   3.824   0.803   4.856  0.5816  0.1769 -0.0982
   67MOL   C43837530   3.767   0.798   4.728 -0.7687 -0.1694  0.1932
   67MOL   C43937531   3.640   0.858   4.703  0.7413  0.0495 -0.0014
   67MOL   H44037532   3.596   1.006   5.004  0.3925 -0.1812 -0.3124
   67MOL   H44137533   3.764   0.956   5.152  1.0450  0.6241  1.3220
   67MOL   H44237534   4.001   0.857   5.195  1.5338 -0.9708 -0.4595
   67MOL   H44337535   4.400   0.633   4.997  0.2220  0.2617 -0.3587
   67MOL   H44437536   4.374   0.570   4.846 -1.2401 -0.1234 -0.0244
   67MOL   H44537537   4.417   0.408   5.025  0.0035 -0.5948 -1.0093
   67MOL   H44637538   4.297   0.454   5.133  1.4882  0.9157  0.0367
   67MOL   H44737539   3.989   0.673   4.804  2.7586  0.3250  0.0634
   67MOL   H44837540   3.816   0.753   4.643 -0.9938  1.2649 -0.7141
   67MOL   H44937541   3.595   0.857   4.605 -0.5505 -3.0057  0.5620
   67MOL   O45037542   4.394   0.243   4.866  0.6972 -0.7870 -0.5514
   67MOL   C45137543   4.273   0.258   4.892 -0.0665 -0.3996 -0.8388
   67MOL   O45237544   4.220   0.356   4.967  0.1820  0.0991 -0.1562
   67MOL   C45337545   4.170   0.170   4.838  0.2979  1.0185  0.2186
   67MOL   C45437546   4.207   0.047   4.768  0.0507  0.8714 -0.6239
   67MOL   C45537547   4.109   8.215   4.717  0.5466  0.8004  0.5948
   67MOL   C45637548   4.146   8.097   4.643 -0.6133 -0.0531  0.0196
   67MOL   C45737549   4.048   8.020   4.585  0.1027  0.3229 -0.2682
   67MOL   C45837550   3.910   8.050   4.608  0.2481  0.1274  0.2602
   67MOL   C45937551   3.806   7.958   4.553  0.7305 -0.3104 -0.6542
   67MOL   O46037552   3.686   8.025   4.538  0.3711 -0.1299 -0.1010
   67MOL   C46137553   3.576   7.970   4.481 -0.3603  0.5383 -0.3229
   67MOL   C46237554   3.535   7.830   4.550 -0.1301 -0.0847  0.5967
   67MOL   O46337555   3.823   7.840   4.513 -0.0274 -0.6379  0.0318
   67MOL   C46437556   3.873   8.160   4.688 -0.4876 -0.2350  0.8247
   67MOL   C46537557   3.971   0.001   4.729 -0.1986  0.3176 -0.8042
   67MOL   C46637558   3.936   0.118   4.794 -0.3892  0.4880  0.4147
   67MOL   C46737559   4.033   0.205   4.843 -0.0774 -0.3525  0.0846
   67MOL   H46837560   4.313   0.031   4.757 -0.2199 -1.1478 -0.4350
   67MOL   H46937561   4.250   8.072   4.634 -0.5489 -0.6861  2.2646
   67MOL   H47037562   4.065   7.929   4.529  1.8860 -0.7323  1.9056
   67MOL   H47137563   3.592   7.957   4.374 -1.0500  0.0837 -0.3738
   67MOL   H47237564   3.499   8.047   4.492 -0.1740  0.3679  2.6070
   67MOL   H47337565   3.588   7.748   4.500  1.8512  0.5895  1.5474
   67MOL   H47437566   3.549   7.819   4.658  0.3463 -0.1707  0.5279
   67MOL   H47537567   3.768   8.182   4.700 -0.6268  0.0442 -0.7997
   67MOL   H47637568   3.831   0.136   4.813 -0.5875 -0.3625  0.1298
   67MOL   H47737569   4.011   0.308   4.867 -0.2327  0.1823 -2.2431
   67MOL   O47837570   3.368   7.769   4.321 -0.0239  0.4656  0.9112
   67MOL   C47937571   3.321   7.779   4.436 -0.1487 -0.4843  0.3684
   67MOL   O48037572   3.391   7.813   4.544  0.5556  0.3609 -0.1769
   67MOL   C48137573   3.175   7.757   4.456  0.0772  0.2722  0.4144
   67MOL   C48237574   3.097   7.696   4.354 -0.1879 -0.9258  0.2964
   67MOL   C48337575   2.959   7.675   4.377  0.0084 -0.0546 -0.6445
   67MOL   C48437576   2.877   7.618   4.276  0.2481 -0.0836 -0.5557
   67MOL   C48537577   2.741   7.589   4.300  1.0453 -0.5924  0.4479
   67MOL   C48637578   2.685   7.617   4.426  0.0437 -0.2332  0.2583
   67MOL   C48737579   2.550   7.570   4.464 -0.9274 -0.0319 -0.1886
   67MOL   O48837580   2.522   7.605   4.585  0.7454 -0.2676  0.0087
   67MOL   C48937581   2.405   7.552   4.645 -0.8335 -0.4223 -0.2641
   67MOL   C49037582   2.451   7.456   4.760 -0.3452  0.3863  0.5013
   67MOL   O49137583   2.472   7.518   4.387  0.5765 -0.1102 -0.4960
   67MOL   C49237584   2.764   7.688   4.522  0.3562 -0.4336 -0.6291
   67MOL   C49337585   2.903   7.720   4.497  0.1616  0.1181 -1.2056
   67MOL   C49437586   2.986   7.778   4.593 -0.2867  0.7910 -0.2081
   67MOL   C49537587   3.118   7.797   4.574 -0.8477 -0.2347 -0.2028
   67MOL   H49637588   3.148   7.670   4.262  0.6486  0.5545  0.3146
   67MOL   H49737589   2.920   7.593   4.180 -0.1637  0.3137 -0.8472
   67MOL   H49837590   2.684   7.525   4.235 -0.1327  0.7957  0.0805
   67MOL   H49937591   2.332   7.499   4.583 -0.7628 -1.9970  0.9856
   67MOL   H50037592   2.353   7.634   4.695  1.1273  0.2369  0.7655
   67MOL   H50137593   2.398   7.360   4.760  0.1139  0.1239 -0.1838
   67MOL   H50237594   2.555   7.422   4.757 -1.0356 -1.7770 -0.5184
   67MOL   H50337595   2.725   7.704   4.622 -2.5621  0.4234 -1.8369
   67MOL   H50437596   2.954   7.796   4.695 -0.8155  2.6596 -0.6917
   67MOL   H50537597   3.167   7.856   4.651  0.7429 -1.4779 -0.2344
   67MOL   O50637598   2.620   7.623   4.890  0.0016 -0.1206 -0.3143
   67MOL   C50737599   2.519   7.588   4.948  0.1567 -0.3483 -0.1973
   67MOL   O50837600   2.431   7.511   4.892  0.4750  0.1322  0.3289
   67MOL   C50937601   2.492   7.619   5.093 -0.3836 -0.0129 -1.0601
   67MOL   C51037602   2.590   7.686   5.168 -0.1161  0.0402  0.3486
   67MOL   C51137603   2.581   7.692   5.309 -0.1562  0.6941 -0.5105
   67MOL   C51237604   2.692   7.742   5.378  0.2753  0.3634  0.1067
   67MOL   C51337605   2.701   7.744   5.516 -0.2784  0.4262 -0.1589
   67MOL   C51437606   2.589   7.693   5.589 -0.6667  0.3870 -0.6787
   67MOL   C51537607   2.605   7.670   5.734  0.2196  0.7506 -0.0408
   67MOL   O51637608   2.503   7.599   5.788  0.4121  0.0793 -0.0690
   67MOL   C51737609   2.522   7.524   5.905  0.9131  1.3675  0.0512
   67MOL   C51837610   2.522   7.610   6.037  0.5345 -0.5287  0.4370
   67MOL   O51937611   2.701   7.710   5.797 -0.0341  0.0897 -0.0366
   67MOL   C52037612   2.474   7.645   5.522  0.2903 -0.2007  0.2245
   67MOL   C52137613   2.470   7.645   5.383  0.4237 -0.5111  0.0671
   67MOL   C52237614   2.362   7.592   5.302  0.3092  0.5509  0.0146
   67MOL   C52337615   2.371   7.577   5.163 -0.1249 -1.2992  0.2143
   67MOL   H52437616   2.661   7.738   5.105 -0.6584  0.3965  0.0277
   67MOL   H52537617   2.785   7.776   5.334  0.1675  0.9889  0.3502
   67MOL   H52637618   2.797   7.771   5.557 -0.5384  0.0850  0.6754
   67MOL   H52737619   2.617   7.469   5.903  1.2116  1.8179  1.7113
   67MOL   H52837620   2.452   7.440   5.908  0.8470  1.3573 -1.2911
   67MOL   H52937621   2.573   7.555   6.116  2.4684  0.4676 -0.0822
   67MOL   H53037622   2.566   7.708   6.016 -1.6731  0.3584 -0.1898
   67MOL   H53137623   2.397   7.604   5.586 -0.4928  0.6550 -0.1543
   67MOL   H53237624   2.274   7.553   5.352 -0.6502 -0.2848 -2.2449
   67MOL   H53337625   2.285   7.533   5.114 -0.9608  0.6073 -0.0706
   67MOL   O53437626   2.320   7.783   5.927  0.2764 -0.4044 -0.4314
   67MOL   C53537627   2.294   7.702   6.016  0.4183  0.4215 -0.3967
   67MOL   O53637628   2.384   7.623   6.073 -0.1883  0.1990  0.0853
   67MOL   C53737629   2.164   7.694   6.090  0.4661 -0.8586  0.1404
   67MOL   C53837630   2.074   7.807   6.071  0.0675  0.6613 -0.1775
   67MOL   C53937631   1.947   7.811   6.135 -0.7582 -0.2831  0.2747
   67MOL   C54037632   1.857   7.925   6.123  0.2696 -0.0820 -0.2250
   67MOL   C54137633   1.740   7.926   6.205  0.5267  0.1667  0.1774
   67MOL   C54237634   1.698   7.818   6.288 -0.5167  1.0902 -0.5423
   67MOL   C54337635   1.577   7.815   6.378  0.0071  0.0891  0.4303
   67MOL   O54437636   1.519   7.933   6.388  0.3488  0.8189 -0.1333
   67MOL   C54537637   1.396   7.947   6.459  0.7282  0.4229  0.0074
   67MOL   C54637638   1.331   8.060   6.387  0.3968 -0.0726  0.0693
   67MOL   O54737639   1.533   7.716   6.431  0.0714  0.2050  0.3766
   67MOL   C54837640   1.793   7.703   6.294  0.9625  0.3445 -0.1178
   67MOL   C54937641   1.916   7.711   6.224  0.4245  0.2040 -0.2591
   67MOL   C55037642   2.000   7.603   6.245 -0.0882  0.0968  0.1831
   67MOL   C55137643   2.122   7.592   6.173 -0.2859  0.2231  1.0232
   67MOL   H55237644   2.104   7.891   6.011  0.5326 -0.9650 -2.2799
   67MOL   H55337645   1.872   8.010   6.059 -0.1003  0.9050  0.9762
   67MOL   H55437646   1.679   8.015   6.191 -2.1740 -1.8339 -1.1434
   67MOL   H55537647   1.418   7.963   6.564  1.9189 -1.4902  0.0681
   67MOL   H55637648   1.345   7.852   6.447  2.0162 -0.5742  2.1697
   67MOL   H55737649   1.245   8.095   6.445  0.6143  0.8658 -0.1564
   67MOL   H55837650   1.290   8.029   6.291  2.1014 -0.2912 -0.5969
   67MOL   H55937651   1.772   7.617   6.356  0.6996  0.7735  0.3995
   67MOL   H56037652   1.979   7.524   6.315  0.3388 -0.9539 -0.8427
   67MOL   H56137653   2.191   7.510   6.181 -0.5820 -0.0328  0.9348
   67MOL   H56237654   1.386   8.153   6.371 -1.1811  1.2480  1.9270
   68MOL     O137655   2.040   8.106   3.393 -0.5037 -0.0740  0.2595
   68MOL     C237656   1.956   8.199   3.405 -0.3188 -0.4033  0.0082
   68MOL     O337657   1.828   8.180   3.377 -0.0273 -0.1034 -0.4015
   68MOL     C437658   1.994   0.084   3.460 -0.1556 -0.3104  0.2233
   68MOL     C537659   1.899   0.186   3.482  0.3492  0.1116 -0.6682
   68MOL     C637660   1.931   0.298   3.564  0.0934  0.0179  0.0103
   68MOL     C737661   1.829   0.383   3.600  0.3221 -0.3440 -0.6760
   68MOL     C837662   1.861   0.506   3.665  0.2674  0.2346  0.2617
   68MOL     C937663   1.995   0.535   3.695  0.0467  0.2589  0.2648
   68MOL    C1037664   2.023   0.662   3.761 -0.5791  0.3909  0.0697
   68MOL    O1137665   1.922   0.743   3.759  0.2700 -0.1779  0.0463
   68MOL    C1237666   1.948   0.876   3.809 -0.0042  0.0441  0.3345
   68MOL    C1337667   1.818   0.944   3.834 -0.2144  0.4490 -0.0090
   68MOL    O1437668   2.127   0.683   3.813  0.1843 -0.4745 -0.1890
   68MOL    C1537669   2.097   0.438   3.669  0.0044 -0.3880 -0.3923
   68MOL    C1637670   2.060   0.316   3.611 -0.4222  0.1117 -0.1662
   68MOL    C1737671   2.155   0.213   3.593 -0.1154 -0.0210 -0.2930
   68MOL    C1837672   2.125   0.108   3.507  0.2561  0.4578 -0.4000
   68MOL    H1937673   1.794   0.171   3.462  0.6942 -0.4090 -2.1620
   68MOL    H2037674   1.727   0.357   3.574  0.1187 -0.2791  0.0303
   68MOL    H2137675   1.784   0.580   3.679  1.0588  0.6617  2.4238
   68MOL    H2237676   1.999   0.886   3.905  0.2284 -0.5113  0.2728
   68MOL    H2337677   1.997   0.935   3.731 -1.0054  2.5019  1.5212
   68MOL    H2437678   1.835   1.046   3.869  0.8018  0.0853  0.5521
   68MOL    H2537679   1.762   0.945   3.740  0.6385  1.6122 -0.5247
   68MOL    H2637680   2.201   0.450   3.697 -0.4289  1.5314  0.5233
   68MOL    H2737681   2.252   0.200   3.638 -1.6303 -1.3852  2.7336
   68MOL    H2837682   2.206   0.039   3.492  0.5143  0.1078  2.2829
   68MOL    H2937683   1.833   8.094   3.338 -2.7034 -0.7109  0.4657
   68MOL    O3037684   1.853   0.974   4.103  0.0220  0.4658 -0.4878
   68MOL    C3137685   1.768   0.889   4.061  0.4232 -0.7421 -0.6871
   68MOL    O3237686   1.745   0.874   3.934  0.3616 -0.5143  0.8845
   68MOL    C3337687   1.689   0.797   4.145 -0.9173 -0.0636  0.2779
   68MOL    C3437688   1.614   0.690   4.098 -0.2104 -0.6049 -0.2644
   68MOL    C3537689   1.542   0.606   4.189 -0.6623 -0.5942  0.8973
   68MOL    C3637690   1.459   0.501   4.143 -0.3833  0.3141  0.3511
   68MOL    C3737691   1.383   0.420   4.233  0.5832  0.1910 -0.1617
   68MOL    C3837692   1.383   0.445   4.371 -0.0462 -0.3319  0.9383
   68MOL    C3937693   1.293   0.361   4.458 -0.5755  0.9082  0.0908
   68MOL    O4037694   1.294   0.408   4.584 -0.3863  0.7748 -0.3095
   68MOL    C4137695   1.218   0.343   4.687  0.3885  0.1795 -0.8881
   68MOL    C4237696   1.287   0.344   4.827 -0.8985  0.2812 -0.0658
   68MOL    O4337697   1.222   0.265   4.420  0.2813 -0.3994  0.7793
   68MOL    C4437698   1.467   0.548   4.413 -0.3149  0.5366 -0.1635
   68MOL    C4537699   1.545   0.631   4.324  0.0324 -0.3388  0.0733
   68MOL    C4637700   1.629   0.738   4.372  0.2104  0.0266 -0.4641
   68MOL    C4737701   1.694   0.820   4.280 -0.3587 -0.0795 -1.1189
   68MOL    H4837702   1.597   0.676   3.992 -0.7586 -0.0862 -0.2441
   68MOL    H4937703   1.471   0.482   4.037 -0.4364 -0.1617  0.4287
   68MOL    H5037704   1.320   0.342   4.193 -0.1778  0.6648  0.1111
   68MOL    H5137705   1.210   0.236   4.667 -0.2844  0.2512 -1.0263
   68MOL    H5237706   1.115   0.378   4.682  0.3575 -0.0941 -2.5316
   68MOL    H5337707   1.250   0.257   4.881  2.3666  0.9833  3.5399
   68MOL    H5437708   1.396   0.349   4.828 -0.8430  0.9628 -3.3738
   68MOL    H5537709   1.476   0.573   4.517  2.2956  0.1151 -0.2633
   68MOL    H5637710   1.651   0.744   4.477  0.7228  2.1980 -0.6756
   68MOL    H5737711   1.744   0.905   4.326 -0.5424 -0.2980 -0.5102
   68MOL    O5837712   1.432   0.583   4.868 -0.2744 -0.1786  0.3642
   68MOL    C5937713   1.327   0.557   4.927  0.4274 -0.7858 -0.5991
   68MOL    O6037714   1.246   0.448   4.908  0.0432  0.5343 -0.1065
   68MOL    C6137715   1.278   0.658   5.020 -0.3155 -0.8436 -0.6738
   68MOL    C6237716   1.337   0.787   5.022  0.0370  0.3547 -0.1682
   68MOL    C6337717   1.280   0.892   5.095 -0.0507  0.0790 -0.8628
   68MOL    C6437718   1.344   1.019   5.081  0.6042  0.3559  0.6829
   68MOL    C6537719   1.297   1.127   5.156 -0.0568  0.0595 -0.6230
   68MOL    C6637720   1.178   1.111   5.230 -0.3834  0.9211  1.0245
   68MOL    C6737721   1.127   1.228   5.312 -0.3561  0.1345  0.7480
   68MOL    O6837722   1.224   1.316   5.338  0.0764  0.2252 -0.4134
   68MOL    C6937723   1.206   1.432   5.420  0.5774 -0.2527 -0.2788
   68MOL    C7037724   1.208   1.557   5.336  0.8579 -0.2591  1.3461
   68MOL    O7137725   1.015   1.249   5.346  0.1517 -0.1207  0.1810
   68MOL    C7237726   1.106   0.988   5.229  0.3698  0.1452 -0.2225
   68MOL    C7337727   1.160   0.878   5.163 -0.3416  0.1292  0.5428
   68MOL    C7437728   1.100   0.748   5.160 -0.1502 -0.3988  0.2213
   68MOL    C7537729   1.159   0.640   5.084 -0.3426  0.8450  0.9342
   68MOL    H7637730   1.435   0.795   4.978  0.4391  1.7711  0.9688
   68MOL    H7737731   1.429   1.027   5.016 -0.6683 -0.1299 -1.0578
   68MOL    H7837732   1.360   1.214   5.148 -0.4234  0.3979  0.0704
   68MOL    H7937733   1.292   1.443   5.486  0.5327  3.2441 -0.7058
   68MOL    H8037734   1.114   1.415   5.475  2.3142 -3.6645  1.6987
   68MOL    H8137735   1.123   1.550   5.268  1.9013 -0.9417  0.0849
   68MOL    H8237736   1.173   1.641   5.397  0.7673  0.9289 -0.3065
   68MOL    H8337737   1.013   0.973   5.281  0.3498 -0.3449 -0.3875
   68MOL    H8437738   1.001   0.737   5.203 -0.4633 -1.0457 -0.6429
   68MOL    H8537739   1.113   0.542   5.078 -0.1244  0.7285  1.1417
   68MOL    O8637740   1.430   1.690   5.435  0.6816  0.3117 -0.4692
   68MOL    C8737741   1.440   1.638   5.325 -0.3517  0.5672  0.2773
   68MOL    O8837742   1.328   1.574   5.269  0.1538  0.5296  0.0041
   68MOL    C8937743   1.559   1.642   5.239  0.0415  0.4923  0.0148
   68MOL    C9037744   1.670   1.716   5.291 -0.3535 -0.0186  0.1902
   68MOL    C9137745   1.798   1.716   5.225  0.4793 -0.1705  0.5557
   68MOL    C9237746   1.906   1.793   5.266 -0.4817 -0.4463 -0.4085
   68MOL    C9337747   2.020   1.794   5.190 -0.2238 -0.0658 -0.5166
   68MOL    C9437748   2.032   1.718   5.073  0.1051  0.5052  0.0022
   68MOL    C9537749   2.168   1.701   5.007 -0.4034 -0.0752 -0.0263
   68MOL    O9637750   2.272   1.749   5.075 -0.0553  0.6691 -0.1295
   68MOL    C9737751   2.405   1.721   5.036 -0.0940  0.8648  0.2546
   68MOL    C9837752   2.462   1.820   4.931  0.4304  0.6048 -0.5014
   68MOL    O9937753   2.178   1.651   4.893 -0.5583 -0.5464 -1.1878
   68MOL   C10037754   1.927   1.644   5.032 -0.3571  0.1866 -0.3080
   68MOL   C10137755   1.806   1.643   5.104  0.3917 -0.2047 -0.1543
   68MOL   C10237756   1.696   1.575   5.047 -0.0548  0.4832  0.0294
   68MOL   C10337757   1.569   1.582   5.111  0.5123 -0.0194  0.2854
   68MOL   H10437758   1.661   1.774   5.382 -3.4243  0.9602 -0.6733
   68MOL   H10537759   1.907   1.851   5.358  0.8941 -0.3707 -0.4616
   68MOL   H10637760   2.106   1.842   5.235  0.0916 -0.2283 -0.9492
   68MOL   H10737761   2.414   1.619   4.999 -2.9747  1.7078 -2.9565
   68MOL   H10837762   2.464   1.732   5.127  0.7250  1.0467 -0.2928
   68MOL   H10937763   2.439   1.921   4.964 -0.2105  0.5328 -0.7242
   68MOL   H11037764   2.571   1.810   4.936  0.4900  0.9614 -0.9777
   68MOL   H11137765   1.940   1.574   4.950  0.2468 -0.0106 -0.0439
   68MOL   H11237766   1.717   1.513   4.962 -1.8091 -1.4483  0.9411
   68MOL   H11337767   1.484   1.527   5.074  0.7758 -0.4300  0.2780
   68MOL   O11437768   2.626   1.798   4.701 -0.2976 -0.4928  0.5758
   68MOL   C11537769   2.511   1.783   4.692 -0.3292 -0.3390 -0.1921
   68MOL   O11637770   2.424   1.798   4.794  0.4783 -0.1132  1.0347
   68MOL   C11737771   2.448   1.749   4.561  0.5713  0.5097  0.0472
   68MOL   C11837772   2.332   1.668   4.564  0.6954 -0.2633  0.1257
   68MOL   C11937773   2.281   1.626   4.438  0.0044  0.0282 -0.1754
   68MOL   C12037774   2.178   1.529   4.435 -0.4268  0.3009 -0.0035
   68MOL   C12137775   2.133   1.474   4.308  0.5717 -0.4506 -0.1478
   68MOL   C12237776   2.196   1.519   4.192  0.6897  0.0171 -0.6978
   68MOL   C12337777   2.158   1.456   4.061  0.4545  0.1426  0.3663
   68MOL   O12437778   2.038   1.401   4.068  0.0646  0.2333  0.3116
   68MOL   C12537779   1.963   1.368   3.950  0.5787 -0.3278  0.0697
   68MOL   C12637780   1.912   1.503   3.897 -0.4126  0.2496 -0.2684
   68MOL   O12737781   2.236   1.446   3.965 -0.3205 -0.3827 -0.0456
   68MOL   C12837782   2.299   1.617   4.197  0.1262  0.0769 -0.7141
   68MOL   C12937783   2.332   1.674   4.317 -0.6407 -0.3223 -0.3456
   68MOL   C13037784   2.442   1.764   4.321  0.3688  0.6846 -0.1001
   68MOL   C13137785   2.500   1.799   4.440  0.6533 -0.0653  0.6071
   68MOL   H13237786   2.282   1.651   4.658 -0.9969  1.2088 -0.4771
   68MOL   H13337787   2.120   1.509   4.524 -0.1880  0.5499  0.2117
   68MOL   H13437788   2.061   1.394   4.319  0.9115 -0.5161  1.7449
   68MOL   H13537789   1.876   1.308   3.979 -1.7828  2.0259 -1.9620
   68MOL   H13637790   2.020   1.313   3.875 -0.6733 -0.5387 -0.7412
   68MOL   H13737791   1.840   1.478   3.819  3.0919  0.5405 -3.6895
   68MOL   H13837792   1.857   1.558   3.974 -1.5109 -3.0398  1.4248
   68MOL   H13937793   2.355   1.637   4.106 -0.2841 -3.0116 -1.7071
   68MOL   H14037794   2.486   1.806   4.232  1.9178  0.5946  0.6087
   68MOL   H14137795   2.587   1.864   4.446 -0.3053  1.1464  1.7954
   68MOL   O14237796   2.002   1.448   3.625 -0.4677  0.4276 -0.4815
   68MOL   C14337797   2.040   1.547   3.690  0.1412 -0.6724  0.0706
   68MOL   O14437798   2.004   1.584   3.819  0.3470 -0.3088  0.1374
   68MOL   C14537799   2.148   1.636   3.644 -0.4365 -0.0686 -0.4709
   68MOL   C14637800   2.224   1.716   3.732 -0.7229  0.2953  1.0540
   68MOL   C14737801   2.325   1.792   3.683 -0.5688 -0.6450 -0.4127
   68MOL   C14837802   2.394   1.879   3.771  0.1542  0.1957  0.7270
   68MOL   C14937803   2.506   1.946   3.720  0.5032  0.0821  0.0033
   68MOL   C15037804   2.556   1.925   3.586  0.3964  0.3023 -0.2376
   68MOL   C15137805   2.681   1.994   3.538 -0.1705 -0.2383  0.6550
   68MOL   O15237806   2.730   2.071   3.635  0.5225 -0.2517 -0.4503
   68MOL   C15337807   2.814   2.183   3.623 -0.3122 -0.2780  0.2018
   68MOL   C15437808   2.888   2.204   3.756 -0.2066  0.4387 -0.0895
   68MOL   O15537809   2.719   1.990   3.419  0.0322  0.2562 -0.2450
   68MOL   C15637810   2.489   1.834   3.501 -0.0522 -0.4967 -0.2917
   68MOL   C15737811   2.366   1.781   3.549  1.4885 -0.6293  0.2366
   68MOL   C15837812   2.301   1.687   3.463 -0.6214 -0.4467 -0.2741
   68MOL   C15937813   2.184   1.623   3.511 -0.5517 -0.0703 -0.3410
   68MOL   H16037814   2.208   1.722   3.838  0.9115 -2.7783  1.5408
   68MOL   H16137815   2.350   1.896   3.868  0.6282  0.4204  0.8999
   68MOL   H16237816   2.549   2.021   3.785  0.6019  2.0999 -2.3292
   68MOL   H16337817   2.747   2.266   3.600  0.4720  0.2637 -0.1503
   68MOL   H16437818   2.885   2.180   3.540 -1.3701 -0.6984 -0.6971
   68MOL   H16537819   2.968   2.130   3.762 -0.2056  0.3631 -1.0262
   68MOL   H16637820   2.929   2.303   3.773 -0.6772  0.2833  2.0861
   68MOL   H16737821   2.526   1.810   3.402  1.3020  0.2530  0.0133
   68MOL   H16837822   2.340   1.657   3.367  2.0397  0.2979  0.5376
   68MOL   H16937823   2.130   1.554   3.447 -1.0927  0.3660 -0.3562
   68MOL   O17037824   2.919   2.042   3.969 -0.0013 -0.0686  0.5960
   68MOL   C17137825   2.832   2.127   3.974 -0.5674 -0.1024  0.3617
   68MOL   O17237826   2.797   2.200   3.865  0.4547 -0.0366 -0.5871
   68MOL   C17337827   2.747   2.154   4.089  0.5662  0.9672 -0.3153
   68MOL   C17437828   2.778   2.090   4.208 -0.5227 -0.4248  0.3979
   68MOL   C17537829   2.717   2.123   4.332  0.1052  0.6782 -0.2963
   68MOL   C17637830   2.749   2.064   4.458 -0.6647 -0.0190 -0.3569
   68MOL   C17737831   2.666   2.086   4.572 -0.3019  0.4373  0.9462
   68MOL   C17837832   2.557   2.172   4.573  0.7277  0.0319  0.9845
   68MOL   C17937833   2.469   2.205   4.689 -0.1193 -0.7078  0.2751
   68MOL   O18037834   2.487   2.131   4.793 -0.3160  0.0925  0.4556
   68MOL   C18137835   2.431   2.165   4.913  0.0444 -0.8376  0.8454
   68MOL   C18237836   2.284   2.131   4.928 -0.0947  0.3682 -0.5609
   68MOL   O18337837   2.396   2.308   4.684  0.0175  0.3189 -0.6872
   68MOL   C18437838   2.530   2.232   4.447 -0.0707 -0.2613  1.0554
   68MOL   C18537839   2.607   2.211   4.331  0.4010 -0.0542 -0.8208
   68MOL   C18637840   2.573   2.276   4.211  0.3933  0.1556  0.3796
   68MOL   C18737841   2.646   2.248   4.092  0.2132 -0.7171 -0.1534
   68MOL   H18837842   2.859   2.020   4.206 -1.6082 -1.7044  0.5750
   68MOL   H18937843   2.836   2.000   4.465 -1.3217 -0.8314  0.3457
   68MOL   H19037844   2.698   2.046   4.667 -3.2067 -1.6598  1.0734
   68MOL   H19137845   2.450   2.270   4.937 -2.6284  0.1293 -1.1338
   68MOL   H19237846   2.476   2.109   4.996 -3.5433 -3.6377  1.0282
   68MOL   H19337847   2.274   2.031   4.888 -1.6265 -0.2060  1.1811
   68MOL   H19437848   2.258   2.114   5.033 -0.5039 -0.8209 -0.8503
   68MOL   H19537849   2.452   2.306   4.430  0.7645  0.8012  1.7888
   68MOL   H19637850   2.486   2.338   4.205  0.4957  0.1360 -1.9334
   68MOL   H19737851   2.624   2.296   3.998  0.4387 -0.1367  0.0863
   68MOL   O19837852   2.019   2.092   4.860  0.3237 -0.1208 -0.3648
   68MOL   C19937853   2.078   2.197   4.830 -0.1538 -0.7099 -0.3450
   68MOL   O20037854   2.208   2.228   4.863 -0.2627  0.0733 -0.6629
   68MOL   C20137855   2.006   2.307   4.763  1.4859 -0.3304  0.6448
   68MOL   C20237856   2.015   2.446   4.804 -0.5417  0.0230 -0.1375
   68MOL   C20337857   1.950   2.545   4.724  0.5013  1.0779 -0.8532
   68MOL   C20437858   1.952   2.683   4.764  0.7272 -0.9994 -0.0346
   68MOL   C20537859   1.899   2.781   4.679 -0.5225  0.4282 -0.5865
   68MOL   C20637860   1.845   2.746   4.554 -0.4777  0.0869 -0.1578
   68MOL   C20737861   1.803   2.857   4.472 -0.0464 -0.2808 -0.0379
   68MOL   O20837862   1.916   2.911   4.413  0.1696 -0.1446 -0.0270
   68MOL   C20937863   1.897   3.047   4.366  0.5782  0.1552  0.1532
   68MOL   C21037864   1.901   3.135   4.493  0.0305 -1.0133  0.3705
   68MOL   O21137865   1.683   2.891   4.461  0.1212 -0.2851  0.3741
   68MOL   C21237866   1.826   2.608   4.522  0.1825 -0.6243 -0.2277
   68MOL   C21337867   1.882   2.511   4.601 -0.1836  0.3186 -0.1084
   68MOL   C21437868   1.871   2.374   4.568  0.2903 -0.0715  0.4046
   68MOL   C21537869   1.938   2.277   4.640 -0.6497 -0.1762  0.4074
   68MOL   H21637870   2.062   2.478   4.895 -2.4447  1.3939  0.4016
   68MOL   H21737871   1.993   2.724   4.856  0.0553 -0.7908  0.1751
   68MOL   H21837872   1.908   2.884   4.712  0.7426  0.5389 -1.2744
   68MOL   H21937873   1.806   3.060   4.307 -0.9126  1.5353  2.6878
   68MOL   H22037874   1.973   3.085   4.298 -1.2249  1.1940 -1.3287
   68MOL   H22137875   1.906   3.242   4.471  1.3943 -0.4504  3.0567
   68MOL   H22237876   1.810   3.128   4.554 -1.0936  1.1870 -0.9898
   68MOL   H22337877   1.779   2.574   4.431 -1.3721  0.6045  0.0887
   68MOL   H22437878   1.836   2.358   4.466 -0.6023 -0.1882  0.7240
   68MOL   H22537879   1.931   2.173   4.610 -0.2035  0.4008 -1.7709
   68MOL   O22637880   2.153   3.219   4.441 -0.0361 -0.4526 -0.2979
   68MOL   C22737881   2.129   3.149   4.541 -0.0507 -0.8069  0.2264
   68MOL   O22837882   2.012   3.112   4.575  0.0167  0.3061  0.2305
   68MOL   C22937883   2.240   3.098   4.623  0.0052 -0.4444  1.0910
   68MOL   C23037884   2.226   3.058   4.760  0.2062 -0.2641 -0.2693
   68MOL   C23137885   2.338   3.008   4.831 -0.4645 -0.3184 -0.0694
   68MOL   C23237886   2.325   2.963   4.959 -0.3304 -0.4347  0.3719
   68MOL   C23337887   2.441   2.919   5.030  0.5666  0.1454  0.3440
   68MOL   C23437888   2.568   2.928   4.973  0.2196 -0.2787 -0.2614
   68MOL   C23537889   2.689   2.885   5.046  0.0925  0.1591 -0.1126
   68MOL   O23637890   2.676   2.881   5.180  0.2630 -0.0930 -0.3733
   68MOL   C23737891   2.787   2.847   5.265 -0.1205 -0.3798  0.6711
   68MOL   C23837892   2.793   2.695   5.279 -0.4644  0.4671 -0.1354
   68MOL   O23937893   2.793   2.857   4.988 -0.5903 -0.1249 -0.4312
   68MOL   C24037894   2.580   2.965   4.837  0.2152  0.3500 -0.4483
   68MOL   C24137895   2.466   3.012   4.772  0.3748  0.6370  0.1140
   68MOL   C24237896   2.486   3.049   4.645  0.2596 -0.0351  0.0810
   68MOL   C24337897   2.375   3.099   4.574  0.4467  0.0043 -0.0488
   68MOL   H24437898   2.129   3.068   4.806 -1.7245 -2.3948 -3.6388
   68MOL   H24537899   2.228   2.947   5.005 -0.4911 -2.3364 -0.5758
   68MOL   H24637900   2.434   2.866   5.124  3.4600  2.0091  1.6689
   68MOL   H24737901   2.759   2.880   5.365  1.6372  1.1108  0.6968
   68MOL   H24837902   2.884   2.892   5.242 -1.5446  2.7347  0.5620
   68MOL   H24937903   2.692   2.654   5.290 -0.2565 -0.0865 -0.2675
   68MOL   H25037904   2.843   2.650   5.194 -1.0336  1.7954 -1.2065
   68MOL   H25137905   2.672   2.955   4.781  0.5092 -2.5763  0.4564
   68MOL   H25237906   2.584   3.053   4.601  0.8881 -0.2906  1.4094
   68MOL   H25337907   2.393   3.136   4.474  3.2183  2.3973  1.2397
   68MOL   O25437908   2.718   2.713   5.558 -0.1315  0.0887  0.2435
   68MOL   C25537909   2.822   2.657   5.522  0.3755 -0.5436 -0.0020
   68MOL   O25637910   2.872   2.666   5.397  0.3749  0.4419  0.2209
   68MOL   C25737911   2.905   2.571   5.616  0.0738 -0.4256  0.0251
   68MOL   C25837912   2.988   2.471   5.565  0.4549 -0.1894  0.0477
   68MOL   C25937913   3.050   2.381   5.650 -0.4743  0.3618 -0.0734
   68MOL   C26037914   3.141   2.279   5.603  0.3045 -0.2571  0.7523
   68MOL   C26137915   3.208   2.200   5.698 -0.4160 -0.3902 -0.3418
   68MOL   C26237916   3.178   2.202   5.832 -0.2705  0.3973  0.7154
   68MOL   C26337917   3.247   2.124   5.934 -0.0676  0.8584 -0.1265
   68MOL   O26437918   3.193   2.148   6.060  0.0389  0.2840 -0.2346
   68MOL   C26537919   3.230   2.068   6.167 -0.2514 -0.6075 -0.2752
   68MOL   C26637920   3.305   2.139   6.290 -0.1863 -0.0914  0.3057
   68MOL   O26737921   3.333   2.043   5.903  0.0582  0.3468  0.2359
   68MOL   C26837922   3.094   2.307   5.880 -0.0482  0.2829 -0.0968
   68MOL   C26937923   3.031   2.390   5.789 -0.0080 -1.0426 -0.2241
   68MOL   C27037924   2.948   2.490   5.844 -0.3485  0.2916 -0.0968
   68MOL   C27137925   2.875   2.575   5.757  0.2410 -0.3619 -0.0688
   68MOL   H27237926   2.996   2.458   5.458 -0.1574 -0.0284 -0.0206
   68MOL   H27337927   3.172   2.268   5.501 -1.5624 -1.9561  0.3310
   68MOL   H27437928   3.283   2.129   5.666  0.1192  0.4175 -0.8814
   68MOL   H27537929   3.291   1.981   6.141  1.8083  1.0169 -1.0214
   68MOL   H27637930   3.145   2.024   6.219 -0.5804 -0.7839 -0.9589
   68MOL   H27737931   3.252   2.229   6.323  1.7508  1.4122 -0.5589
   68MOL   H27837932   3.293   2.080   6.381  1.2954 -1.0085 -0.0797
   68MOL   H27937933   3.081   2.326   5.985 -1.0757 -0.5261 -0.0724
   68MOL   H28037934   2.938   2.509   5.950  0.6069 -0.7734  0.1863
   68MOL   H28137935   2.806   2.644   5.803 -0.1340 -0.5054 -0.4098
   68MOL   O28237936   3.503   1.957   6.290  0.2548  0.3863  0.5315
   68MOL   C28337937   3.536   2.075   6.259  0.4261 -0.1678  0.4317
   68MOL   O28437938   3.443   2.175   6.256  0.1207  0.2894  0.5807
   68MOL   C28537939   3.665   2.123   6.218  0.2462  0.3299  0.0293
   68MOL   C28637940   3.695   2.257   6.189  0.4125  0.4004 -0.1375
   68MOL   C28737941   3.819   2.299   6.146  0.6220  0.7614 -0.2862
   68MOL   C28837942   3.847   2.435   6.112  0.1105 -0.0405  1.0982
   68MOL   C28937943   3.967   2.463   6.047 -0.1613  0.3564  0.2119
   68MOL   C29037944   4.067   2.368   6.026  0.0160 -0.6190 -0.0332
   68MOL   C29137945   4.188   2.412   5.965  0.1593  0.1124  0.1563
   68MOL   O29237946   4.257   2.310   5.908 -0.1867 -1.0132 -0.2492
   68MOL   C29337947   4.385   2.334   5.853  0.0177 -0.5367 -0.6637
   68MOL   C29437948   4.387   2.358   5.701  0.8568 -0.3246  0.5054
   68MOL   O29537949   4.226   2.529   5.956  0.2460  0.5129 -0.0339
   68MOL   C29637950   4.041   2.235   6.074 -0.1863 -1.0043  0.0898
   68MOL   C29737951   3.920   2.195   6.133 -0.0602 -0.2300 -0.4075
   68MOL   C29837952   3.898   2.061   6.162 -0.9094  0.4726  0.4901
   68MOL   C29937953   3.768   2.029   6.192 -1.1769 -0.3697 -0.6785
   68MOL   H30037954   3.620   2.334   6.201  0.6956  0.5497  0.7042
   68MOL   H30137955   3.771   2.512   6.111  0.5489  0.3884  0.4443
   68MOL   H30237956   3.984   2.563   6.011  0.5996  0.6792  1.4538
   68MOL   H30337957   4.457   2.254   5.872  1.9616  0.9357 -1.6012
   68MOL   H30437958   4.432   2.420   5.901  1.0990 -1.2363 -0.4421
   68MOL   H30537959   4.485   2.393   5.668  0.9754 -0.4117  0.7678
   68MOL   H30637960   4.357   2.274   5.637  0.5368  0.3356 -0.2218
   68MOL   H30737961   4.111   2.154   6.069 -0.0296 -1.3199  4.7326
   68MOL   H30837962   3.971   1.981   6.151 -1.8299 -0.1366 -1.2495
   68MOL   H30937963   3.749   1.924   6.213  0.1466 -0.5209 -0.1762
   68MOL   O31037964   4.344   2.459   5.458  0.2269  0.3210 -0.8300
   68MOL   C31137965   4.276   2.498   5.552  0.7620  0.1861  0.0124
   68MOL   O31237966   4.294   2.460   5.673 -0.5857  0.3651 -0.1896
   68MOL   C31337967   4.158   2.596   5.542  0.2298  0.0659 -0.5638
   68MOL   C31437968   4.057   2.598   5.636  0.1273  0.1048 -0.0326
   68MOL   C31537969   3.952   2.685   5.625  0.0773  0.3459 -0.4922
   68MOL   C31637970   3.853   2.676   5.724  0.4241 -0.6960 -0.3831
   68MOL   C31737971   3.737   2.759   5.710 -0.3965 -0.2138 -0.2399
   68MOL   C31837972   3.732   2.846   5.604  0.0810 -0.0563  0.1185
   68MOL   C31937973   3.627   2.948   5.607 -0.4857 -0.0686 -0.3266
   68MOL   O32037974   3.511   2.926   5.679  0.3859 -0.1072 -0.3490
   68MOL   C32137975   3.403   3.016   5.681 -0.0747 -0.4431  0.2956
   68MOL   C32237976   3.421   3.111   5.804  0.5080  0.5774  0.6371
   68MOL   O32337977   3.640   3.057   5.544  0.1517 -0.0622  0.0111
   68MOL   C32437978   3.835   2.862   5.508 -0.1823  0.0749 -0.1094
   68MOL   C32537979   3.944   2.773   5.516 -0.1100 -0.2257  0.4703
   68MOL   C32637980   4.038   2.771   5.410 -0.1436  0.2009  0.0107
   68MOL   C32737981   4.150   2.679   5.423  0.1967 -0.4084 -0.9448
   68MOL   H32837982   4.065   2.532   5.721 -3.0273  0.3509  0.5016
   68MOL   H32937983   3.871   2.606   5.804  0.6969  1.2804  1.3094
   68MOL   H33037984   3.664   2.776   5.789  0.4180  2.6824 -0.0416
   68MOL   H33137985   3.310   2.959   5.687 -0.2240 -0.7116 -3.4886
   68MOL   H33237986   3.393   3.071   5.588 -3.4889  0.4681  1.1338
   68MOL   H33337987   3.522   3.150   5.810  0.5361  0.3661  1.5136
   68MOL   H33437988   3.362   3.202   5.794  0.2507  0.6212  2.4443
   68MOL   H33537989   3.825   2.934   5.428  2.7557  0.0965 -0.5081
   68MOL   H33637990   4.023   2.837   5.326 -0.8524 -0.0081 -0.0329
   68MOL   H33737991   4.224   2.673   5.344  1.6570 -3.8745  0.5738
   68MOL   O33837992   3.216   3.173   5.984  0.1217  0.0321 -0.1421
   68MOL   C33937993   3.288   3.070   6.003 -0.7163  0.9715  0.9755
   68MOL   O34037994   3.395   3.043   5.927 -0.0276  0.5101 -0.0115
   68MOL   C34137995   3.263   2.964   6.097 -0.2169  0.5090 -0.2090
   68MOL   C34237996   3.352   2.852   6.106  0.4014  0.0546 -0.6169
   68MOL   C34337997   3.317   2.749   6.204 -0.1468  0.6744  0.7867
   68MOL   C34437998   3.412   2.644   6.235 -0.2173 -0.4053  0.0808
   68MOL   C34537999   3.385   2.550   6.337  0.5914  1.0830 -0.1011
   68MOL   C34638000   3.259   2.551   6.404 -0.7020 -0.1869 -0.6577
   68MOL   C34738001   3.215   2.443   6.497  0.6826  0.3200 -0.1546
   68MOL   O34838002   3.317   2.374   6.552 -0.0560  0.5270 -0.6039
   68MOL   C34938003   3.285   2.253   6.619 -1.2759 -0.6658 -0.0700
   68MOL   C35038004   3.203   2.257   6.752 -0.0321 -0.5100 -0.2870
   68MOL   O35138005   3.095   2.421   6.524 -0.0775  0.2112 -0.0155
   68MOL   C35238006   3.174   2.658   6.378  0.7115  0.1060  0.5200
   68MOL   C35338007   3.205   2.758   6.286  0.2224  0.1623  0.3093
   68MOL   C35438008   3.123   2.868   6.269  0.0139  0.9458  0.5729
   68MOL   C35538009   3.157   2.972   6.182 -0.0108 -0.4569 -0.1549
   68MOL   H35638010   3.437   2.838   6.042  1.3835 -1.8220  1.0461
   68MOL   H35738011   3.504   2.628   6.181  1.1899 -0.7901  2.4977
   68MOL   H35838012   3.456   2.471   6.356  0.6666  1.0820 -0.3872
   68MOL   H35938013   3.377   2.196   6.617  0.6811  2.3905 -1.3765
   68MOL   H36038014   3.238   2.181   6.552 -0.7579  0.5208 -1.7304
   68MOL   H36138015   3.212   2.346   6.814 -1.1873  0.8811 -2.0781
   68MOL   H36238016   3.096   2.256   6.733  0.3916 -1.8281 -2.7655
   68MOL   H36338017   3.082   2.666   6.434  1.0575 -2.9341  1.6283
   68MOL   H36438018   3.028   2.878   6.321 -0.2774  1.3660 -0.0334
   68MOL   H36538019   3.088   3.055   6.172  0.3844 -0.2074 -0.8597
   68MOL   O36638020   3.102   2.015   6.711  0.3078  0.3286 -0.2597
   68MOL   C36738021   3.183   2.027   6.799  0.2075 -0.0195  0.5128
   68MOL   O36838022   3.236   2.144   6.834  0.4072 -0.1062  0.3079
   68MOL   C36938023   3.239   1.916   6.876  0.1240  0.4869 -0.4056
   68MOL   C37038024   3.170   1.792   6.881 -0.3025  0.4394 -0.1842
   68MOL   C37138025   3.218   1.681   6.958  0.0439 -0.3113 -0.3392
   68MOL   C37238026   3.139   1.562   6.962  0.2488  0.2561  0.5234
   68MOL   C37338027   3.197   1.451   7.028 -0.2838  0.3999  0.3004
   68MOL   C37438028   3.328   1.457   7.087  0.1941  0.4726  0.5180
   68MOL   C37538029   3.385   1.339   7.157  0.0957 -0.5966 -0.0589
   68MOL   O37638030   3.307   1.237   7.155 -0.5001  0.5540  0.7437
   68MOL   C37738031   3.348   1.107   7.217 -0.3646 -0.5993 -0.1649
   68MOL   C37838032   3.296   1.092   7.360 -0.3376 -0.2655  0.3034
   68MOL   O37938033   3.501   1.330   7.202  0.0269 -0.3364 -0.6761
   68MOL   C38038034   3.403   1.578   7.086  0.4408  0.2761 -0.1666
   68MOL   C38138035   3.340   1.695   7.029  0.2960  0.8989 -0.0162
   68MOL   C38238036   3.411   1.817   7.024  0.6520  0.5530  0.6633
   68MOL   C38338037   3.363   1.927   6.952 -1.2455  0.6125  0.4163
   68MOL   H38438038   3.076   1.781   6.828 -1.1594 -2.2331  1.7758
   68MOL   H38538039   3.038   1.556   6.924 -0.1847  0.6712  1.5705
   68MOL   H38638040   3.144   1.357   7.029 -0.7448  0.6291  3.6228
   68MOL   H38738041   3.457   1.098   7.219 -0.3376 -0.7332 -1.3951
   68MOL   H38838042   3.303   1.035   7.149 -0.7047 -0.2050 -0.3590
   68MOL   H38938043   3.379   1.131   7.419  0.2082 -1.6704  0.5099
   68MOL   H39038044   3.220   1.165   7.385  0.8798  0.6033  1.5227
   68MOL   H39138045   3.501   1.597   7.128  1.2348  1.0340 -2.2855
   68MOL   H39238046   3.510   1.821   7.066  0.6662 -1.1199  0.8171
   68MOL   H39338047   3.422   2.017   6.947 -0.0625 -0.1759 -0.0558
   68MOL   O39438048   3.064   0.989   7.268  0.9452  0.4129  0.3184
   68MOL   C39538049   3.141   0.911   7.326  0.1287 -0.2648  0.0563
   68MOL   O39638050   3.260   0.951   7.376 -0.2634 -0.1408 -0.0890
   68MOL   C39738051   3.127   0.765   7.342  0.0925 -0.0194 -0.3788
   68MOL   C39838052   3.180   0.688   7.449  0.2281 -0.2099  0.0748
   68MOL   C39938053   3.180   0.547   7.449  0.3110 -0.0887  0.8421
   68MOL   C40038054   3.255   0.477   7.544  0.2447  0.1227  0.0718
   68MOL   C40138055   3.254   0.343   7.541 -1.0059  0.2460 -0.3553
   68MOL   C40238056   3.181   0.268   7.445 -0.5932  0.0698 -0.0583
   68MOL   C40338057   3.180   0.121   7.437  0.3278 -0.6362  0.0190
   68MOL   O40438058   3.092   0.070   7.353  0.5387  0.3396  0.7367
   68MOL   C40538059   3.057   8.177   7.356 -0.5164 -0.9588 -0.0538
   68MOL   C40638060   2.906   8.175   7.332  0.4639 -0.5698 -0.1175
   68MOL   O40738061   3.257   0.046   7.495 -0.4284  0.1577 -0.4176
   68MOL   C40838062   3.109   0.344   7.350 -0.1124 -0.8197  0.5132
   68MOL   C40938063   3.111   0.482   7.344  0.2310 -0.1666 -0.3136
   68MOL   C41038064   3.047   0.550   7.242 -0.2779  0.1241 -0.4579
   68MOL   C41138065   3.050   0.693   7.245 -0.1858 -0.0620 -0.4101
   68MOL   H41238066   3.233   0.751   7.519 -0.7043  1.3188 -0.5548
   68MOL   H41338067   3.307   0.529   7.623 -0.5844 -0.0033  0.7133
   68MOL   H41438068   3.304   0.286   7.617 -2.1026  0.9815  0.9508
   68MOL   H41538069   3.076   8.141   7.457 -0.5822  0.0564  0.3347
   68MOL   H41638070   3.095   8.113   7.277 -0.0530 -0.7495 -0.0062
   68MOL   H41738071   2.893   8.215   7.232  0.5572  0.0677  0.1206
   68MOL   H41838072   2.871   8.072   7.322 -0.2054 -0.4384  0.8427
   68MOL   H41938073   3.059   0.287   7.273 -0.2134 -0.6648  0.4635
   68MOL   H42038074   2.986   0.504   7.165 -0.7516  1.9149 -1.1787
   68MOL   H42138075   2.994   0.749   7.172  1.7202  0.9064 -1.1890
   68MOL   O42238076   2.771   0.177   7.308 -0.3414 -0.6136  0.2240
   68MOL   C42338077   2.771   0.119   7.413 -0.2557  0.4717 -0.1616
   68MOL   O42438078   2.838   0.001   7.439  0.4278 -0.5456  0.4665
   68MOL   C42538079   2.697   0.157   7.535  0.6557 -0.5963 -0.3855
   68MOL   C42638080   2.641   0.287   7.535  0.6872  0.3017  0.4582
   68MOL   C42738081   2.561   0.332   7.644  0.2241  0.5022  0.2917
   68MOL   C42838082   2.510   0.468   7.653  0.2118  0.0618 -0.0747
   68MOL   C42938083   2.424   0.499   7.762 -0.4551 -0.4923  0.4480
   68MOL   C43038084   2.398   0.411   7.866  0.6157  0.8678 -0.0215
   68MOL   C43138085   2.301   0.444   7.977  0.2135 -0.5077 -0.0239
   68MOL   O43238086   2.258   0.342   8.041 -0.3628  0.1278 -0.1883
   68MOL   C43338087   2.160   0.358   8.143  0.0968 -0.2089 -0.1776
   68MOL   C43438088   2.218   0.420   0.024  0.4352  0.0205 -0.0017
   68MOL   O43538089   2.271   0.564   8.003  0.2619  0.9835 -0.5872
   68MOL   C43638090   2.463   0.282   7.863 -0.2016 -0.4960 -0.1544
   68MOL   C43738091   2.542   0.246   7.755 -0.0871  0.0887 -0.1928
   68MOL   C43838092   2.593   0.118   7.758 -0.0393 -0.4047 -0.5808
   68MOL   C43938093   2.679   0.075   7.648  0.1060 -0.4303 -0.3537
   68MOL   H44038094   2.672   0.353   7.456  1.4934  0.1732  0.6634
   68MOL   H44138095   2.513   0.545   7.578  2.4604 -0.8305 -0.9390
   68MOL   H44238096   2.380   0.595   7.780  0.7331  0.0980  0.2445
   68MOL   H44338097   2.122   0.258   8.165  1.6043 -0.9781 -0.9885
   68MOL   H44438098   2.076   0.419   8.110  0.0033 -0.7414 -0.9401
   68MOL   H44538099   2.326   0.425   0.013  0.3938  0.1429 -0.3561
   68MOL   H44638100   2.193   0.523   0.049 -1.0572 -0.1166 -0.8469
   68MOL   H44738101   2.441   0.214   7.944 -2.1207 -0.9172 -0.9948
   68MOL   H44838102   2.582   0.061   7.848  2.3396 -0.9089 -0.5563
   68MOL   H44938103   2.728   8.228   7.655  0.0772 -0.4039  0.2265
   68MOL   O45038104   2.350   0.184   0.077  0.1827  0.6299  0.6261
   68MOL   C45138105   2.268   0.220   0.159  0.5981  0.9075  0.2061
   68MOL   O45238106   2.196   0.338   0.143  0.0031  0.6222 -0.2011
   68MOL   C45338107   2.227   0.142   0.275 -0.4808  0.3734  0.0298
   68MOL   C45438108   2.208   0.005   0.264  0.3805 -0.1805  0.6663
   68MOL   C45538109   2.154   8.178   0.375 -0.1163  1.4273 -0.0478
   68MOL   C45638110   2.123   8.040   0.354 -0.5404 -0.1101 -0.1446
   68MOL   C45738111   2.069   7.966   0.464  0.2656 -0.0786  0.1482
   68MOL   C45838112   2.042   8.027   0.588 -0.5772 -0.1667 -0.2934
   68MOL   C45938113   1.992   7.950   0.701  0.0481  1.0735 -0.1573
   68MOL   O46038114   1.989   8.014   0.815 -0.0487  0.2321  0.2375
   68MOL   C46138115   1.968   7.940   0.936 -0.5642  0.2644  0.1659
   68MOL   C46238116   1.958   8.015   1.066  0.0415 -0.2779 -0.4827
   68MOL   O46338117   1.942   7.835   0.686  0.3195  0.2418  0.2587
   68MOL   C46438118   2.067   8.165   0.601 -0.3949 -0.2619  0.4844
   68MOL   C46538119   2.130   8.237   0.498  0.2224  0.5970 -0.4950
   68MOL   C46638120   2.144   0.127   0.508 -0.6180  0.3184  0.0840
   68MOL   C46738121   2.200   0.207   0.399  0.7446 -0.3743  0.9184
   68MOL   H46838122   2.224   8.220   0.163  0.2845  0.0719  0.5644
   68MOL   H46938123   2.143   7.994   0.258 -0.4922 -0.2162 -0.0842
   68MOL   H47038124   2.062   7.858   0.459  1.9461 -0.2338  0.5361
   68MOL   H47138125   2.043   7.864   0.956 -0.3191  0.9421  1.9496
   68MOL   H47238126   1.874   7.884   0.938  1.0815 -2.5594  2.1117
   68MOL   H47338127   1.985   7.954   1.152 -0.6944 -0.5232 -0.4237
   68MOL   H47438128   2.030   8.095   1.054 -2.0573  1.6627 -0.3356
   68MOL   H47538129   2.023   8.217   0.685  0.6845  1.4685  0.0208
   68MOL   H47638130   2.123   0.182   0.599 -0.0950  0.9407 -0.1692
   68MOL   H47738131   2.221   0.311   0.421 -0.9984  0.3663 -0.7182
   68MOL   O47838132   1.878   8.162   1.273 -0.0562  0.0636  0.6369
   68MOL   C47938133   1.794   8.130   1.190 -0.5782 -0.3267 -0.3406
   68MOL   O48038134   1.827   8.067   1.079 -0.4093 -0.6597 -0.5121
   68MOL   C48138135   1.649   8.167   1.205 -0.1901  0.1086  0.7886
   68MOL   C48238136   1.607   8.230   1.324 -0.0333 -0.0881 -0.2845
   68MOL   C48338137   1.472   0.005   1.347 -0.1031  0.1356  0.5133
   68MOL   C48438138   1.421   0.056   1.468 -0.6028  0.7576 -0.2203
   68MOL   C48538139   1.285   0.065   1.498  1.4769  0.2822 -0.0501
   68MOL   C48638140   1.190   0.031   1.399  0.0905  0.5843  0.5205
   68MOL   C48738141   1.042   0.033   1.428 -0.4362 -0.3775  0.6031
   68MOL   O48838142   1.007   0.090   1.553  0.3884  0.3083 -0.3460
   68MOL   C48938143   0.874   0.072   1.594 -0.5126 -0.2089  0.2663
   68MOL   C49038144   0.792   0.196   1.570  0.0883  0.2456 -0.0372
   68MOL   O49138145   0.962   8.244   1.346  0.0189  0.2108  0.6004
   68MOL   C49238146   1.236   8.229   1.274 -0.3149  0.5514 -0.0051
   68MOL   C49338147   1.373   8.214   1.252 -0.1115 -0.3446 -0.4726
   68MOL   C49438148   1.418   8.170   1.124  0.5342 -0.0488 -0.7443
   68MOL   C49538149   1.551   8.150   1.103 -0.0029 -0.1063  0.2075
   68MOL   H49638150   1.677   0.007   1.402  2.7413 -0.0095 -2.6979
   68MOL   H49738151   1.494   0.099   1.535 -0.5005  0.3970 -0.1020
   68MOL   H49838152   1.256   0.120   1.586  1.6774  1.0070 -0.4271
   68MOL   H49938153   0.887   0.044   1.698 -0.1316  1.1085  0.5718
   68MOL   H50038154   0.830   8.232   1.547  0.2525 -1.2133  1.4235
   68MOL   H50138155   0.697   0.187   1.623  1.0520 -2.7086  1.2695
   68MOL   H50238156   0.853   0.282   1.600  0.7424  0.6986 -2.5957
   68MOL   H50338157   1.161   8.194   1.205  0.7864 -0.9283 -0.4632
   68MOL   H50438158   1.346   8.148   1.048  0.2334 -0.7586 -0.2579
   68MOL   H50538159   1.587   8.128   1.004 -0.9130  0.6726 -0.3034
   68MOL   O50638160   0.671   0.408   1.470  0.6263 -0.1965 -0.2171
   68MOL   C50738161   0.705   0.321   1.393 -0.2690 -0.0881  0.6812
   68MOL   O50838162   0.758   0.208   1.436 -0.1529  0.5441  0.1809
   68MOL   C50938163   0.674   0.327   1.245 -0.5553 -0.4986  0.1586
   68MOL   C51038164   0.596   0.433   1.191  0.0793  0.0270 -0.1765
   68MOL   C51138165   0.567   0.436   1.054  1.4789  0.0657 -0.4226
   68MOL   C51238166   0.482   0.536   0.998 -0.5111 -0.1797 -0.3792
   68MOL   C51338167   0.444   0.524   0.865  0.4690 -0.8327  0.0524
   68MOL   C51438168   0.495   0.419   0.779  0.2468  0.1654  0.3739
   68MOL   C51538169   0.452   0.422   0.641 -0.7928  0.3357  0.3322
   68MOL   O51638170   0.502   0.315   0.574  0.5361  0.5309  0.4950
   68MOL   C51738171   0.460   0.285   0.441 -0.0467 -0.2360  0.2422
   68MOL   C51838172   0.513   0.383   0.331  0.0708  0.6918 -0.5762
   68MOL   O51938173   0.388   0.511   0.589 -0.2906 -0.3228  0.1665
   68MOL   C52038174   0.590   0.326   0.832 -0.1216  0.5601 -0.3336
   68MOL   C52138175   0.615   0.336   0.972 -0.6292 -0.6697  0.0974
   68MOL   C52238176   0.704   0.239   1.021  0.0135  0.3386 -0.2501
   68MOL   C52338177   0.736   0.232   1.159  0.2117 -0.6873 -0.8660
   68MOL   H52438178   0.572   0.510   1.262  0.8882  0.6565 -0.5817
   68MOL   H52538179   0.444   0.616   1.060  0.5881 -1.0744  1.5245
   68MOL   H52638180   0.372   0.594   0.828  0.9398 -0.1179  0.4741
   68MOL   H52738181   0.352   0.275   0.430 -0.1293  0.8143  0.0408
   68MOL   H52838182   0.492   0.182   0.423  0.1903 -0.0338 -0.5055
   68MOL   H52938183   0.458   0.476   0.313 -1.1420 -0.1338 -1.1991
   68MOL   H53038184   0.604   0.427   0.373  1.6340 -2.7921 -0.2135
   68MOL   H53138185   0.626   0.249   0.766 -0.6809  0.0862 -0.0934
   68MOL   H53238186   0.747   0.168   0.952  0.9537 -0.3223  1.0016
   68MOL   H53338187   0.799   0.150   1.190  0.2597 -0.2251  0.2716
   68MOL   O53438188   0.740   0.243   0.278  0.0719  0.4156  0.1019
   68MOL   C53538189   0.657   0.256   0.190  0.8508  0.1666  0.1350
   68MOL   O53638190   0.534   0.313   0.207 -0.4332  0.1906 -0.4254
   68MOL   C53738191   0.680   0.204   0.050  0.5098  0.6188  0.3028
   68MOL   C53838192   0.575   0.183   8.204 -0.3428  0.2166  0.1884
   68MOL   C53938193   0.609   0.142   8.074 -0.1517  0.1386  0.5376
   68MOL   C54038194   0.509   0.130   7.982  0.1587  0.3208 -0.3304
   68MOL   C54138195   0.540   0.075   7.855 -0.5847  0.2222 -0.4188
   68MOL   C54238196   0.676   0.051   7.820 -0.2156  0.2529  0.8900
   68MOL   C54338197   0.707   0.005   7.685  0.7375 -1.0035 -0.3032
   68MOL   O54438198   0.837   8.240   7.661  0.1920 -0.1528 -0.1898
   68MOL   C54538199   0.884   8.214   7.525 -0.0036 -0.0931  1.0816
   68MOL   C54638200   1.038   8.203   7.555 -0.0968 -0.4162 -0.3693
   68MOL   O54738201   0.616   8.213   7.612  0.2037  0.1960  0.0746
   68MOL   C54838202   0.779   0.084   7.904  0.9393 -0.1210  0.1601
   68MOL   C54938203   0.745   0.122   8.034 -0.5823 -0.0368  0.4607
   68MOL   C55038204   0.843   0.136   8.132 -1.0710 -0.0517 -0.0520
   68MOL   C55138205   0.806   0.166   0.013  0.4920 -0.1028  0.7877
   68MOL   H55238206   0.475   0.202   8.241 -1.2015  1.5197 -2.6670
   68MOL   H55338207   0.402   0.141   7.998  0.1591  0.2102 -0.2515
   68MOL   H55438208   0.466   0.057   7.778  0.2316 -2.0130 -0.6963
   68MOL   H55538209   0.860   0.045   7.455  1.8999 -0.0959  0.3822
   68MOL   H55638210   0.824   8.131   7.489 -0.2903  0.1285  1.0502
   68MOL   H55738211   1.063   8.135   7.637  0.8287 -0.8284 -0.9920
   68MOL   H55838212   1.081   0.049   7.585 -2.0336  0.7835 -1.3083
   68MOL   H55938213   0.882   0.058   7.884  0.3748 -1.0041 -1.7594
   68MOL   H56038214   0.946   0.126   8.098 -1.1931 -0.4752 -0.3077
   68MOL   H56138215   0.885   0.165   0.088  1.4068 -0.3846 -0.1654
   68MOL   H56238216   1.088   8.164   7.467  0.5372  1.3383 -0.8036
   69MOL     O138217   3.976   4.120   0.169  0.5133  0.0132  0.2758
   69MOL     C238218   3.864   4.075   0.207 -0.7553  0.3272 -0.1140
   69MOL     O338219   3.766   4.153   0.249  0.6079  0.4778  0.2344
   69MOL     C438220   3.824   3.931   0.185 -0.3346  0.4534 -0.1590
   69MOL     C538221   3.923   3.831   0.169  0.4098  0.0396  0.3323
   69MOL     C638222   3.878   3.692   0.149 -0.7246 -0.0149 -0.0913
   69MOL     C738223   3.974   3.591   0.126  0.0037 -0.2210 -0.1127
   69MOL     C838224   3.931   3.457   0.106 -0.2063  0.0378  0.0691
   69MOL     C938225   3.798   3.417   0.125  0.7404 -0.1492 -0.8597
   69MOL    C1038226   3.761   3.275   0.118 -0.0739  0.5253 -0.0466
   69MOL    O1138227   3.624   3.260   0.124  0.2383  0.2192 -0.1722
   69MOL    C1238228   3.565   3.127   0.115 -0.1203  0.1440 -0.7237
   69MOL    C1338229   3.596   3.018   0.224 -0.6544 -0.4933 -0.1233
   69MOL    O1438230   3.840   3.187   0.102 -0.6439  0.1721 -0.0868
   69MOL    C1538231   3.698   3.520   0.146 -0.0612  0.3110 -0.2867
   69MOL    C1638232   3.741   3.656   0.155 -0.5491 -0.2275 -0.3435
   69MOL    C1738233   3.647   3.760   0.169 -0.0227  0.0637  0.9396
   69MOL    C1838234   3.689   3.892   0.187 -0.5452 -0.6042 -0.2824
   69MOL    H1938235   4.026   3.862   0.174  0.2417  0.5856  0.4553
   69MOL    H2038236   4.077   3.622   0.122 -0.1021  0.2095  0.4279
   69MOL    H2138237   4.002   3.382   0.074 -0.6038 -0.1484 -0.3787
   69MOL    H2238238   3.457   3.145   0.111 -0.3665 -0.8828  0.7710
   69MOL    H2338239   3.599   3.087   0.020 -2.0927 -1.8234 -0.6383
   69MOL    H2438240   3.703   3.017   0.246 -1.0285  2.3177  2.0897
   69MOL    H2538241   3.547   3.057   0.313  1.5821  0.8863  0.5416
   69MOL    H2638242   3.596   3.493   0.165 -0.8131  3.5033  0.5249
   69MOL    H2738243   3.541   3.742   0.175 -0.2071  0.4935 -0.6760
   69MOL    H2838244   3.615   3.968   0.206 -0.4887 -0.9703  1.5499
   69MOL    H2938245   3.788   4.242   0.273 -0.4867  1.3163 -1.7960
   69MOL    O3038246   3.345   2.918   0.261 -0.2347 -0.2277 -0.2678
   69MOL    C3138247   3.436   2.846   0.215 -0.1942  0.7318 -0.2152
   69MOL    O3238248   3.554   2.889   0.183 -0.2840 -0.1590  0.1662
   69MOL    C3338249   3.412   2.701   0.192 -0.3321  0.1447  0.5150
   69MOL    C3438250   3.508   2.605   0.240 -0.9373 -0.5370  1.1623
   69MOL    C3538251   3.472   2.473   0.243  0.6203 -0.1795  0.0012
   69MOL    C3638252   3.569   2.371   0.276  0.3427 -0.1098 -0.0121
   69MOL    C3738253   3.535   2.234   0.272  0.8367 -0.1791 -0.3570
   69MOL    C3838254   3.404   2.198   0.236 -0.5963  0.5120  0.2808
   69MOL    C3938255   3.368   2.051   0.220 -0.4154 -0.4239  0.0162
   69MOL    O4038256   3.467   1.968   0.266  0.3935  0.4980 -0.1376
   69MOL    C4138257   3.448   1.826   0.252 -0.2180  0.0114 -0.3256
   69MOL    C4238258   3.552   1.767   0.158  0.0357  0.2931  0.4321
   69MOL    O4338259   3.255   2.019   0.189  0.3027 -0.5826 -0.5970
   69MOL    C4438260   3.308   2.296   0.200  0.2328 -0.0448 -0.3410
   69MOL    C4538261   3.343   2.434   0.198  0.1402  0.3268  0.0701
   69MOL    C4638262   3.247   2.528   0.151  0.1396 -1.2071 -0.5667
   69MOL    C4738263   3.288   2.662   0.139  0.4808 -0.5996  1.3292
   69MOL    H4838264   3.606   2.635   0.276  0.3673  1.8743 -3.9332
   69MOL    H4938265   3.670   2.391   0.310  0.7843 -3.2144  0.5996
   69MOL    H5038266   3.617   2.164   0.279  2.0046  1.2399  0.4652
   69MOL    H5138267   3.352   1.792   0.211 -0.1320  0.9999 -1.3761
   69MOL    H5238268   3.454   1.783   0.352 -0.0900  0.4073 -0.1623
   69MOL    H5338269   3.530   1.752   0.052 -0.1034  0.8604  0.3813
   69MOL    H5438270   3.636   1.835   0.149  0.6576 -0.4035  0.9413
   69MOL    H5538271   3.209   2.271   0.165  0.3553  1.0796 -1.5357
   69MOL    H5638272   3.144   2.509   0.123 -0.0344 -2.0918  0.6528
   69MOL    H5738273   3.221   2.741   0.108 -0.4516 -1.7532  0.3237
   69MOL    O5838274   3.562   1.492   0.095  0.2422  0.3789 -0.1213
   69MOL    C5938275   3.582   1.532   0.204  0.6383 -0.8539  0.2715
   69MOL    O6038276   3.608   1.656   0.232 -0.1006  0.5091 -0.2116
   69MOL    C6138277   3.611   1.443   0.323  0.3766  0.2744 -0.4755
   69MOL    C6238278   3.591   1.502   0.449  0.3312 -0.7198 -0.0404
   69MOL    C6338279   3.612   1.422   0.562  0.7948  0.1750 -0.0761
   69MOL    C6438280   3.592   1.480   0.684 -0.2233  0.2769 -0.7653
   69MOL    C6538281   3.607   1.408   0.803  0.7758  0.1341  0.6389
   69MOL    C6638282   3.652   1.271   0.798  0.4634  0.4265 -0.0295
   69MOL    C6738283   3.656   1.175   0.910  0.4068 -0.1076 -0.1799
   69MOL    O6838284   3.627   1.241   1.020 -0.0447  0.6069 -0.1736
   69MOL    C6938285   3.610   1.176   1.148 -0.5974  0.2109 -0.4273
   69MOL    C7038286   3.728   1.205   1.236 -0.1558  1.3595  0.0945
   69MOL    O7138287   3.684   1.053   0.904  0.2471 -0.2509  0.1003
   69MOL    C7238288   3.681   1.212   0.673 -0.0060 -0.4324  0.4864
   69MOL    C7338289   3.659   1.288   0.554  0.6132  0.0119 -0.2521
   69MOL    C7438290   3.678   1.228   0.426 -0.6474  0.5182 -0.4968
   69MOL    C7538291   3.664   1.312   0.313  0.3684  0.6523  0.1084
   69MOL    H7638292   3.554   1.602   0.465  1.4778 -0.0983 -1.1920
   69MOL    H7738293   3.576   1.586   0.697  1.5417  0.4419  0.2611
   69MOL    H7838294   3.588   1.463   0.894 -0.0076 -0.5055  0.8630
   69MOL    H7938295   3.572   1.075   1.139  0.8953 -0.2476 -1.9673
   69MOL    H8038296   3.530   1.217   1.209  1.0610  0.7189  1.4460
   69MOL    H8138297   3.783   1.294   1.207  0.4270  0.8190 -0.4764
   69MOL    H8238298   3.696   1.234   1.336  0.6985  0.4553  0.6453
   69MOL    H8338299   3.725   1.115   0.659  1.7245  0.5158 -0.9566
   69MOL    H8438300   3.711   1.128   0.403 -0.6176  1.2489 -3.7782
   69MOL    H8538301   3.676   1.261   0.219 -1.8528  0.6184 -0.1880
   69MOL    O8638302   3.833   1.072   1.453 -0.9751  0.5423 -0.4069
   69MOL    C8738303   3.865   1.037   1.342 -0.8476  0.2748  0.3284
   69MOL    O8838304   3.828   1.101   1.232  0.1343  0.5066  0.3804
   69MOL    C8938305   3.946   0.912   1.325  0.3164 -0.2370 -0.7016
   69MOL    C9038306   4.023   0.865   1.436  0.3575  0.9952  0.8054
   69MOL    C9138307   4.080   0.739   1.433  0.2427  0.5522  0.4764
   69MOL    C9238308   4.159   0.694   1.541  0.6431 -0.3808 -1.0529
   69MOL    C9338309   4.217   0.568   1.542  0.0467  0.1882 -0.1836
   69MOL    C9438310   4.197   0.483   1.429 -0.1637 -0.0949  0.6062
   69MOL    C9538311   4.258   0.352   1.427 -0.6128  0.6850  0.9114
   69MOL    O9638312   4.157   0.261   1.425 -0.3751  0.9227 -0.4364
   69MOL    C9738313   4.178   0.122   1.448  0.2089 -0.4522 -0.1295
   69MOL    C9838314   4.165   0.097   1.601 -0.1747 -0.2746 -0.1850
   69MOL    O9938315   4.377   0.324   1.431 -0.2995 -0.1273 -0.1910
   69MOL   C10038316   4.121   0.523   1.316  0.9046 -0.4742  1.0975
   69MOL   C10138317   4.062   0.654   1.320  0.6619  0.0868  0.2965
   69MOL   C10238318   3.988   0.702   1.210 -0.7387 -0.0898 -0.2677
   69MOL   C10338319   3.927   0.827   1.214  0.4281 -0.4117 -0.2190
   69MOL   H10438320   4.053   0.931   1.515  1.7516 -1.7898  2.6970
   69MOL   H10538321   4.179   0.765   1.621  0.2116 -0.6079 -0.7386
   69MOL   H10638322   4.270   0.558   1.635 -3.0859  1.1528  1.7971
   69MOL   H10738323   4.277   0.098   1.408  1.4742  1.1272  2.0013
   69MOL   H10838324   4.104   0.068   1.389 -1.0515  0.6685  0.3948
   69MOL   H10938325   4.177   8.238   1.612 -0.3308 -0.4926 -1.8809
   69MOL   H11038326   4.248   0.150   1.648  0.1338 -1.6905  0.8847
   69MOL   H11138327   4.114   0.457   1.231 -0.8294  1.6615 -0.4403
   69MOL   H11238328   3.972   0.637   1.125  2.6282  1.6868 -2.3503
   69MOL   H11338329   3.852   0.860   1.144 -0.3338 -1.1074  0.2629
   69MOL   O11438330   4.150   0.331   1.749 -0.2948 -0.1182  0.5113
   69MOL   C11538331   4.049   0.262   1.739  0.4017  1.0082  0.0150
   69MOL   O11638332   4.052   0.142   1.675  0.4236  0.1719  0.0099
   69MOL   C11738333   3.918   0.299   1.777 -0.0255 -0.6286 -0.2501
   69MOL   C11838334   3.897   0.436   1.809 -0.7911  0.2951  0.6106
   69MOL   C11938335   3.768   0.480   1.837  0.0327  0.5806  0.1300
   69MOL   C12038336   3.749   0.616   1.856  0.3015 -0.5154  0.1598
   69MOL   C12138337   3.618   0.666   1.894 -0.7870 -0.7258  0.2701
   69MOL   C12238338   3.509   0.578   1.897  0.5691  0.6430 -0.3017
   69MOL   C12338339   3.372   0.629   1.933  0.1584  0.0270 -0.0067
   69MOL   O12438340   3.275   0.546   1.884  0.6063 -0.1105 -0.5685
   69MOL   C12538341   3.140   0.561   1.930 -0.6089  0.4344 -0.4892
   69MOL   C12638342   3.120   0.476   2.056 -0.0681 -0.0659 -0.0038
   69MOL   O12738343   3.345   0.735   1.983  0.1781 -0.3375 -0.7044
   69MOL   C12838344   3.532   0.440   1.875  0.0546 -0.6037  0.5351
   69MOL   C12938345   3.661   0.389   1.846 -0.3446  0.0165 -0.5510
   69MOL   C13038346   3.683   0.254   1.830  0.2889 -0.4323  0.0355
   69MOL   C13138347   3.815   0.209   1.803 -0.3311  0.1954  0.9457
   69MOL   H13238348   3.973   0.510   1.790  0.1058 -1.5342 -3.6569
   69MOL   H13338349   3.827   0.691   1.857 -1.3270  1.2174  1.6088
   69MOL   H13438350   3.594   0.770   1.908 -0.3384 -0.2091 -2.5004
   69MOL   H13538351   3.083   0.521   1.847  0.3119 -3.8375  0.8384
   69MOL   H13638352   3.111   0.666   1.937 -0.8577  0.2359  1.8763
   69MOL   H13738353   3.200   0.507   2.123 -0.3192  1.6980 -0.4987
   69MOL   H13838354   3.027   0.473   2.114 -0.9254  1.2238 -1.2933
   69MOL   H13938355   3.448   0.373   1.878 -0.4091 -0.1062 -0.8909
   69MOL   H14038356   3.608   0.179   1.851 -0.1763  0.2593  0.8613
   69MOL   H14138357   3.841   0.105   1.795 -0.7102  0.1826 -0.2453
   69MOL   O14238358   2.930   0.312   1.940 -0.5894 -0.2014  0.4322
   69MOL   C14338359   3.045   0.267   1.956  0.7868 -0.1806  0.6047
   69MOL   O14438360   3.146   0.345   2.012  0.0309 -0.1173 -0.3317
   69MOL   C14538361   3.088   0.136   1.906 -0.6785  0.2230  0.2261
   69MOL   C14638362   2.995   0.035   1.861  0.2255  0.1092 -0.3018
   69MOL   C14738363   3.032   8.160   1.822 -0.5422 -0.1580 -0.0752
   69MOL   C14838364   2.935   8.074   1.775 -0.0917  0.2594  0.2551
   69MOL   C14938365   2.969   7.941   1.730 -0.6046 -0.0918 -0.3115
   69MOL   C15038366   3.107   7.905   1.724  0.2299  0.4746  0.0610
   69MOL   C15138367   3.156   7.778   1.665 -0.5701 -0.5201 -0.4480
   69MOL   O15238368   3.054   7.712   1.604 -0.3950  0.1253 -0.5592
   69MOL   C15338369   3.085   7.598   1.526  0.6332  0.0789 -0.0903
   69MOL   C15438370   3.184   7.631   1.412  0.2708  0.3689  0.0853
   69MOL   O15538371   3.271   7.737   1.677  0.0414 -0.1014  0.6392
   69MOL   C15638372   3.204   7.992   1.780  0.5531 -0.5281  0.1625
   69MOL   C15738373   3.165   8.117   1.827 -0.0856 -0.7998  0.2289
   69MOL   C15838374   3.261   8.210   1.872  0.0313 -0.0375 -0.1888
   69MOL   C15938375   3.222   0.091   1.913 -0.0451 -0.8069  1.0480
   69MOL   H16038376   2.889   0.052   1.875  0.3316  0.4642  0.0715
   69MOL   H16138377   2.832   8.109   1.772 -0.6591 -1.2201  1.4900
   69MOL   H16238378   2.889   7.878   1.693 -2.8442  1.6729  1.3615
   69MOL   H16338379   2.996   7.564   1.473 -0.4745  0.3357  1.5413
   69MOL   H16438380   3.125   7.521   1.593  3.6732  2.4456  0.9455
   69MOL   H16538381   3.272   7.650   1.473 -0.3577 -0.3048  1.2019
   69MOL   H16638382   3.208   7.549   1.344  1.4759  0.9555 -0.2194
   69MOL   H16738383   3.306   7.958   1.770  0.7703  0.4236 -1.0160
   69MOL   H16838384   3.366   8.188   1.887 -0.4579 -2.5935 -0.2974
   69MOL   H16938385   3.295   0.165   1.945  0.6977 -1.0612 -0.0304
   69MOL   O17038386   3.134   7.652   1.140  0.2908 -0.9928  0.4686
   69MOL   C17138387   3.128   7.752   1.213  0.0965  0.0621 -0.1611
   69MOL   O17238388   3.145   7.749   1.345  0.0689 -0.4026  0.1736
   69MOL   C17338389   3.098   7.893   1.166  0.6098  0.6412 -0.4548
   69MOL   C17438390   3.125   8.006   1.246  0.2065  0.1050 -0.7606
   69MOL   C17538391   3.083   8.135   1.202  0.0783 -0.5840 -0.4487
   69MOL   C17638392   3.098   8.245   1.288  0.9216 -0.4673 -0.1881
   69MOL   C17738393   3.060   0.122   1.253 -0.2299  0.1214 -0.4437
   69MOL   C17838394   2.988   0.141   1.132 -0.0797  0.5100  0.3121
   69MOL   C17938395   2.942   0.279   1.096 -0.6025  0.4051 -0.3888
   69MOL   O18038396   2.898   0.343   1.209 -0.0644  0.2792 -0.1134
   69MOL   C18138397   2.861   0.483   1.202  0.7917 -0.7704  0.2206
   69MOL   C18238398   2.984   0.574   1.193 -0.0805 -0.1178 -0.7148
   69MOL   O18338399   2.928   0.320   0.980  0.1023  0.2539  0.4372
   69MOL   C18438400   2.972   0.029   1.040  0.0853 -0.6814  0.4738
   69MOL   C18538401   3.020   8.152   1.079 -0.6073 -0.6478 -0.4377
   69MOL   C18638402   2.990   8.039   0.999  0.0250 -0.4254  0.2899
   69MOL   C18738403   3.029   7.912   1.044  0.1417  0.5291  0.6006
   69MOL   H18838404   3.183   7.994   1.336 -0.2582 -0.1189 -0.4922
   69MOL   H18938405   3.152   8.234   1.380 -0.6720  0.9486  0.9429
   69MOL   H19038406   3.068   0.202   1.326  2.1549 -0.0449 -0.5023
   69MOL   H19138407   2.797   0.512   1.285 -0.4078  1.3631 -1.3919
   69MOL   H19238408   2.801   0.506   1.114  0.3729 -0.3352  0.6141
   69MOL   H19338409   3.036   0.552   1.286  0.4569 -0.7857 -1.1801
   69MOL   H19438410   3.054   0.542   1.116  2.4212  0.8057  1.1075
   69MOL   H19538411   2.932   0.024   0.940  3.3038  0.7489 -0.9640
   69MOL   H19638412   2.940   8.051   0.904  1.3296  0.7695 -0.2593
   69MOL   H19738413   3.004   7.824   0.987 -1.2086  0.8036  0.7632
   69MOL   O19838414   2.916   0.723   0.967  0.5163 -0.6587  0.2924
   69MOL   C19938415   2.926   0.777   1.079 -0.1324  0.0992  0.2385
   69MOL   O20038416   2.962   0.715   1.192 -0.3268 -0.0890 -0.5595
   69MOL   C20138417   2.905   0.926   1.104 -0.3846  0.5421 -1.2392
   69MOL   C20238418   2.897   0.984   1.230  0.4680 -0.0770 -0.8193
   69MOL   C20338419   2.864   1.116   1.252  0.1205  0.1421 -0.1232
   69MOL   C20438420   2.860   1.169   1.379 -0.6130  0.5187 -0.2793
   69MOL   C20538421   2.825   1.300   1.404  0.6648  0.2239  0.0173
   69MOL   C20638422   2.798   1.390   1.296  0.7960 -0.6632 -0.1699
   69MOL   C20738423   2.750   1.533   1.324  0.6149  0.3255  0.3057
   69MOL   O20838424   2.768   1.612   1.221  0.1861 -0.8337  0.1198
   69MOL   C20938425   2.715   1.745   1.216  0.0181 -1.0559 -0.5308
   69MOL   C21038426   2.565   1.732   1.192 -0.1580 -0.4596  0.1069
   69MOL   O21138427   2.715   1.577   1.438  0.0775 -0.3797 -0.1196
   69MOL   C21238428   2.806   1.346   1.165 -0.2481  0.1613 -0.1038
   69MOL   C21338429   2.837   1.205   1.145  0.4680 -0.1469  0.1249
   69MOL   C21438430   2.841   1.147   1.013  0.4714 -0.0843 -0.8701
   69MOL   C21538431   2.868   1.007   0.998 -0.9177  0.0875  0.2648
   69MOL   H21638432   2.926   0.929   1.318 -1.0689 -1.0015 -0.8731
   69MOL   H21738433   2.884   1.101   1.460 -2.0136 -1.6179 -1.6129
   69MOL   H21838434   2.813   1.326   1.508  0.2068 -1.2603  0.3402
   69MOL   H21938435   2.764   1.797   1.134 -2.1885  0.3865 -0.9719
   69MOL   H22038436   2.730   1.794   1.313  0.7079 -1.5318 -0.3873
   69MOL   H22138437   2.510   1.699   1.281  2.3044  0.7425  2.1177
   69MOL   H22238438   2.532   1.836   1.181  2.5499  0.7366  2.4609
   69MOL   H22338439   2.797   1.411   1.079 -1.9202  0.0114 -0.0431
   69MOL   H22438440   2.826   1.213   0.929 -1.3843 -0.5976 -0.9572
   69MOL   H22538441   2.866   0.973   0.895 -0.5439 -2.0439  0.9427
   69MOL   O22638442   2.543   1.838   0.941 -0.2930 -0.4159  0.4119
   69MOL   C22738443   2.536   1.718   0.958  0.6511 -0.5768  0.7980
   69MOL   O22838444   2.538   1.658   1.076  0.4414  0.5782 -0.4743
   69MOL   C22938445   2.512   1.621   0.847 -0.8123 -0.0681  0.2680
   69MOL   C23038446   2.544   1.485   0.876  0.4716  0.1464  0.3805
   69MOL   C23138447   2.529   1.385   0.772  0.1927  0.8784 -0.3669
   69MOL   C23238448   2.549   1.251   0.803 -0.5321 -0.0231  0.0260
   69MOL   C23338449   2.517   1.148   0.714  0.6378  0.2274 -0.2386
   69MOL   C23438450   2.470   1.187   0.583  0.7196  0.5295 -0.0083
   69MOL   C23538451   2.428   1.087   0.484  0.3950 -0.6117  0.2962
   69MOL   O23638452   2.456   0.961   0.513  0.1895  0.2077 -0.2685
   69MOL   C23738453   2.417   0.855   0.434 -0.3012  0.6072 -0.2841
   69MOL   C23838454   2.265   0.822   0.421  0.5596  0.2763  0.3147
   69MOL   O23938455   2.382   1.120   0.372 -0.5565  0.5274 -0.2884
   69MOL   C24038456   2.458   1.324   0.548  0.5096  0.0518 -0.3990
   69MOL   C24138457   2.490   1.419   0.646  0.2707  0.1238  0.0564
   69MOL   C24238458   2.473   1.561   0.614 -0.0865  0.0493 -0.3888
   69MOL   C24338459   2.489   1.659   0.714 -0.3546  0.0404  1.2920
   69MOL   H24438460   2.575   1.458   0.976 -0.4823 -1.8046  0.1663
   69MOL   H24538461   2.591   1.223   0.898  1.7975 -0.3841 -1.0789
   69MOL   H24638462   2.529   1.045   0.743  1.4018  0.5580  0.6482
   69MOL   H24738463   2.468   0.763   0.462 -0.5833  0.8211  0.9613
   69MOL   H24838464   2.459   0.888   0.339  0.0805  0.7780 -0.0576
   69MOL   H24938465   2.207   0.911   0.395 -1.6187 -1.6389 -1.6678
   69MOL   H25038466   2.243   0.752   0.340  0.7677  1.6927 -0.9833
   69MOL   H25138467   2.429   1.348   0.447  1.8208 -0.3325 -0.8852
   69MOL   H25238468   2.445   1.598   0.516  0.3430 -0.5022 -0.7241
   69MOL   H25338469   2.473   1.762   0.688 -1.4699 -0.2126  0.9422
   69MOL   O25438470   2.203   0.569   0.472 -0.5291 -0.1391  0.4456
   69MOL   C25538471   2.218   0.641   0.570  0.8560 -0.4838  0.0001
   69MOL   O25638472   2.220   0.772   0.550 -0.6266 -0.6140 -0.2429
   69MOL   C25738473   2.217   0.604   0.719 -0.1075  0.1551  0.2577
   69MOL   C25838474   2.181   0.471   0.752 -0.5471 -0.3659  0.5029
   69MOL   C25938475   2.162   0.430   0.881 -0.5640 -0.0350 -0.2535
   69MOL   C26038476   2.139   0.297   0.910 -0.7153  0.5733  0.0753
   69MOL   C26138477   2.117   0.252   1.042  0.7649  0.1784 -0.3286
   69MOL   C26238478   2.121   0.352   1.148 -0.0583  1.1430 -0.1032
   69MOL   C26338479   2.090   0.307   1.288  0.1613  0.7176 -0.6997
   69MOL   O26438480   2.059   0.179   1.304 -0.0361  0.5754 -0.0174
   69MOL   C26538481   2.026   0.134   1.436  0.2682 -0.1889  0.2318
   69MOL   C26638482   2.156   0.104   1.520 -0.0594 -0.2650 -0.1020
   69MOL   O26738483   2.098   0.393   1.380  0.0380 -0.0104  0.0428
   69MOL   C26838484   2.162   0.485   1.116  0.0484  0.8254  0.1519
   69MOL   C26938485   2.182   0.524   0.986  0.0731 -0.5849 -0.6821
   69MOL   C27038486   2.218   0.660   0.956  0.4033  0.4258 -0.1350
   69MOL   C27138487   2.237   0.699   0.822  0.3390 -0.3851  0.4485
   69MOL   H27238488   2.169   0.395   0.676  1.6560 -0.5458  0.2868
   69MOL   H27338489   2.118   0.226   0.831 -0.0476 -0.5164  0.8671
   69MOL   H27438490   2.094   0.148   1.059 -1.9370  0.2396 -3.2999
   69MOL   H27538491   1.976   0.038   1.437  0.0930 -0.1161 -0.8377
   69MOL   H27638492   1.963   0.203   1.492  0.0392 -1.5318  1.6500
   69MOL   H27738493   2.214   0.190   1.554  2.8201 -1.6264 -1.4227
   69MOL   H27838494   2.117   0.057   1.611 -2.1598  0.7280 -0.4674
   69MOL   H27938495   2.152   0.560   1.193  0.8946 -1.3716  2.5244
   69MOL   H28038496   2.232   0.732   1.035  0.7467 -2.8394  2.8740
   69MOL   H28138497   2.245   0.804   0.800  1.5090 -1.1336 -2.9221
   69MOL   O28238498   2.157   8.075   1.505 -0.3699  0.3457 -0.9955
   69MOL   C28338499   2.216   8.145   1.423 -0.8022  0.7688 -0.1522
   69MOL   O28438500   2.239   0.024   1.440 -0.0646 -0.0320  0.0625
   69MOL   C28538501   2.262   8.092   1.298 -0.1667  0.1943  0.1392
   69MOL   C28638502   2.289   8.174   1.187 -0.7093 -0.6045 -0.2880
   69MOL   C28738503   2.302   8.113   1.057 -0.0347 -0.3051  0.0650
   69MOL   C28838504   2.333   8.190   0.946 -0.2654  0.5707 -0.3904
   69MOL   C28938505   2.358   8.131   0.814  0.2877 -0.5624 -0.0909
   69MOL   C29038506   2.355   7.990   0.808 -0.8251  0.6073  0.3705
   69MOL   C29138507   2.371   7.923   0.674 -0.3677 -0.2548 -0.0596
   69MOL   O29238508   2.314   7.800   0.677  0.4457  0.6665  0.1939
   69MOL   C29338509   2.315   7.718   0.558 -0.1308  0.4614  0.2774
   69MOL   C29438510   2.458   7.655   0.529 -0.5875  0.1301  0.1083
   69MOL   O29538511   2.412   7.973   0.568  0.3682  0.0880 -0.1010
   69MOL   C29638512   2.325   7.913   0.921 -0.6782  0.3077  0.1972
   69MOL   C29738513   2.293   7.977   1.041 -0.3802 -0.0625 -0.2869
   69MOL   C29838514   2.272   7.891   1.146  0.2205  0.2623 -0.0737
   69MOL   C29938515   2.247   7.950   1.275  0.2108 -0.1246 -0.3104
   69MOL   H30038516   2.290   0.033   1.190 -1.8282 -0.5663 -1.1857
   69MOL   H30138517   2.342   0.048   0.958 -1.6585  0.5393  1.0271
   69MOL   H30238518   2.372   8.186   0.722  1.0573  0.4068  0.5960
   69MOL   H30338519   2.261   7.756   0.472 -1.2653 -1.5387  0.0716
   69MOL   H30438520   2.248   7.637   0.588 -0.0355 -0.0842 -0.9798
   69MOL   H30538521   2.461   7.587   0.443 -0.2600 -0.1969  0.3752
   69MOL   H30638522   2.529   7.736   0.510 -1.9313  1.1855 -0.4379
   69MOL   H30738523   2.328   7.807   0.902 -1.5516  0.5443 -1.3277
   69MOL   H30838524   2.256   7.786   1.128 -0.7706  0.6692 -1.6602
   69MOL   H30938525   2.218   7.881   1.353  3.0522  0.3791  1.2743
   69MOL   O31038526   2.620   7.755   0.741  0.1462 -0.1844  0.4762
   69MOL   C31138527   2.595   7.634   0.730  0.1414  0.1425  0.0479
   69MOL   O31238528   2.512   7.581   0.634  0.0921  0.0739 -0.0017
   69MOL   C31338529   2.658   7.531   0.816 -0.6468 -0.5489  0.2767
   69MOL   C31438530   2.622   7.397   0.818 -0.2902 -0.0832  1.0008
   69MOL   C31538531   2.689   7.305   0.897 -0.3296  0.4686  0.4986
   69MOL   C31638532   2.646   7.171   0.893  0.2056 -0.7007  1.1044
   69MOL   C31738533   2.710   7.073   0.965 -0.5918 -0.3016 -0.5051
   69MOL   C31838534   2.818   7.114   1.046 -0.2083  0.2301  0.5711
   69MOL   C31938535   2.892   7.007   1.120 -0.1334 -0.3909  0.1738
   69MOL   O32038536   2.833   6.890   1.113 -0.0327  0.4305  0.1915
   69MOL   C32138537   2.891   6.770   1.157  0.3037 -0.1355  0.2669
   69MOL   C32238538   2.931   6.693   1.027  0.6984 -0.0758 -0.3952
   69MOL   O32338539   3.003   7.023   1.183  0.3545 -0.2666  0.8674
   69MOL   C32438540   2.861   7.251   1.061  0.2856  0.7648  0.0802
   69MOL   C32538541   2.798   7.344   0.979  0.4673  0.7621 -0.4939
   69MOL   C32638542   2.836   7.478   0.977  0.3155 -0.5115 -0.2668
   69MOL   C32738543   2.771   7.572   0.895 -0.1667  1.4729 -0.3436
   69MOL   H32838544   2.534   7.363   0.765  0.7274 -0.6373 -0.3624
   69MOL   H32938545   2.562   7.141   0.832  1.0138 -0.2797 -0.2235
   69MOL   H33038546   2.666   6.974   0.969 -0.2411 -0.4260  0.4284
   69MOL   H33138547   2.812   6.713   1.206 -1.3523  2.8541  1.2029
   69MOL   H33238548   2.983   6.789   1.213 -0.1181  1.3460  0.4855
   69MOL   H33338549   2.975   6.598   1.057  1.5503  0.6432  0.6991
   69MOL   H33438550   2.840   6.673   0.970  0.3345  1.3379 -0.3270
   69MOL   H33538551   2.935   7.280   1.133  2.1062 -1.9703 -0.6496
   69MOL   H33638552   2.919   7.515   1.034  0.9089  1.2641 -2.2189
   69MOL   H33738553   2.810   7.671   0.880 -2.3862  2.1054 -2.2153
   69MOL   O33838554   2.887   6.809   0.794 -0.0376 -0.1796  0.5969
   69MOL   C33938555   3.003   6.809   0.836 -0.1734 -0.3415  0.1240
   69MOL   O34038556   3.035   6.762   0.956  0.0099  0.4870 -0.4249
   69MOL   C34138557   3.118   6.888   0.772  0.0783 -0.3814  0.0099
   69MOL   C34238558   3.248   6.839   0.770  0.3110  0.5204 -0.8044
   69MOL   C34338559   3.357   6.917   0.722 -0.5517  0.4034 -0.1594
   69MOL   C34438560   3.489   6.867   0.716 -0.3467 -0.0612 -0.3259
   69MOL   C34538561   3.599   6.951   0.684  0.4267 -0.0742  0.0566
   69MOL   C34638562   3.571   7.079   0.642 -0.0558 -0.7108 -0.3334
   69MOL   C34738563   3.690   7.160   0.601 -0.1930 -0.2397 -0.5380
   69MOL   O34838564   3.659   7.273   0.545 -0.0105  0.3166 -0.7077
   69MOL   C34938565   3.762   7.358   0.507 -0.0933 -0.5589 -0.1068
   69MOL   C35038566   3.799   7.353   0.357 -0.0666 -0.4972  0.2848
   69MOL   O35138567   3.805   7.120   0.610 -0.4219 -0.1303 -0.5524
   69MOL   C35238568   3.438   7.126   0.635  0.2597  0.0821  0.4739
   69MOL   C35338569   3.333   7.044   0.676  0.1425 -0.6089  0.3499
   69MOL   C35438570   3.201   7.089   0.665 -0.7030 -0.7915 -0.2757
   69MOL   C35538571   3.094   7.019   0.717  0.6598 -0.3090 -0.8568
   69MOL   H35638572   3.263   6.734   0.791 -0.6472  0.3094 -1.1575
   69MOL   H35738573   3.509   6.764   0.743  1.3732 -0.3339 -2.5326
   69MOL   H35838574   3.697   6.908   0.696  0.4522  0.3131  1.2936
   69MOL   H35938575   3.857   7.346   0.560 -0.7255  1.3829  1.5457
   69MOL   H36038576   3.739   7.461   0.534  0.3543 -0.2882 -0.7442
   69MOL   H36138577   3.807   7.249   0.325 -1.7277 -0.7945  0.7844
   69MOL   H36238578   3.721   7.392   0.290  0.3681 -2.7738 -1.5924
   69MOL   H36338579   3.413   7.227   0.607  0.2382  0.0060  0.2253
   69MOL   H36438580   3.182   7.191   0.633 -1.9770 -0.9578 -0.0481
   69MOL   H36538581   2.992   7.053   0.717  0.7970  0.1281  0.6352
   69MOL   O36638582   3.832   7.607   0.301 -0.3343 -0.0101  0.2545
   69MOL   C36738583   3.928   7.529   0.291 -0.1701  0.0094 -0.0450
   69MOL   O36838584   3.924   7.401   0.321  0.5530  0.1704  0.1074
   69MOL   C36938585   4.055   7.579   0.225  0.1494  0.5412 -0.1566
   69MOL   C37038586   4.142   7.481   0.171  0.4525  0.2985 -0.5741
   69MOL   C37138587   4.269   7.522   0.122  0.2159  0.2298 -0.7727
   69MOL   C37238588   4.366   7.428   0.074  0.1105 -0.4240 -0.6999
   69MOL   C37338589   4.489   7.474   0.034  0.0673  0.6062 -0.0023
   69MOL   C37438590   4.529   7.614   0.035 -0.5178 -0.6359 -0.0710
   69MOL   C37538591   4.672   7.651   0.016 -0.7633 -0.0617  0.8778
   69MOL   O37638592   4.682   7.780   0.003  0.0816 -0.0530 -0.1294
   69MOL   C37738593   4.805   7.838   8.217  0.0588 -0.8674 -0.0154
   69MOL   C37838594   4.890   7.862   0.097  0.5540 -0.4538 -0.0748
   69MOL   O37938595   4.764   7.569   0.014  0.6794 -0.0711 -0.7704
   69MOL   C38038596   4.428   7.703   0.072 -0.4390 -0.4743  0.0292
   69MOL   C38138597   4.303   7.660   0.116  0.2277  0.1797  0.2376
   69MOL   C38238598   4.214   7.755   0.168  0.0122  0.5448 -0.2639
   69MOL   C38338599   4.091   7.719   0.224  0.0048  0.3494 -0.1319
   69MOL   H38438600   4.119   7.376   0.172  0.9054  0.1893 -1.2775
   69MOL   H38538601   4.341   7.323   0.069 -0.3575 -0.2540 -2.4365
   69MOL   H38638602   4.563   7.408   8.242 -0.2549 -0.1419  0.6194
   69MOL   H38738603   4.788   7.938   8.178  0.2567 -1.8662 -2.7766
   69MOL   H38838604   4.873   7.783   8.152 -1.2904 -3.1339  0.4408
   69MOL   H38938605   4.824   7.906   0.171 -0.3331 -2.6930  0.5092
   69MOL   H39038606   4.922   7.762   0.126  0.1071 -1.1694 -1.9782
   69MOL   H39138607   4.443   7.810   0.069 -1.1758 -0.4129 -2.2648
   69MOL   H39238608   4.237   7.861   0.173  0.0127  0.5566 -0.4986
   69MOL   H39338609   4.032   7.799   0.266 -1.7011 -0.8057 -0.2933
   69MOL   O39438610   5.152   7.785   0.018 -0.3140 -0.4200  0.5479
   69MOL   C39538611   5.119   7.901   0.042  0.5639 -0.1465 -0.9366
   69MOL   O39638612   4.998   7.947   0.068 -0.0118  0.0422  0.4590
   69MOL   C39738613   5.206   8.018   0.016  0.1702  0.3021 -0.6118
   69MOL   C39838614   5.340   7.993   8.234  0.0133  0.1912  0.8429
   69MOL   C39938615   5.425   8.101   8.211  1.2244  0.3214 -0.3877
   69MOL   C40038616   5.556   8.081   8.170  0.0276 -0.3959 -0.0358
   69MOL   C40138617   5.646   8.191   8.151  0.3161 -0.7313  0.0244
   69MOL   C40238618   5.605   0.071   8.182 -0.5787  0.0448 -0.5886
   69MOL   C40338619   5.707   0.174   8.165 -0.7994 -0.0752 -0.4260
   69MOL   O40438620   5.686   0.282   8.245  0.1248 -0.6068 -0.0151
   69MOL   C40538621   5.779   0.389   0.005  0.3811  0.2508 -0.8494
   69MOL   C40638622   5.750   0.491   8.145 -0.1912 -0.2073  0.5406
   69MOL   O40738623   5.806   0.159   8.093  0.2388 -0.1682  0.1448
   69MOL   C40838624   5.470   0.093   8.217 -0.3181 -0.0585 -0.0040
   69MOL   C40938625   5.380   8.229   8.231 -0.4631 -0.9196  0.2694
   69MOL   C41038626   5.251   0.004   0.018  0.6117  0.6950  0.1318
   69MOL   C41138627   5.159   8.148   0.026  0.3067 -0.1006 -0.2851
   69MOL   H41238628   5.371   7.889   8.231  1.4897  0.6656 -0.6685
   69MOL   H41338629   5.597   7.982   8.162  0.3083 -0.2760 -0.0888
   69MOL   H41438630   5.742   8.173   8.105 -0.6947 -0.8682 -2.1189
   69MOL   H41538631   5.880   0.349   8.245 -0.0872 -1.2112  0.2282
   69MOL   H41638632   5.756   0.426   0.105 -0.7531 -0.5175 -0.8252
   69MOL   H41738633   5.814   0.576   8.165  0.1907 -0.1136 -1.0156
   69MOL   H41838634   5.767   0.452   8.044  1.9892 -0.8248  1.1200
   69MOL   H41938635   5.442   0.196   8.234  0.4310  0.3475 -1.1176
   69MOL   H42038636   5.204   0.101   0.022 -2.1318 -0.6632  1.8025
   69MOL   H42138637   5.056   8.175   0.040  0.2904 -1.1741  1.9467
   69MOL   O42238638   5.624   0.642   0.107 -0.1093  0.7566  0.0837
   69MOL   C42338639   5.565   0.605   0.008 -0.0870 -1.1892  0.7416
   69MOL   O42438640   5.622   0.549   8.151 -0.2725 -0.0974 -0.2911
   69MOL   C42538641   5.416   0.619   8.235 -0.4311 -0.5631 -0.0269
   69MOL   C42638642   5.332   0.670   0.086 -0.0282  0.5629 -0.3767
   69MOL   C42738643   5.194   0.689   0.063 -0.4596 -0.2091 -0.0026
   69MOL   C42838644   5.113   0.733   0.167 -0.2509  0.4616 -0.0909
   69MOL   C42938645   4.974   0.739   0.146  0.1849 -0.4523 -0.1702
   69MOL   C43038646   4.918   0.684   0.031 -0.1856 -0.2438  0.1079
   69MOL   C43138647   4.770   0.668   0.020 -0.1258  0.5123 -0.0941
   69MOL   O43238648   4.703   0.673   0.133  0.2711  0.3658 -0.1066
   69MOL   C43338649   4.561   0.647   0.125 -0.4999  0.2733 -0.5111
   69MOL   C43438650   4.525   0.578   0.257 -0.0745 -0.5899 -0.0290
   69MOL   O43538651   4.715   0.644   8.160 -0.3625  0.3474  0.1896
   69MOL   C43638652   4.998   0.645   8.171  0.0482  0.3247 -0.1285
   69MOL   C43738653   5.139   0.646   8.186  0.2083  0.5227 -0.3218
   69MOL   C43838654   5.221   0.597   8.083 -0.1927  0.3386  0.1140
   69MOL   C43938655   5.358   0.594   8.102  0.0871 -0.3656  0.2855
   69MOL   H44038656   5.376   0.692   0.183  1.0318 -1.4448 -0.3756
   69MOL   H44138657   5.149   0.759   0.265  0.6781  0.5437 -0.4519
   69MOL   H44238658   4.912   0.771   0.228  1.6210  1.6585  0.1512
   69MOL   H44338659   4.528   0.586   0.041 -2.0089 -1.7650  1.4919
   69MOL   H44438660   4.514   0.745   0.112  0.1998  0.3542 -2.4937
   69MOL   H44538661   4.542   0.646   0.341 -0.5979  1.9527 -1.9019
   69MOL   H44638662   4.418   0.555   0.259 -0.2521  0.2829  1.1114
   69MOL   H44738663   4.955   0.602   8.082 -0.9631  1.3540 -0.1569
   69MOL   H44838664   5.179   0.574   7.986  1.8219 -0.1010 -0.6801
   69MOL   H44938665   5.418   0.572   8.015  1.2927 -0.7270  1.2005
   69MOL   O45038666   4.437   0.336   0.360 -0.3240 -0.2290 -0.0101
   69MOL   C45138667   4.549   0.347   0.316  0.3774  0.1446  0.4163
   69MOL   O45238668   4.599   0.463   0.275 -0.1152  0.0888 -0.3863
   69MOL   C45338669   4.651   0.243   0.305  0.3152  0.5278 -0.2370
   69MOL   C45438670   4.790   0.267   0.288 -0.6285 -0.3263  0.9810
   69MOL   C45538671   4.887   0.169   0.289  1.1075 -0.1916  0.1969
   69MOL   C45638672   5.023   0.196   0.280 -0.5081 -0.0449 -0.0002
   69MOL   C45738673   5.122   0.098   0.299  0.1192  0.4515  0.1342
   69MOL   C45838674   5.085   8.213   0.326  0.0100  0.1020 -1.0907
   69MOL   C45938675   5.189   8.098   0.347  0.3909  0.6584  0.0408
   69MOL   O46038676   5.320   8.129   0.340 -0.1176 -0.1525 -0.3273
   69MOL   C46138677   5.419   8.030   0.366  0.5302  0.0637 -0.1960
   69MOL   C46238678   5.553   8.098   0.329  0.1673  0.2427  0.8352
   69MOL   O46338679   5.149   7.988   0.370  0.5115 -0.4516  0.0855
   69MOL   C46438680   4.943   8.183   0.321  0.8016 -0.4335 -0.5467
   69MOL   C46538681   4.842   0.032   0.306 -0.1770 -0.0384 -0.3770
   69MOL   C46638682   4.701   0.005   0.303 -0.1452  0.2798 -0.2812
   69MOL   C46738683   4.606   0.109   0.306 -0.1231 -0.4551  0.2364
   69MOL   H46838684   4.818   0.370   0.269 -0.0176 -0.7150 -0.2395
   69MOL   H46938685   5.050   0.297   0.254  0.9534 -1.4200 -4.0959
   69MOL   H47038686   5.226   0.124   0.306  0.0941  0.9855 -1.3337
   69MOL   H47138687   5.395   7.940   0.310  0.2700  0.1876 -0.2870
   69MOL   H47238688   5.415   8.006   0.472  0.8069 -2.4799 -0.7479
   69MOL   H47338689   5.636   8.032   0.351  1.7570  1.3269 -1.7037
   69MOL   H47438690   5.565   8.104   0.221 -0.9005 -2.6477  0.5272
   69MOL   H47538691   4.912   8.080   0.327 -0.3468  0.0161  2.0187
   69MOL   H47638692   4.672   8.150   0.301  0.5986  0.0842 -2.8635
   69MOL   H47738693   4.500   0.087   0.310 -0.2326 -0.2895 -1.6224
   69MOL   O47838694   5.629   8.182   0.586  0.3777  0.6753  0.1045
   69MOL   C47938695   5.628   0.010   0.494 -0.0372 -0.2427  0.2451
   69MOL   O48038696   5.577   8.232   0.376 -0.4179  0.3470 -0.0600
   69MOL   C48138697   5.678   0.150   0.506  0.6141 -0.3016 -0.0839
   69MOL   C48238698   5.779   0.183   0.592  0.0624  0.4229  0.2330
   69MOL   C48338699   5.812   0.318   0.614 -0.2622 -0.6975 -0.1488
   69MOL   C48438700   5.906   0.363   0.710 -0.1649  0.2172 -0.1150
   69MOL   C48538701   5.940   0.495   0.719  0.8871 -0.8064 -0.2887
   69MOL   C48638702   5.878   0.593   0.643  0.6710 -0.3642 -0.2812
   69MOL   C48738703   5.937   0.726   0.639  0.1281  1.3072 -0.2869
   69MOL   O48838704   5.858   0.815   0.582 -0.2258  0.5267  0.3388
   69MOL   C48938705   5.909   0.948   0.575 -0.1868  0.6749  0.7290
   69MOL   C49038706   5.947   0.997   0.430  0.3087  0.0180 -0.0973
   69MOL   O49138707   6.050   0.749   0.688  0.8371  0.0520 -0.1200
   69MOL   C49238708   5.780   0.551   0.550 -0.0574 -0.4069  0.4169
   69MOL   C49338709   5.751   0.418   0.529  0.0899  0.9973 -0.2503
   69MOL   C49438710   5.661   0.382   0.432  0.7921 -0.5555 -0.0839
   69MOL   C49538711   5.623   0.249   0.421 -0.5157 -0.0806  0.7002
   69MOL   H49638712   5.830   0.114   0.658  2.1587  0.3253 -1.4485
   69MOL   H49738713   5.967   0.300   0.773  0.7042  1.2398  0.0836
   69MOL   H49838714   6.020   0.522   0.785  0.8147  1.4255 -1.0790
   69MOL   H49938715   5.999   0.957   0.637  1.4828 -0.7352 -1.4250
   69MOL   H50038716   5.834   1.018   0.610  2.3079  3.6232  0.3625
   69MOL   H50138717   5.967   0.913   0.363 -2.6598 -0.0052 -1.0344
   69MOL   H50238718   5.862   1.050   0.385 -0.3950 -0.4511  0.6644
   69MOL   H50338719   5.724   0.617   0.486  0.7169  1.6662  1.8611
   69MOL   H50438720   5.610   0.450   0.365  0.8791 -2.2451 -1.9473
   69MOL   H50538721   5.548   0.223   0.347 -2.4995  0.2288  2.5468
   69MOL   O50638722   5.980   1.273   0.538 -0.8087  0.8801  0.1288
   69MOL   C50738723   6.073   1.209   0.481  0.1015  0.0362 -0.2533
   69MOL   O50838724   6.064   1.082   0.430 -0.4471 -0.8875  0.2218
   69MOL   C50938725   6.214   1.256   0.474 -0.5042  0.1401 -0.0595
   69MOL   C51038726   6.303   1.202   0.372 -0.5346 -0.3357  0.2683
   69MOL   C51138727   6.426   1.263   0.345  0.2274 -0.1254 -0.2486
   69MOL   C51238728   6.516   1.210   0.252  0.2223 -0.4402  0.1161
   69MOL   C51338729   6.630   1.283   0.217 -0.0001 -0.2287 -0.1177
   69MOL   C51438730   6.665   1.405   0.280  0.0684  0.7268 -0.2420
   69MOL   C51538731   6.798   1.477   0.253  0.0798  0.1811  0.0858
   69MOL   O51638732   6.881   1.399   0.181  0.1278 -0.2213 -0.9458
   69MOL   C51738733   7.017   1.439   0.156 -0.8318 -0.5722 -0.4007
   69MOL   C51838734   7.096   1.311   0.172  0.3610  0.0683 -0.5941
   69MOL   O51938735   6.824   1.584   0.303  0.0689  0.1263 -0.5924
   69MOL   C52038736   6.575   1.449   0.382  0.1919 -0.3868  0.3206
   69MOL   C52138737   6.463   1.380   0.418  0.2062 -0.0014  0.2010
   69MOL   C52238738   6.380   1.431   0.522  0.2687 -0.7782 -0.4554
   69MOL   C52338739   6.255   1.369   0.545  0.2658  0.3495  0.1116
   69MOL   H52438740   6.262   1.129   0.304 -1.6203  1.3845 -0.9746
   69MOL   H52538741   6.486   1.120   0.200 -3.2443  0.6619  0.1100
   69MOL   H52638742   6.696   1.243   0.141  2.5779  1.8032  0.9475
   69MOL   H52738743   7.052   1.507   0.234  0.4268 -0.5699 -0.9494
   69MOL   H52838744   7.044   1.474   0.057 -0.4426  0.9062  0.2107
   69MOL   H52938745   7.199   1.332   0.142 -0.0418  0.7270 -1.5632
   69MOL   H53038746   7.091   1.278   0.276  1.7124  0.8427 -0.2638
   69MOL   H53138747   6.606   1.534   0.441 -0.2973  0.0950 -0.1078
   69MOL   H53238748   6.410   1.512   0.586  0.3250 -0.8731 -0.3608
   69MOL   H53338749   6.190   1.411   0.620  0.9235  0.5371  0.5790
   69MOL   O53438750   7.202   1.201   8.184 -0.3878 -0.2117  0.2468
   69MOL   C53538751   7.087   1.174   8.221  0.2707 -0.2257  0.2844
   69MOL   O53638752   7.028   1.210   0.089 -0.1690 -0.6740 -0.2709
   69MOL   C53738753   6.989   1.097   8.149  0.0747  1.0850 -0.8451
   69MOL   C53838754   6.858   1.064   8.196  0.3208 -0.4227 -0.0200
   69MOL   C53938755   6.771   0.984   8.124  0.4481 -0.6736  0.9876
   69MOL   C54038756   6.640   0.965   8.174 -0.3875  0.3455  0.3601
   69MOL   C54138757   6.548   0.891   8.093  0.1975 -0.3823  0.0217
   69MOL   C54238758   6.586   0.843   7.966 -0.3005 -0.4081  0.1082
   69MOL   C54338759   6.492   0.769   7.875  0.3859 -0.1351  0.2669
   69MOL   O54438760   6.368   0.783   7.923 -0.4308  0.1853  0.3879
   69MOL   C54538761   6.264   0.722   7.847  0.7029  0.0534  0.2848
   69MOL   C54638762   6.129   0.775   7.886  0.5479  0.4694  0.3648
   69MOL   O54738763   6.533   0.702   7.780  0.4204 -0.0411  0.2232
   69MOL   C54838764   6.718   0.869   7.915 -0.0663  0.8085 -0.6294
   69MOL   C54938765   6.812   0.937   7.996  0.2857  0.0624 -0.0782
   69MOL   C55038766   6.938   0.966   7.943 -0.5713  0.1141 -0.5100
   69MOL   C55138767   7.033   1.041   8.025 -0.5788  0.0209 -0.0982
   69MOL   H55238768   6.814   1.093   0.042 -0.4110 -1.5452 -0.0147
   69MOL   H55338769   6.614   1.013   0.019  2.0912  1.0168  0.7279
   69MOL   H55438770   6.443   0.890   8.120  0.3244 -1.3646  0.5137
   69MOL   H55538771   6.271   0.613   7.857 -0.3497 -0.1091 -0.7023
   69MOL   H55638772   6.277   0.750   7.743 -1.0326 -2.7498 -0.7620
   69MOL   H55738773   6.051   0.711   7.845  0.0362  0.9940  0.5003
   69MOL   H55838774   6.112   0.876   7.848 -1.9915  0.3258  1.0130
   69MOL   H55938775   6.759   0.819   7.828  0.1289  2.4194 -1.4862
   69MOL   H56038776   6.970   0.937   7.844  1.6960  1.8946 -0.3529
   69MOL   H56138777   7.134   1.064   7.996 -0.2122 -1.7181 -0.2199
   69MOL   H56238778   6.139   0.787   7.994  3.4535 -3.7287  0.6828
   70MOL     O138779   5.963   6.267   7.438  0.1954  0.2199  0.0860
   70MOL     C238780   5.887   6.238   7.531 -0.8539 -0.1567  0.3600
   70MOL     O338781   5.749   6.233   7.504  0.3933 -0.6097 -0.0159
   70MOL     C438782   5.922   6.231   7.681  0.5703  0.4011  0.9551
   70MOL     C538783   5.830   6.158   7.766 -0.2825 -0.5710 -0.2693
   70MOL     C638784   5.862   6.128   7.900 -0.1995  0.7072  0.5713
   70MOL     C738785   5.778   6.058   7.988  0.0600 -0.1456 -0.1848
   70MOL     C838786   5.808   6.046   8.124  0.7600 -0.2529  0.3364
   70MOL     C938787   5.933   6.089   8.176 -0.0710 -0.1652  0.5095
   70MOL    C1038788   5.965   6.048   0.070 -0.2336 -0.2654  0.1151
   70MOL    O1138789   6.101   6.058   0.090  0.5274  0.1586  0.5587
   70MOL    C1238790   6.150   6.034   0.221 -0.0243 -0.3910 -0.0290
   70MOL    C1338791   6.132   6.164   0.302  0.1813  0.2690 -0.6553
   70MOL    O1438792   5.885   6.005   0.149  0.3757  0.0161  0.3915
   70MOL    C1538793   6.024   6.144   8.083  0.8560  0.7516  0.2784
   70MOL    C1638794   5.995   6.167   7.946 -0.3545 -0.2512 -0.5052
   70MOL    C1738795   6.082   6.240   7.865  0.2577  0.4528  0.7944
   70MOL    C1838796   6.052   6.268   7.727 -0.1849 -0.1545  0.1440
   70MOL    H1938797   5.733   6.133   7.725  0.6572 -2.2362 -1.5400
   70MOL    H2038798   5.688   6.015   7.948 -1.0840  2.0024  0.0039
   70MOL    H2138799   5.730   6.000   8.183 -0.3849 -0.8350 -1.5732
   70MOL    H2238800   6.103   5.951   0.273  1.0109  0.1946  1.8730
   70MOL    H2338801   6.251   6.003   0.195  0.6431  1.4695  0.2163
   70MOL    H2438802   6.031   6.206   0.294  0.5628  1.4018  0.3771
   70MOL    H2538803   6.126   6.130   0.405 -1.2848  0.0673 -0.7948
   70MOL    H2638804   6.120   6.177   8.119  1.2785  1.4516 -1.4788
   70MOL    H2738805   6.170   6.279   7.914 -0.0992  1.2948  0.7670
   70MOL    H2838806   6.116   6.314   7.653 -1.7040  1.3664 -0.2485
   70MOL    H2938807   5.718   6.271   7.423  0.6927  0.2896  0.2807
   70MOL    O3038808   6.108   6.402   0.401 -0.4677 -0.0248  0.1659
   70MOL    C3138809   6.216   6.378   0.347 -0.0902  0.0833 -0.2987
   70MOL    O3238810   6.232   6.263   0.285 -0.0180 -0.1238  0.9611
   70MOL    C3338811   6.341   6.466   0.335 -0.3875  0.5674  0.2498
   70MOL    C3438812   6.334   6.598   0.361 -0.4507  0.5394 -0.1938
   70MOL    C3538813   6.451   6.684   0.368  0.5991  0.5244  0.5926
   70MOL    C3638814   6.438   6.822   0.398  0.4335  0.1259 -0.1874
   70MOL    C3738815   6.557   6.896   0.415  0.1211  0.8448 -0.2111
   70MOL    C3838816   6.685   6.836   0.391  0.0761  0.4067  0.3630
   70MOL    C3938817   6.807   6.897   0.421  0.1824 -0.8357 -0.2077
   70MOL    O4038818   6.896   6.813   0.469 -0.3873  0.2481 -0.0861
   70MOL    C4138819   7.025   6.854   0.498  0.8107  0.5639 -1.0569
   70MOL    C4238820   7.122   6.836   0.380  0.4798  0.4789 -0.1827
   70MOL    O4338821   6.821   7.018   0.434  0.3061  0.4740 -0.2833
   70MOL    C4438822   6.692   6.700   0.339  0.1363 -0.1047  0.1436
   70MOL    C4538823   6.575   6.625   0.335  0.3076  0.2357  0.3038
   70MOL    C4638824   6.577   6.489   0.299 -0.4787 -0.6810  0.1362
   70MOL    C4738825   6.465   6.410   0.303 -0.1931  0.2931  0.4739
   70MOL    H4838826   6.236   6.642   0.375 -0.4722 -0.1031  1.7667
   70MOL    H4938827   6.349   6.870   0.437  0.0039  1.4373 -2.6650
   70MOL    H5038828   6.549   6.989   0.469 -0.5484 -0.0411  1.2696
   70MOL    H5138829   7.058   6.786   0.577 -1.0222 -0.2314 -0.9588
   70MOL    H5238830   7.028   6.956   0.537 -1.1047 -0.3423  1.6245
   70MOL    H5338831   7.080   6.877   0.288  1.4297 -2.5377 -1.9895
   70MOL    H5438832   7.212   6.894   0.400  0.2622 -0.2796  3.3753
   70MOL    H5538833   6.784   6.645   0.329 -0.2213 -0.4880 -1.1356
   70MOL    H5638834   6.672   6.443   0.276 -0.3307 -0.1058 -0.4303
   70MOL    H5738835   6.468   6.307   0.270 -2.0755  0.2331  0.4415
   70MOL    O5838836   7.269   6.672   0.529 -0.4529  0.4603  0.2819
   70MOL    C5938837   7.221   6.627   0.426 -0.3360 -0.4684  0.6247
   70MOL    O6038838   7.147   6.696   0.345  0.3263  0.3993 -1.0983
   70MOL    C6138839   7.251   6.493   0.376  0.6178 -0.0962 -0.7617
   70MOL    C6238840   7.241   6.462   0.242  0.5020 -0.8194  0.3784
   70MOL    C6338841   7.290   6.340   0.195  0.2580 -0.2219  0.2474
   70MOL    C6438842   7.278   6.305   0.058 -0.3404  0.5355  0.2915
   70MOL    C6538843   7.342   6.192   0.011 -0.8818 -0.1163 -0.6055
   70MOL    C6638844   7.416   6.110   0.094  0.9329 -0.7794 -0.3373
   70MOL    C6738845   7.490   5.988   0.047  0.7150  0.2396 -0.3034
   70MOL    O6838846   7.478   5.981   8.168  0.5132  0.3838  0.4671
   70MOL    C6938847   7.541   5.880   8.097  0.2812 -0.2106  0.9825
   70MOL    C7038848   7.562   5.943   7.961 -0.0026  0.3453  0.0797
   70MOL    O7138849   7.545   5.906   0.117  0.4339  0.2813  0.2408
   70MOL    C7238850   7.420   6.137   0.237  0.1344  0.5866 -0.0601
   70MOL    C7338851   7.361   6.255   0.285 -0.6444 -0.1447 -0.0040
   70MOL    C7438852   7.370   6.283   0.421  0.6141  0.9129  0.4913
   70MOL    C7538853   7.311   6.404   0.472 -0.1647  0.3633 -0.2110
   70MOL    H7638854   7.190   6.528   0.172 -0.5070 -0.8026  1.1152
   70MOL    H7738855   7.228   6.373   8.240 -2.8512 -0.1948  1.3465
   70MOL    H7838856   7.329   6.173   8.155 -2.2488  0.2095 -0.4972
   70MOL    H7938857   7.476   5.793   8.090  1.3902 -1.0557  0.9913
   70MOL    H8038858   7.640   5.852   8.135  0.2358 -1.3662  0.2529
   70MOL    H8138859   7.628   6.029   7.969 -0.4313  0.7121 -0.3087
   70MOL    H8238860   7.612   5.870   7.898 -0.7339 -1.1942  1.2407
   70MOL    H8338861   7.472   6.075   0.310 -0.2293 -2.0706 -1.9745
   70MOL    H8438862   7.421   6.217   0.490 -2.7126  0.5917  2.7636
   70MOL    H8538863   7.307   6.437   0.575  2.5841  2.2157 -0.6303
   70MOL    O8638864   7.458   6.197   7.929 -0.7034 -0.1441 -0.0567
   70MOL    C8738865   7.397   6.097   7.891 -0.3989  0.4338 -0.8084
   70MOL    O8838866   7.438   5.970   7.902 -0.2127 -0.0391  0.0711
   70MOL    C8938867   7.267   6.112   7.814  0.1506  0.2067  0.1770
   70MOL    C9038868   7.198   6.239   7.806  0.1443 -0.3215  0.2741
   70MOL    C9138869   7.070   6.245   7.744  0.2126  0.1973  0.8700
   70MOL    C9238870   7.000   6.369   7.743 -0.6180 -0.3124 -0.0443
   70MOL    C9338871   6.867   6.371   7.701  0.0839 -0.1457 -0.2734
   70MOL    C9438872   6.805   6.252   7.654 -0.2670 -0.1604 -0.7782
   70MOL    C9538873   6.673   6.253   7.590 -0.1158 -0.0839 -0.8916
   70MOL    O9638874   6.627   6.377   7.559  0.6609  0.0059  0.3694
   70MOL    C9738875   6.495   6.387   7.499 -0.8144  0.1499 -0.1974
   70MOL    C9838876   6.383   6.393   7.600 -0.0067 -0.5533 -0.1747
   70MOL    O9938877   6.616   6.148   7.559 -0.2448 -0.1378 -0.1998
   70MOL   C10038878   6.871   6.134   7.659  0.3646 -0.1126 -0.4913
   70MOL   C10138879   7.002   6.128   7.709 -0.1574  0.2658 -0.6853
   70MOL   C10238880   7.071   6.007   7.719 -0.7381 -0.0172  0.3207
   70MOL   C10338881   7.201   5.996   7.768  0.2374 -0.2649  0.2265
   70MOL   H10438882   7.236   6.324   7.860  0.8743  1.2130 -2.5228
   70MOL   H10538883   7.040   6.460   7.787 -0.8510 -0.1182 -0.2363
   70MOL   H10638884   6.811   6.463   7.697 -0.1959 -0.3890 -2.1588
   70MOL   H10738885   6.466   6.321   7.417 -0.3697  0.1802 -0.3787
   70MOL   H10838886   6.494   6.481   7.444  0.0530  1.7437  2.4349
   70MOL   H10938887   6.295   6.430   7.547 -0.7598 -1.1407  0.6362
   70MOL   H11038888   6.360   6.297   7.646 -1.2512 -0.5959 -0.8744
   70MOL   H11138889   6.817   6.042   7.644 -0.8199  0.2855  1.1597
   70MOL   H11238890   7.026   5.914   7.689  1.0772 -0.2866 -1.7503
   70MOL   H11338891   7.243   5.898   7.783 -2.7528 -2.0982 -2.5571
   70MOL   O11438892   6.221   6.538   7.762  0.4959  0.1673 -0.3395
   70MOL   C11538893   6.341   6.562   7.765  0.3267 -0.2547  0.2897
   70MOL   O11638894   6.427   6.488   7.693 -0.3907 -0.5045  0.2778
   70MOL   C11738895   6.407   6.673   7.843 -0.5622  0.2320  0.1648
   70MOL   C11838896   6.346   6.761   7.938 -0.0397  0.1646  0.9572
   70MOL   C11938897   6.422   6.863   8.009  0.3743  0.2905 -0.0528
   70MOL   C12038898   6.350   6.960   8.085  0.1763 -0.2297  0.3616
   70MOL   C12138899   6.431   7.044   8.164  0.4491  0.3941  0.2527
   70MOL   C12238900   6.572   7.046   8.153  0.1979  0.1283  1.1865
   70MOL   C12338901   6.656   7.142   8.237  0.1661  0.5143 -0.2058
   70MOL   O12438902   6.585   7.211   0.087 -0.0002 -0.3280  0.5475
   70MOL   C12538903   6.662   7.281   0.185  0.2452 -0.0032 -0.1510
   70MOL   C12638904   6.577   7.316   0.305 -0.1386  0.4310 -0.1283
   70MOL   O12738905   6.775   7.165   8.222  0.3205 -0.2783  0.3477
   70MOL   C12838906   6.640   6.966   8.057  0.0188  0.6364  1.1749
   70MOL   C12938907   6.563   6.870   7.993  0.5027  0.4801  0.3268
   70MOL   C13038908   6.624   6.785   7.903 -0.9153  0.5480  0.8883
   70MOL   C13138909   6.550   6.678   7.838 -0.0978  0.5111 -0.1012
   70MOL   H13238910   6.241   6.741   7.955  0.1323  0.3122  2.2621
   70MOL   H13338911   6.242   6.961   8.086  0.1848  0.9848  1.4856
   70MOL   H13438912   6.371   7.116   8.218  0.2574  0.8380 -0.5379
   70MOL   H13538913   6.703   7.372   0.140  0.7874 -0.2870 -0.2429
   70MOL   H13638914   6.722   7.207   0.238 -0.7636 -0.7539 -0.0353
   70MOL   H13738915   6.502   7.237   0.312 -0.7703  1.0651  0.3681
   70MOL   H13838916   6.647   7.304   0.388 -0.9973  1.1219  0.7055
   70MOL   H13938917   6.748   6.967   8.061  0.0534  1.3092  0.0811
   70MOL   H14038918   6.729   6.801   7.886 -0.5203 -1.5393  1.2278
   70MOL   H14138919   6.611   6.606   7.786 -0.6217  0.4748 -0.6619
   70MOL   O14238920   6.361   7.399   0.179 -0.0296  0.0969 -0.7153
   70MOL   C14338921   6.425   7.489   0.233 -0.0623  0.2220  0.2577
   70MOL   O14438922   6.535   7.455   0.299 -0.9698 -0.0005  0.1690
   70MOL   C14538923   6.387   7.629   0.219  0.2876  0.0720 -0.3312
   70MOL   C14638924   6.430   7.725   0.313  0.5927 -0.0439  0.8125
   70MOL   C14738925   6.409   7.863   0.293  0.7285  0.0016 -0.4404
   70MOL   C14838926   6.456   7.960   0.385 -0.1423 -0.2711  0.2192
   70MOL   C14938927   6.444   8.096   0.360 -0.3689  0.1161  0.1045
   70MOL   C15038928   6.386   8.143   0.240  0.0960 -0.3769 -0.5422
   70MOL   C15138929   6.379   0.034   0.197 -0.6251 -0.3214  0.2920
   70MOL   O15238930   6.452   0.117   0.284  0.8538  0.8112  0.0893
   70MOL   C15338931   6.477   0.253   0.251 -0.1985  0.3746  0.4167
   70MOL   C15438932   6.567   0.256   0.127 -0.7317  0.4436  0.1684
   70MOL   O15538933   6.304   0.067   0.105 -0.3884 -0.0675 -0.0742
   70MOL   C15638934   6.325   8.045   0.159  0.1779  0.9147  0.0327
   70MOL   C15738935   6.331   7.907   0.186 -0.7529  0.9866 -0.3206
   70MOL   C15838936   6.276   7.809   0.095  0.0960  0.2812  0.4936
   70MOL   C15938937   6.316   7.673   0.101 -0.4629  0.5499 -0.4498
   70MOL   H16038938   6.491   7.688   0.394  0.4678  2.7753  2.2275
   70MOL   H16138939   6.512   7.937   0.473  1.1632  0.7345 -0.3343
   70MOL   H16238940   6.491   8.172   0.420  0.7495 -0.1859 -0.3780
   70MOL   H16338941   6.523   0.287   0.344 -0.8895  0.1674  0.8362
   70MOL   H16438942   6.387   0.311   0.232  0.2166  0.9581  0.2350
   70MOL   H16538943   6.501   0.226   0.045 -0.5874 -0.0028  0.2163
   70MOL   H16638944   6.608   0.354   0.101 -0.7560  0.5195  0.4173
   70MOL   H16738945   6.274   8.081   0.070 -0.2097 -0.4603 -0.3095
   70MOL   H16838946   6.214   7.840   0.012 -1.4516 -0.2522  1.4271
   70MOL   H16938947   6.296   7.611   0.015 -0.2539  0.1094 -0.1808
   70MOL   O17038948   6.840   0.308   0.070  0.1710 -0.2539 -0.4832
   70MOL   C17138949   6.804   0.196   0.099 -0.4376 -0.9743  0.9249
   70MOL   O17238950   6.679   0.163   0.125 -0.2898  0.0084 -0.2608
   70MOL   C17338951   6.894   0.085   0.123  0.6042  0.0641 -0.5911
   70MOL   C17438952   7.031   0.096   0.079  0.3311  0.7745 -0.0796
   70MOL   C17538953   7.122   8.240   0.096 -0.1762 -0.7462 -0.3942
   70MOL   C17638954   7.256   0.006   0.049 -0.8641  0.3820  0.4060
   70MOL   C17738955   7.343   8.145   0.050  0.0287  0.6665  0.1919
   70MOL   C17838956   7.301   8.026   0.109 -0.5684 -0.1033  0.6578
   70MOL   C17938957   7.400   7.917   0.110  0.2082 -0.2036 -0.2823
   70MOL   O18038958   7.344   7.803   0.135  0.2714  0.1533 -0.1979
   70MOL   C18138959   7.417   7.686   0.141  0.0103 -0.3657 -0.1470
   70MOL   C18238960   7.508   7.676   0.260  0.3142  0.0894  0.0448
   70MOL   O18338961   7.517   7.927   0.068  0.6614  0.2289  0.5150
   70MOL   C18438962   7.170   8.010   0.160  0.1299  0.0252 -0.8212
   70MOL   C18538963   7.079   8.117   0.151 -0.6548 -0.5821 -0.2564
   70MOL   C18638964   6.943   8.105   0.187  0.3786 -0.2118 -0.1220
   70MOL   C18738965   6.851   8.212   0.178 -0.2375  0.0760  0.2388
   70MOL   H18838966   7.073   0.187   0.040  2.7802 -0.9544 -1.5809
   70MOL   H18938967   7.295   0.102   0.018 -3.5244  0.9980 -1.1772
   70MOL   H19038968   7.447   8.149   0.021  0.3008  0.5388  1.1235
   70MOL   H19138969   7.475   7.666   0.050 -0.1151 -0.9161 -0.1098
   70MOL   H19238970   7.333   7.617   0.143 -0.5267  0.3103  0.6818
   70MOL   H19338971   7.596   7.738   0.243 -0.3678  1.5333  1.5833
   70MOL   H19438972   7.452   7.706   0.349 -0.6931 -2.1310  0.1915
   70MOL   H19538973   7.137   7.920   0.209 -0.4715  0.3569 -0.6179
   70MOL   H19638974   6.907   8.010   0.225 -1.3120  0.6204  0.4113
   70MOL   H19738975   6.748   8.195   0.201 -0.3622 -2.4234 -1.9266
   70MOL   O19838976   7.707   7.547   0.108  0.0683  0.1127  0.4743
   70MOL   C19938977   7.631   7.487   0.186 -0.5742 -0.3482 -0.0456
   70MOL   O20038978   7.552   7.543   0.283 -0.0795 -0.1769  0.3769
   70MOL   C20138979   7.620   7.335   0.186 -0.5469 -0.2291 -0.2780
   70MOL   C20238980   7.636   7.261   0.069 -0.0971  0.3261  0.0211
   70MOL   C20338981   7.631   7.120   0.083 -0.5229 -0.2350  0.1732
   70MOL   C20438982   7.657   7.037   8.217  0.5652  0.1660  0.2600
   70MOL   C20538983   7.647   6.898   8.225 -0.1392  0.5005 -0.2138
   70MOL   C20638984   7.623   6.838   0.101  0.3439 -0.2069 -0.8031
   70MOL   C20738985   7.600   6.692   0.115 -1.2197 -0.0061 -0.1853
   70MOL   O20838986   7.663   6.627   0.012  0.0746  0.2383  0.8125
   70MOL   C20938987   7.654   6.488   8.245  0.1431 -0.6097 -0.1932
   70MOL   C21038988   7.539   6.453   8.151 -0.0876 -0.2710 -0.4430
   70MOL   O21138989   7.540   6.642   0.208 -0.0191 -0.2956 -0.6164
   70MOL   C21238990   7.602   6.916   0.214  0.4284 -0.0901 -0.4542
   70MOL   C21338991   7.608   7.054   0.208  0.0836 -0.2393 -0.2496
   70MOL   C21438992   7.590   7.133   0.324 -0.1842 -0.1384  0.3157
   70MOL   C21538993   7.593   7.272   0.311  0.4482 -0.0413  0.7937
   70MOL   H21638994   7.659   7.307   8.223  1.6797  3.0695  1.7141
   70MOL   H21738995   7.669   7.081   8.119  0.8797 -1.0795 -0.2766
   70MOL   H21838996   7.641   6.841   8.133  0.9598 -0.6645  0.4271
   70MOL   H21938997   7.652   6.440   0.094  0.5793  1.5901  0.9294
   70MOL   H22038998   7.744   6.455   8.193 -0.1036 -0.1375 -0.9344
   70MOL   H22138999   7.555   6.346   8.139  0.1216 -0.4310  1.1381
   70MOL   H22239000   7.450   6.475   8.210  1.7954  0.3376  2.2873
   70MOL   H22339001   7.598   6.868   0.311  1.5665 -0.3749 -0.5400
   70MOL   H22439002   7.578   7.089   0.422  1.1573  0.2670  0.6767
   70MOL   H22539003   7.593   7.318   0.409  1.2635  0.3610  0.6073
   70MOL   O22639004   7.309   6.516   8.006 -0.1179 -1.4628  0.3626
   70MOL   C22739005   7.416   6.566   7.972 -0.0138  0.0048  0.4060
   70MOL   O22839006   7.536   6.523   8.022  0.5252  0.3357  0.1974
   70MOL   C22939007   7.431   6.662   7.860 -0.1454 -0.1281  0.2246
   70MOL   C23039008   7.317   6.724   7.796 -0.0820  0.3243  0.3477
   70MOL   C23139009   7.335   6.823   7.697  0.0890  0.1624 -0.3466
   70MOL   C23239010   7.220   6.893   7.643 -0.0958 -0.3506  0.1371
   70MOL   C23339011   7.245   7.004   7.555 -0.1299  0.2270 -0.1428
   70MOL   C23439012   7.377   7.038   7.513 -1.3065 -0.1012  0.4786
   70MOL   C23539013   7.399   7.150   7.417  0.1626  0.0037 -0.3366
   70MOL   O23639014   7.284   7.222   7.383  0.0345  0.3421  0.4751
   70MOL   C23739015   7.293   7.335   7.293 -0.1834 -0.3454  0.0943
   70MOL   C23839016   7.237   7.280   7.164  0.6588 -0.3266 -0.0994
   70MOL   O23939017   7.503   7.171   7.364  0.6910 -0.3756  0.0135
   70MOL   C24039018   7.488   6.966   7.566  0.2513 -0.5889  0.3886
   70MOL   C24139019   7.465   6.863   7.660 -0.2146  0.6837 -0.5162
   70MOL   C24239020   7.579   6.800   7.715 -0.7178  0.1388  0.3615
   70MOL   C24339021   7.562   6.708   7.819  0.3253  0.7212  0.4752
   70MOL   H24439022   7.216   6.698   7.824  0.0894 -2.6575 -1.5727
   70MOL   H24539023   7.121   6.855   7.664 -1.0420  2.2211  0.5821
   70MOL   H24639024   7.158   7.057   7.518 -0.4975  0.9040  1.6167
   70MOL   H24739025   7.394   7.375   7.280  0.4855 -0.6472  3.8401
   70MOL   H24839026   7.237   7.421   7.330  0.5627  0.7184 -1.1953
   70MOL   H24939027   7.173   7.193   7.180 -2.6242  1.9244 -0.4541
   70MOL   H25039028   7.178   7.358   7.117  0.7727 -0.2987 -0.1939
   70MOL   H25139029   7.588   6.983   7.527  0.2870  0.6912  1.0154
   70MOL   H25239030   7.674   6.816   7.667 -1.0811 -2.7261 -1.4539
   70MOL   H25339031   7.655   6.678   7.864 -0.5650  2.3452  3.5526
   70MOL   O25439032   7.277   7.354   6.898  0.2044  0.0374  0.0018
   70MOL   C25539033   7.366   7.290   6.956  0.3546 -0.7709 -0.0314
   70MOL   O25639034   7.350   7.244   7.085  0.5167 -0.1668  0.3417
   70MOL   C25739035   7.490   7.257   6.887  0.1674  0.0964 -0.2237
   70MOL   C25839036   7.566   7.142   6.922 -0.1285  0.7273 -0.2341
   70MOL   C25939037   7.696   7.120   6.869  0.1521  0.1824  0.3341
   70MOL   C26039038   7.767   7.009   6.905  0.8453  0.1598 -0.2202
   70MOL   C26139039   7.883   6.975   6.844 -0.5349 -0.6169  0.3084
   70MOL   C26239040   7.934   7.063   6.739  0.1042 -0.2861 -0.6872
   70MOL   C26339041   8.053   7.021   6.660  0.4784  0.4485  0.0626
   70MOL   O26439042   8.089   7.118   6.576 -0.1480 -0.0044  0.2903
   70MOL   C26539043   8.204   7.102   6.490  0.3717  0.4424  0.6540
   70MOL   C26639044   0.084   7.164   6.553 -0.6859 -0.1288 -0.1912
   70MOL   O26739045   8.112   6.913   6.670  0.1980  0.3454  0.3655
   70MOL   C26839046   7.861   7.178   6.700 -1.2834 -0.6057 -0.3967
   70MOL   C26939047   7.742   7.207   6.764 -0.0475  0.8367  0.7547
   70MOL   C27039048   7.665   7.316   6.723 -0.2489  0.8298  0.0513
   70MOL   C27139049   7.539   7.342   6.785  0.1557  0.2082  0.1594
   70MOL   H27239050   7.529   7.081   7.003  0.3685 -0.8399 -1.1600
   70MOL   H27339051   7.729   6.949   6.987  2.7769 -0.1946  0.4435
   70MOL   H27439052   7.942   6.892   6.878  1.4587  0.6077 -0.0527
   70MOL   H27539053   8.188   7.162   6.401 -1.2467  2.5629  2.3253
   70MOL   H27639054   8.217   6.999   6.457 -1.6777  0.8029 -1.4456
   70MOL   H27739055   0.172   7.157   6.490 -2.8731 -0.1089 -3.3376
   70MOL   H27839056   0.064   7.271   6.561  0.3527  0.2845 -2.8089
   70MOL   H27939057   7.895   7.238   6.617  2.3905 -1.8512  0.1443
   70MOL   H28039058   7.700   7.381   6.644  0.1105 -2.1074 -2.2938
   70MOL   H28139059   7.485   7.425   6.743  0.2816  1.0003  1.5340
   70MOL   O28239060   0.279   6.961   6.647  0.4197 -0.4026  0.5853
   70MOL   C28339061   0.192   7.016   6.718 -0.6840  0.3720  0.9419
   70MOL   O28439062   0.109   7.115   6.682 -1.0130 -0.3860 -0.1205
   70MOL   C28539063   0.156   6.969   6.859 -0.8390 -0.4749  0.1471
   70MOL   C28639064   0.245   6.878   6.930 -0.0799  0.2622  0.0153
   70MOL   C28739065   0.226   6.839   7.060  0.3485 -0.3569  0.3197
   70MOL   C28839066   0.314   6.749   7.120  0.3827  0.1191 -0.1966
   70MOL   C28939067   0.281   6.701   7.245  0.7248  0.6447 -0.0761
   70MOL   C29039068   0.169   6.753   7.317  0.1286  0.3038 -0.5944
   70MOL   C29139069   0.136   6.719   7.455 -0.1472  0.5418  0.6962
   70MOL   O29239070   0.201   6.614   7.494 -0.4478  0.2237  0.0683
   70MOL   C29339071   0.207   6.573   7.628 -0.0413  0.6262 -1.0780
   70MOL   C29439072   0.318   6.644   7.700  0.0048  0.2569 -0.1471
   70MOL   O29539073   0.060   6.781   7.525  0.5592  0.2746 -0.0529
   70MOL   C29639074   0.089   6.855   7.265  0.1505  0.7962 -0.0019
   70MOL   C29739075   0.117   6.898   7.133 -0.0473 -0.2080 -0.2036
   70MOL   C29839076   0.035   6.994   7.071  0.8571  0.1529  0.5033
   70MOL   C29939077   0.053   7.030   6.937  0.3875 -0.5726  0.2225
   70MOL   H30039078   0.329   6.847   6.870  0.3393  2.2884 -0.4745
   70MOL   H30139079   0.408   6.718   7.077  0.9739  1.3318  0.2062
   70MOL   H30239080   0.345   6.627   7.291 -1.1412 -0.3545  1.0073
   70MOL   H30339081   0.232   6.467   7.620 -1.6273  0.1329  0.0209
   70MOL   H30439082   0.109   6.580   7.676  0.4164 -0.2216  0.0185
   70MOL   H30539083   0.365   6.579   7.775 -0.5743 -0.9625 -0.8247
   70MOL   H30639084   0.391   6.680   7.627  0.2675  3.9869  1.8346
   70MOL   H30739085   0.002   6.878   7.324  0.0129 -1.9936  0.9249
   70MOL   H30839086   8.200   7.042   7.120 -0.2145  0.2521 -1.3886
   70MOL   H30939087   8.240   7.109   6.897  1.0909  0.7434  1.7029
   70MOL   O31039088   0.177   6.651   7.941  0.1688  0.1355 -0.0045
   70MOL   C31139089   0.209   6.755   7.888  0.3024 -0.1934  0.5672
   70MOL   O31239090   0.272   6.759   7.764  0.0874 -0.2114 -0.1319
   70MOL   C31339091   0.171   6.887   7.945 -0.3934 -0.0578 -0.2531
   70MOL   C31439092   0.158   6.894   8.090  0.2327 -0.4618  0.1371
   70MOL   C31539093   0.132   7.023   8.149 -0.3078  0.3979 -0.8445
   70MOL   C31639094   0.103   7.038   0.039  0.1456 -0.6465  0.5231
   70MOL   C31739095   0.079   7.168   0.094  0.0875 -0.3238  0.6806
   70MOL   C31839096   0.083   7.284   0.013 -0.2077 -0.2696  0.4323
   70MOL   C31939097   0.076   7.426   0.069 -0.3595 -0.9610 -0.4087
   70MOL   O32039098   0.104   7.518   8.226 -0.1472  0.5615  0.2161
   70MOL   C32139099   0.112   7.659   0.009  0.0586 -0.2777 -0.1560
   70MOL   C32239100   0.254   7.713   8.225  0.3529  0.4447  0.7274
   70MOL   O32339101   0.050   7.459   0.186 -0.3570 -0.2279  0.6357
   70MOL   C32439102   0.112   7.268   8.126 -0.3092 -0.6225  0.6842
   70MOL   C32539103   0.140   7.141   8.070  0.5239  0.0662  0.5244
   70MOL   C32639104   0.157   7.128   7.934 -0.4333  0.3719 -0.0025
   70MOL   C32739105   0.183   7.006   7.870  0.5594  0.0692 -0.1824
   70MOL   H32839106   0.145   6.803   8.147  0.5268  0.1431  1.1823
   70MOL   H32939107   0.104   6.963   0.116 -1.3192  1.6211  2.8417
   70MOL   H33039108   0.057   7.187   0.198 -3.4311 -0.8087  0.1159
   70MOL   H33139109   0.083   7.680   0.112  1.0191  0.4446 -0.0245
   70MOL   H33239110   0.032   7.704   8.200 -1.1581  0.6847  2.1821
   70MOL   H33339111   0.262   7.821   8.243  1.0298  0.7088 -1.0367
   70MOL   H33439112   0.334   7.656   0.023 -0.9350 -1.7524  0.2806
   70MOL   H33539113   0.117   7.353   8.059 -1.4904 -0.1503  1.1827
   70MOL   H33639114   0.154   7.216   7.871  0.0191 -1.2892 -2.3963
   70MOL   H33739115   0.205   7.018   7.765 -1.3446  0.4004 -0.5529
   70MOL   O33839116   0.183   7.879   8.012  0.1770 -0.3967  0.1626
   70MOL   C33939117   0.224   7.766   7.987 -0.2779  0.2190 -0.2419
   70MOL   O34039118   0.265   7.685   8.083 -0.4707 -0.5798  0.1280
   70MOL   C34139119   0.235   7.703   7.846 -0.3504  0.0041 -0.9946
   70MOL   C34239120   0.266   7.571   7.834 -0.2420  0.4779 -0.1529
   70MOL   C34339121   0.269   7.516   7.708 -0.5497 -0.7062  0.7769
   70MOL   C34439122   0.301   7.382   7.692 -0.4968 -0.2944 -0.9121
   70MOL   C34539123   0.303   7.316   7.567  0.3054  0.1740 -0.5169
   70MOL   C34639124   0.275   7.391   7.451 -1.0300 -0.2793  0.3003
   70MOL   C34739125   0.283   7.327   7.318 -0.1815  0.5941  0.2879
   70MOL   O34839126   0.327   7.198   7.327 -0.6665 -0.4593 -0.9889
   70MOL   C34939127   0.334   7.107   7.215  1.1462  0.5157  0.2136
   70MOL   C35039128   0.466   7.122   7.137  0.9648  0.6467 -0.2245
   70MOL   O35139129   0.232   7.377   7.217  0.6358 -0.3215 -0.7808
   70MOL   C35239130   0.256   7.528   7.465  0.5690  0.5024  0.4459
   70MOL   C35339131   0.247   7.593   7.590 -0.1171 -0.5616 -0.3882
   70MOL   C35439132   0.220   7.728   7.605  0.0781  0.4999 -0.0961
   70MOL   C35539133   0.201   7.778   7.735  0.6787  0.1442  0.4676
   70MOL   H35639134   0.292   7.507   7.917 -1.8526 -1.4399 -1.0693
   70MOL   H35739135   0.322   7.341   7.790 -0.0928  2.3949  0.1735
   70MOL   H35839136   0.318   7.209   7.567  1.3070  0.2697 -3.4094
   70MOL   H35939137   0.246   7.115   7.151  0.7706  1.1429  0.7967
   70MOL   H36039138   0.337   7.008   7.260 -0.2211  1.2143  1.9015
   70MOL   H36139139   0.542   7.173   7.197  1.5934  1.4257 -1.6742
   70MOL   H36239140   0.507   7.022   7.124 -0.7675  0.0420 -1.1117
   70MOL   H36339141   0.237   7.585   7.375  0.3331 -2.8825 -1.7387
   70MOL   H36439142   0.204   7.783   7.514  0.8351  0.1930 -0.4153
   70MOL   H36539143   0.158   7.877   7.740 -1.5357 -0.7178 -0.7277
   70MOL   O36639144   0.614   7.097   6.907  0.2048  0.2489  0.2858
   70MOL   C36739145   0.511   7.168   6.904 -0.2668 -0.3562  0.3510
   70MOL   O36839146   0.431   7.186   7.012 -0.2324  0.5614 -0.6004
   70MOL   C36939147   0.461   7.236   6.782 -0.9115  0.6242  0.7343
   70MOL   C37039148   0.344   7.312   6.768  0.4333  0.0841  0.3587
   70MOL   C37139149   0.303   7.374   6.647 -0.0604 -0.0063  0.0939
   70MOL   C37239150   0.201   7.470   6.641  0.3056  0.0462 -0.0955
   70MOL   C37339151   0.161   7.521   6.513  0.2251  0.2352 -0.2146
   70MOL   C37439152   0.219   7.477   6.393  0.2975 -0.1077  0.1755
   70MOL   C37539153   0.172   7.519   6.258  0.4105 -0.6284 -0.7145
   70MOL   O37639154   0.053   7.565   6.268  0.2291 -0.3488 -0.1893
   70MOL   C37739155   8.234   7.588   6.145  0.1362 -0.2220 -0.3963
   70MOL   C37839156   0.033   7.698   6.061 -0.6659  0.2204 -0.1386
   70MOL   O37939157   0.230   7.500   6.154  0.1672 -0.3348 -0.8349
   70MOL   C38039158   0.336   7.399   6.405  0.0712  0.8272  0.3210
   70MOL   C38139159   0.372   7.341   6.525  0.2398 -0.4820  0.1035
   70MOL   C38239160   0.482   7.254   6.532 -0.1625  0.4849 -0.5466
   70MOL   C38339161   0.527   7.216   6.664  0.3626 -0.1819  0.0774
   70MOL   H38439162   0.286   7.340   6.855 -1.2456 -0.3310 -0.6274
   70MOL   H38539163   0.145   7.499   6.729 -0.7817 -1.5149 -0.2652
   70MOL   H38639164   0.081   7.594   6.510 -2.1791 -2.2299  1.4752
   70MOL   H38739165   8.128   7.611   6.159  0.6687  2.4516 -0.5883
   70MOL   H38839166   8.225   7.495   6.088 -2.4404  1.1540 -2.3262
   70MOL   H38939167   0.140   7.693   6.038 -0.3741  0.9735  0.9974
   70MOL   H39039168   8.232   7.679   5.966  1.3059 -2.6796 -0.6799
   70MOL   H39139169   0.391   7.374   6.315  0.5425 -0.6381  1.0152
   70MOL   H39239170   0.530   7.231   6.438 -0.8050 -3.5387  0.0172
   70MOL   H39339171   0.608   7.144   6.657  1.3225  0.8230  0.6265
   70MOL   O39439172   0.184   7.836   6.232  0.2624  0.2366 -0.1841
   70MOL   C39539173   0.082   7.893   6.188  0.1352  0.2287  0.6190
   70MOL   O39639174   0.000   7.830   6.105 -0.4940 -0.0143 -0.1548
   70MOL   C39739175   0.037   8.029   6.212 -0.3320 -0.7814 -0.7034
   70MOL   C39839176   0.122   8.119   6.285  0.0258  0.4204 -0.4812
   70MOL   C39939177   0.088   0.000   6.304  0.0879  0.6458 -0.0996
   70MOL   C40039178   0.174   0.083   6.377  0.3460  0.6627 -0.0983
   70MOL   C40139179   0.151   0.223   6.389  0.6478  0.1572  0.5516
   70MOL   C40239180   0.032   0.275   6.333  0.5822 -0.0197  0.2796
   70MOL   C40339181   8.240   0.419   6.350 -0.3037 -0.1530 -1.0454
   70MOL   O40439182   0.088   0.500   6.389 -0.3135  0.2308  0.6475
   70MOL   C40539183   0.064   0.634   6.440 -0.3388 -0.2114  0.2170
   70MOL   C40639184   0.065   0.639   6.594  0.0183  0.3562  0.1958
   70MOL   O40739185   8.128   0.462   6.323 -0.2922  0.6121 -1.0617
   70MOL   C40839186   8.192   0.189   6.253 -0.4526  0.0686  0.6310
   70MOL   C40939187   8.217   0.050   6.245 -0.2911  0.3596 -0.0398
   70MOL   C41039188   8.123   8.213   6.184 -0.0284  0.2742 -0.3805
   70MOL   C41139189   8.157   8.076   6.174  0.3174 -0.4424 -0.0913
   70MOL   H41239190   0.225   8.098   6.310 -0.4029  2.1706  2.9958
   70MOL   H41339191   0.264   0.051   6.428  0.2969 -0.7143 -0.8409
   70MOL   H41439192   0.223   0.276   6.450  0.1768  0.0320  1.2144
   70MOL   H41539193   8.222   0.669   6.390 -0.6912 -0.7120  0.4938
   70MOL   H41639194   0.156   0.679   6.404 -2.2559  2.4166 -1.5757
   70MOL   H41739195   0.012   0.551   6.629 -1.5464  0.7856 -1.0485
   70MOL   H41839196   0.161   0.659   6.642  0.9023  0.5377 -1.5986
   70MOL   H41939197   8.107   0.235   6.204  0.4655 -1.3388 -2.4404
   70MOL   H42039198   8.026   8.242   6.146  0.2469  2.0753  0.2301
   70MOL   H42139199   8.097   8.005   6.119 -0.2096 -1.4344  1.7405
   70MOL   O42239200   0.073   0.735   6.842  0.0913 -0.2139 -0.2915
   70MOL   C42339201   8.244   0.791   6.758  0.4207  0.2481  0.5518
   70MOL   O42439202   8.239   0.746   6.635  1.0177  0.3054 -0.7741
   70MOL   C42539203   8.156   0.908   6.782 -0.5172  0.4808  0.1887
   70MOL   C42639204   8.042   0.934   6.707 -0.0871 -0.2389  0.4654
   70MOL   C42739205   7.959   1.040   6.736 -0.0531 -0.6068 -1.0295
   70MOL   C42839206   7.854   1.076   6.652 -0.2562  0.1225 -1.0062
   70MOL   C42939207   7.767   1.185   6.687 -0.7741 -0.2082  1.0545
   70MOL   C43039208   7.799   1.264   6.798  0.4854  0.7062  0.6296
   70MOL   C43139209   7.714   1.377   6.849  0.4621  0.0097 -0.3491
   70MOL   O43239210   7.583   1.360   6.829  0.0200  0.2962  0.2104
   70MOL   C43339211   7.494   1.461   6.866  0.5881 -0.3664 -0.4427
   70MOL   C43439212   7.425   1.432   7.004  0.0130 -0.1159  0.2790
   70MOL   O43539213   7.758   1.478   6.911  0.9455 -0.1065  0.8987
   70MOL   C43639214   7.913   1.235   6.871  0.0121 -0.5389  0.2091
   70MOL   C43739215   7.990   1.121   6.846  0.3714 -0.3757 -0.1992
   70MOL   C43839216   8.106   1.099   6.922  0.4626 -0.0030 -0.5244
   70MOL   C43939217   8.185   0.991   6.893 -0.1031 -0.2609 -0.4984
   70MOL   H44039218   8.013   0.874   6.621  3.9893  2.0396 -2.6884
   70MOL   H44139219   7.824   1.007   6.575  1.5144 -0.9070 -0.8061
   70MOL   H44239220   7.677   1.198   6.629  0.8477  1.8226 -1.1311
   70MOL   H44339221   7.417   1.480   6.792  0.9986  2.8399 -0.1396
   70MOL   H44439222   7.542   1.559   6.871  1.1889 -0.7109  1.1590
   70MOL   H44539223   7.377   1.334   6.998  0.9331 -0.7013  2.2918
   70MOL   H44639224   7.507   1.431   7.075  1.9210  1.0643 -1.8266
   70MOL   H44739225   7.945   1.295   6.955 -0.9820 -2.7820  2.2650
   70MOL   H44839226   8.132   1.169   6.999  0.0799  1.3144 -1.5770
   70MOL   H44939227   0.028   0.981   6.949 -0.7326  1.4048  0.8764
   70MOL   O45039228   7.145   1.434   6.956 -0.5515  0.3414  0.4738
   70MOL   C45139229   7.203   1.534   7.001  0.1495 -0.3626  0.5574
   70MOL   O45239230   7.340   1.541   7.038 -0.0100  0.3039 -0.6813
   70MOL   C45339231   7.129   1.664   7.032 -0.0233 -0.4121  0.0635
   70MOL   C45439232   7.005   1.696   6.970  0.6388 -0.3186 -0.2387
   70MOL   C45539233   6.935   1.818   7.004  0.3378 -0.5420  0.4582
   70MOL   C45639234   6.813   1.855   6.944 -0.7642  0.4487  0.1175
   70MOL   C45739235   6.752   1.971   6.980  0.5568 -0.0199 -0.7725
   70MOL   C45839236   6.800   2.057   7.084  0.7709  0.0924 -0.9410
   70MOL   C45939237   6.725   2.173   7.141  0.2553  0.7935 -0.0456
   70MOL   O46039238   6.616   2.197   7.063 -0.0255 -0.0970 -0.3833
   70MOL   C46139239   6.496   2.253   7.120  0.0283  0.6124 -0.0835
   70MOL   C46239240   6.415   2.151   7.207 -0.3764 -0.9988  0.4011
   70MOL   O46339241   6.755   2.222   7.248  0.0818  0.9576 -0.0281
   70MOL   C46439242   6.923   2.019   7.148  0.1015 -0.4016 -0.3377
   70MOL   C46539243   6.988   1.902   7.106  0.4393 -0.0459 -0.1029
   70MOL   C46639244   7.108   1.862   7.167  0.3026 -0.2979 -0.7349
   70MOL   C46739245   7.179   1.748   7.127 -0.4203  0.1968 -1.0382
   70MOL   H46839246   6.958   1.636   6.894 -0.9414  2.3924 -1.4742
   70MOL   H46939247   6.764   1.791   6.872 -0.0555  1.1843 -1.0476
   70MOL   H47039248   6.656   1.989   6.933 -0.0252  1.0084  0.7640
   70MOL   H47139249   6.433   2.273   7.033  0.3105  1.1407 -0.1623
   70MOL   H47239250   6.506   2.346   7.176  1.7403  0.8111 -0.7081
   70MOL   H47339251   6.489   2.126   7.283  0.1792  0.5242  0.3847
   70MOL   H47439252   6.323   2.203   7.234 -0.0681 -0.3062  0.1366
   70MOL   H47539253   6.958   2.076   7.232  2.0184  0.2489 -1.5668
   70MOL   H47639254   7.151   1.925   7.243  0.5371  0.3431 -1.3973
   70MOL   H47739255   7.275   1.727   7.171  0.0890  0.2546 -2.0944
   70MOL   O47839256   6.154   2.115   7.098  0.3482 -0.3321  0.0200
   70MOL   C47939257   6.247   2.041   7.069 -0.4531 -0.3730 -0.0383
   70MOL   O48039258   6.372   2.035   7.136  0.3377  0.2462 -0.0116
   70MOL   C48139259   6.243   1.952   6.953 -0.8466  0.0351 -0.4491
   70MOL   C48239260   6.355   1.882   6.905  0.3227  0.6080 -0.5178
   70MOL   C48339261   6.339   1.796   6.792 -0.0370  0.1169  0.4771
   70MOL   C48439262   6.453   1.736   6.737  0.0881  0.1506 -0.1379
   70MOL   C48539263   6.454   1.666   6.617 -0.3303 -0.3922 -0.7466
   70MOL   C48639264   6.334   1.652   6.544 -0.1329 -0.1556 -0.4566
   70MOL   C48739265   6.340   1.581   6.411 -0.0148 -0.0705 -0.2941
   70MOL   O48839266   6.227   1.527   6.373  0.0329  0.3583  0.0037
   70MOL   C48939267   6.204   1.491   6.238 -0.0617 -0.3933 -0.2833
   70MOL   C49039268   6.279   1.355   6.206  0.1672 -0.1420  0.8955
   70MOL   O49139269   6.436   1.584   6.340  0.0916 -0.2865 -0.3000
   70MOL   C49239270   6.220   1.713   6.599 -0.1124 -0.1941  0.3369
   70MOL   C49339271   6.220   1.782   6.720  0.9454  0.5795 -0.6281
   70MOL   C49439272   6.107   1.852   6.763 -0.0097 -0.2896  0.2785
   70MOL   C49539273   6.117   1.932   6.885  0.4543  0.6773 -0.4916
   70MOL   H49639274   6.453   1.884   6.950  0.3765 -1.7957 -0.4712
   70MOL   H49739275   6.546   1.764   6.783  0.9840 -1.1053 -1.1669
   70MOL   H49839276   6.545   1.633   6.570  0.9685 -0.1330  1.5055
   70MOL   H49939277   6.238   1.568   6.168 -0.3637 -0.4904 -0.5385
   70MOL   H50039278   6.099   1.470   6.217  0.0689 -2.6218  1.1810
   70MOL   H50139279   6.386   1.378   6.200 -0.8421  5.1327 -0.0699
   70MOL   H50239280   6.272   1.279   6.283 -1.7295  0.3138  1.1886
   70MOL   H50339281   6.130   1.693   6.543 -0.1424  2.2056 -0.5472
   70MOL   H50439282   6.014   1.860   6.710 -1.5122  2.2836  3.0818
   70MOL   H50539283   6.023   1.974   6.919  1.0210  0.1947  1.7439
   70MOL   O50639284   6.337   1.442   5.954 -0.1311  0.0804 -0.3360
   70MOL   C50739285   6.257   1.355   5.965  0.3156  0.2482 -0.5414
   70MOL   O50839286   6.227   1.301   6.087  0.0882  0.6114  0.2215
   70MOL   C50939287   6.170   1.309   5.849 -0.2477  0.8244 -0.2030
   70MOL   C51039288   6.154   1.392   5.738  0.1318 -0.1741  1.2112
   70MOL   C51139289   6.074   1.339   5.630 -0.0709  0.3045  0.2293
   70MOL   C51239290   6.059   1.417   5.519 -0.3573 -0.0380  0.7945
   70MOL   C51339291   5.983   1.360   5.410  0.6281 -0.2372  0.3930
   70MOL   C51439292   5.918   1.235   5.417 -0.2395 -0.0605  0.4217
   70MOL   C51539293   5.831   1.184   5.308  0.0799 -0.0675  0.3770
   70MOL   O51639294   5.759   1.080   5.343  0.4672 -0.1834 -0.4842
   70MOL   C51739295   5.653   1.032   5.262  0.0450  0.3729  0.2383
   70MOL   C51839296   5.532   1.005   5.361 -0.3047  0.1727 -0.5625
   70MOL   O51939297   5.821   1.242   5.201  0.2395  0.1808 -0.5248
   70MOL   C52039298   5.943   1.159   5.535 -0.0456  0.4939 -0.9948
   70MOL   C52139299   6.017   1.211   5.642  0.3530 -0.7369  0.0611
   70MOL   C52239300   6.026   1.134   5.758  0.4285  0.2467 -0.3570
   70MOL   C52339301   6.103   1.181   5.865 -0.1506  0.1829  0.8439
   70MOL   H52439302   6.196   1.491   5.733  0.0019 -0.2201 -1.7426
   70MOL   H52539303   6.100   1.517   5.518 -4.8138  1.9189 -1.0392
   70MOL   H52639304   5.965   1.417   5.320 -0.1812 -1.5376 -0.2972
   70MOL   H52739305   5.682   0.939   5.213  1.9254  1.3308 -0.5112
   70MOL   H52839306   5.630   1.109   5.189 -0.5574 -0.4951 -0.5012
   70MOL   H52939307   5.571   0.967   5.455 -1.0982  0.4081 -0.1376
   70MOL   H53039308   5.479   1.097   5.384  1.3579  1.1550 -0.5824
   70MOL   H53139309   5.901   1.062   5.558  0.8749  1.2891  4.9824
   70MOL   H53239310   5.985   1.034   5.761  0.4787  0.2623  1.3868
   70MOL   H53339311   6.114   1.113   5.948 -1.3902 -1.0016  0.0422
   70MOL   O53439312   5.379   1.037   5.134  0.1912 -0.0026 -0.3973
   70MOL   C53539313   5.367   0.934   5.201  0.4168 -1.0204 -0.6774
   70MOL   O53639314   5.449   0.909   5.305  0.1273  0.2571 -0.4048
   70MOL   C53739315   5.266   0.832   5.168 -0.5189 -0.4975  0.6757
   70MOL   C53839316   5.163   0.867   5.078 -0.1909  0.1430  0.7275
   70MOL   C53939317   5.062   0.770   5.047 -0.1396 -0.8058  0.1599
   70MOL   C54039318   4.957   0.812   4.966  0.3576 -0.2334 -0.6184
   70MOL   C54139319   4.842   0.728   4.947  0.0530 -0.0833  0.0593
   70MOL   C54239320   4.856   0.591   4.988  0.1143  0.2281  0.2342
   70MOL   C54339321   4.741   0.498   4.959  0.3455 -0.4889  0.3868
   70MOL   O54439322   4.789   0.370   4.986 -0.2692  0.1837 -0.5895
   70MOL   C54539323   4.713   0.261   4.949  0.3123 -0.8541 -1.3222
   70MOL   C54639324   4.788   0.137   4.974 -0.2797  0.5760  0.0648
   70MOL   O54739325   4.635   0.525   4.904  0.2151  0.1769 -0.0189
   70MOL   C54839326   4.970   0.547   5.060 -0.6677 -0.4369  0.6789
   70MOL   C54939327   5.070   0.640   5.094 -0.1843  0.0913 -0.2143
   70MOL   C55039328   5.173   0.610   5.187  0.1025 -0.0715  0.6046
   70MOL   C55139329   5.276   0.701   5.213 -0.5351 -0.1916  0.5039
   70MOL   H55239330   5.157   0.967   5.037 -1.4879 -1.1805 -2.5249
   70MOL   H55339331   4.958   0.913   4.927  3.0619 -0.5928 -1.5815
   70MOL   H55439332   4.765   0.763   4.880  1.5109  0.6670 -1.2664
   70MOL   H55539333   4.680   0.267   4.845 -1.4046 -0.4564 -0.7807
   70MOL   H55639334   4.628   0.259   5.018 -0.4082  1.5049 -2.0843
   70MOL   H55739335   4.816   0.141   5.080  0.9603 -1.5849 -0.1555
   70MOL   H55839336   4.881   0.103   4.930 -1.1122  0.3139 -1.5187
   70MOL   H55939337   4.979   0.446   5.099  4.0622 -0.8461 -1.0329
   70MOL   H56039338   5.191   0.508   5.218  1.6990 -0.8346 -2.5838
   70MOL   H56139339   5.353   0.676   5.284  0.5411  2.5474  0.3549
   70MOL   H56239340   4.714   0.057   4.970  0.9152 -0.4514 -2.5561
   71MOL     O139341   2.931   4.160   7.208 -0.1536  0.1103  0.7831
   71MOL     C239342   3.014   4.176   7.296 -0.4818 -0.2830 -0.2067
   71MOL     O339343   3.141   4.121   7.293  0.3648 -0.0265 -0.0324
   71MOL     C439344   2.988   4.253   7.426  0.1563  0.1524  0.0162
   71MOL     C539345   3.087   4.259   7.530 -0.0037 -0.2068 -0.4520
   71MOL     C639346   3.061   4.344   7.642  0.0845  0.3622  0.0525
   71MOL     C739347   3.155   4.348   7.748 -0.2097  0.4610  0.0087
   71MOL     C839348   3.137   4.452   7.844 -0.0562  0.6983  0.0425
   71MOL     C939349   3.017   4.532   7.855 -0.3584  0.2820  0.1631
   71MOL    C1039350   2.999   4.636   7.960  0.3927 -0.7429  0.2943
   71MOL    O1139351   3.099   4.645   8.044 -0.5221  0.1976  0.2136
   71MOL    C1239352   3.101   4.754   8.142  0.2291 -0.4017  0.5179
   71MOL    C1339353   3.188   4.868   8.103  0.3894  0.6373  0.5096
   71MOL    O1439354   2.897   4.710   7.955 -0.6756 -0.1742 -0.2783
   71MOL    C1539355   2.924   4.521   7.746  0.4447  0.3914  0.1063
   71MOL    C1639356   2.948   4.430   7.646 -0.1091  0.7326 -0.2134
   71MOL    C1739357   2.856   4.426   7.540 -0.0388 -0.0216  0.4095
   71MOL    C1839358   2.875   4.333   7.438 -0.2715  0.4538 -0.3415
   71MOL    H1939359   3.176   4.200   7.516 -0.3332 -0.3173 -2.1764
   71MOL    H2039360   3.245   4.290   7.732 -0.7693 -0.6999  0.9798
   71MOL    H2139361   3.216   4.451   7.918 -0.3549 -0.6504  0.3401
   71MOL    H2239362   3.005   4.797   8.170 -0.3614 -1.7016  0.5179
   71MOL    H2339363   3.150   4.723   8.234  1.1102  0.1296  0.2389
   71MOL    H2439364   3.149   4.897   8.005 -0.2619  0.4852  0.7211
   71MOL    H2539365   3.188   4.955   8.168 -1.3473  1.2756 -0.3047
   71MOL    H2639366   2.841   4.590   7.750 -0.7353 -0.9653 -0.7211
   71MOL    H2739367   2.764   4.482   7.546 -0.5110 -0.6425 -0.7782
   71MOL    H2839368   2.803   4.325   7.357  0.9654 -1.6506 -1.2868
   71MOL    H2939369   3.144   4.069   7.213 -0.7748  0.1134 -0.1649
   71MOL    O3039370   3.382   4.898   0.046 -0.0568  0.6436 -0.0085
   71MOL    C3139371   3.402   4.826   8.195  0.8045 -0.1079  0.0840
   71MOL    O3239372   3.321   4.825   8.089  0.5023  0.4778 -0.0194
   71MOL    C3339373   3.512   4.724   8.185 -0.6630  0.0304  0.0356
   71MOL    C3439374   3.509   4.619   8.094 -0.4098 -0.1481  0.2088
   71MOL    C3539375   3.613   4.521   8.086 -0.3300 -0.4843 -0.0663
   71MOL    C3639376   3.611   4.422   7.987  1.0831 -0.1031  0.0057
   71MOL    C3739377   3.710   4.326   7.975 -0.7696  0.3740  0.3507
   71MOL    C3839378   3.821   4.340   8.060  0.5863 -0.8361 -0.0901
   71MOL    C3939379   3.914   4.219   8.054 -0.0606 -0.3683  0.4876
   71MOL    O4039380   4.019   4.233   8.141  0.0215 -0.3675  0.1040
   71MOL    C4139381   4.113   4.124   8.157  0.2027 -0.5428  0.4255
   71MOL    C4239382   4.217   4.106   8.045  0.3319 -0.3492 -0.2354
   71MOL    O4339383   3.900   4.118   7.989  0.4631  0.6516 -0.4460
   71MOL    C4439384   3.824   4.434   8.161  0.1669 -0.1953  0.3625
   71MOL    C4539385   3.722   4.529   8.174 -0.2926  0.4679 -0.0714
   71MOL    C4639386   3.722   4.630   0.023  0.5809  0.3177 -0.0771
   71MOL    C4739387   3.623   4.736   0.030 -0.7125  0.5996  0.0055
   71MOL    H4839388   3.434   4.614   8.017  0.9388  0.5255 -1.1883
   71MOL    H4939389   3.522   4.409   7.926  1.0188  0.9132 -0.1243
   71MOL    H5039390   3.713   4.250   7.899  2.2924 -0.2048  0.9709
   71MOL    H5139391   4.065   4.035   8.197 -0.7325 -0.0531  0.4062
   71MOL    H5239392   4.183   4.155   8.234  0.6943 -0.0134 -0.2254
   71MOL    H5339393   4.176   4.035   7.973 -3.1299  2.9220 -1.6779
   71MOL    H5439394   4.232   4.208   8.010  2.9939 -0.4449  0.5259
   71MOL    H5539395   3.908   4.433   8.228  0.5749 -0.3122 -0.1519
   71MOL    H5639396   3.810   4.645   0.083 -0.1147 -0.1301  1.0662
   71MOL    H5739397   3.643   4.823   0.091 -0.4446  1.0697 -0.7424
   71MOL    O5839398   4.259   3.876   8.161  0.5446 -0.3413 -0.1460
   71MOL    C5939399   4.356   3.940   8.119 -0.7059  0.0804  0.5585
   71MOL    O6039400   4.345   4.061   8.082  0.3033  0.6263  1.1338
   71MOL    C6139401   4.497   3.890   8.122  0.4991  0.0237 -0.9848
   71MOL    C6239402   4.530   3.805   8.228 -0.2637 -0.2587 -0.9596
   71MOL    C6339403   4.666   3.767   8.248 -0.4857 -0.0821 -0.5094
   71MOL    C6439404   4.698   3.683   0.104 -0.0503  0.7877 -0.5644
   71MOL    C6539405   4.836   3.649   0.116 -0.2711 -0.0240  0.2680
   71MOL    C6639406   4.936   3.690   0.025 -0.1788 -0.1022  0.6540
   71MOL    C6739407   5.085   3.660   0.046 -0.2986 -0.4011  0.1107
   71MOL    O6839408   5.102   3.581   0.147  0.1836  0.1471  0.0487
   71MOL    C6939409   5.228   3.524   0.179  0.0914  0.2671  0.3706
   71MOL    C7039410   5.327   3.610   0.259  0.4357 -0.1241 -0.3525
   71MOL    O7139411   5.177   3.716   8.240 -0.4320 -0.3169 -0.1161
   71MOL    C7239412   4.898   3.766   8.161  0.1995  0.2878  0.5293
   71MOL    C7339413   4.764   3.805   8.151  0.0877 -0.3620  0.2930
   71MOL    C7439414   4.726   3.892   8.048  0.2741  0.6622  0.6033
   71MOL    C7539415   4.593   3.935   8.029  0.1433  0.7803 -0.1729
   71MOL    H7639416   4.452   3.775   0.046  0.8490  1.8127  1.3560
   71MOL    H7739417   4.630   3.652   0.182  0.3236 -0.0318 -0.5646
   71MOL    H7839418   4.861   3.587   0.200  1.6175  0.8419  0.3673
   71MOL    H7939419   5.268   3.484   0.086 -4.0229 -0.1782 -1.2971
   71MOL    H8039420   5.220   3.436   0.242  0.2602  0.3540  0.5141
   71MOL    H8139421   5.377   3.692   0.207  1.3807 -0.8430 -0.5974
   71MOL    H8239422   5.270   3.654   0.341 -1.8138 -3.1420 -0.2262
   71MOL    H8339423   4.980   3.808   8.105 -0.9043  2.9190  0.8421
   71MOL    H8439424   4.810   3.915   7.984  1.2417 -4.2182 -0.0981
   71MOL    H8539425   4.573   3.989   7.937 -1.3685  1.0186  0.2872
   71MOL    O8639426   5.549   3.468   0.140 -0.2281  0.0433  0.3755
   71MOL    C8739427   5.531   3.479   0.267  0.5069 -0.0444 -0.1279
   71MOL    O8839428   5.433   3.538   0.328 -0.0531 -0.6623  0.9997
   71MOL    C8939429   5.615   3.412   0.370  0.7040 -0.7048 -0.3871
   71MOL    C9039430   5.609   3.436   0.511 -0.4543  0.0027  0.4101
   71MOL    C9139431   5.697   3.370   0.608  0.7622 -0.0653 -0.5390
   71MOL    C9239432   5.698   3.401   0.746  0.2895 -0.2326  0.5803
   71MOL    C9339433   5.769   3.321   0.834  0.3158  0.3001 -0.0831
   71MOL    C9439434   5.863   3.227   0.791 -0.5052 -0.7222 -0.1452
   71MOL    C9539435   5.943   3.149   0.892  0.5246 -0.4692  0.5008
   71MOL    O9639436   6.009   3.042   0.832  0.1219 -0.3197 -0.2077
   71MOL    C9739437   6.089   2.957   0.906 -0.9878  0.1629  0.4822
   71MOL    C9839438   6.232   2.991   0.886  1.1907  0.6515  0.1066
   71MOL    O9939439   5.951   3.173   1.010  0.1658  0.2607  0.6461
   71MOL   C10039440   5.873   3.210   0.648  0.0716  0.0000 -0.0494
   71MOL   C10139441   5.797   3.282   0.552  0.6029 -0.3144 -0.5572
   71MOL   C10239442   5.807   3.262   0.418 -0.1951 -0.8722 -0.2132
   71MOL   C10339443   5.719   3.327   0.322  0.6113  0.0893  0.8611
   71MOL   H10439444   5.534   3.500   0.554 -0.4267 -0.6705  1.4687
   71MOL   H10539445   5.629   3.479   0.777 -0.1179 -0.1043 -0.6222
   71MOL   H10639446   5.750   3.333   0.940  0.3697 -0.4089  0.0090
   71MOL   H10739447   6.074   2.854   0.874  0.4573 -0.0108  0.3242
   71MOL   H10839448   6.062   2.953   1.012 -1.5842 -0.0042  0.3244
   71MOL   H10939449   6.262   2.976   0.782 -3.0477 -3.6654 -0.7036
   71MOL   H11039450   6.240   3.099   0.898  0.3364  0.5309  1.9409
   71MOL   H11139451   5.940   3.136   0.604  0.8746  0.3232  0.6097
   71MOL   H11239452   5.881   3.196   0.375 -0.0693 -2.8117  2.8450
   71MOL   H11339453   5.728   3.312   0.215 -1.0732 -2.6552  1.0402
   71MOL   O11439454   6.402   3.076   1.089  0.5277 -0.0524 -0.1017
   71MOL   C11539455   6.398   2.955   1.057 -0.6979  0.1266 -0.1350
   71MOL   O11639456   6.307   2.905   0.976 -0.3654  0.2869 -0.1160
   71MOL   C11739457   6.489   2.854   1.115  0.1527 -0.1606  0.4066
   71MOL   C11839458   6.565   2.886   1.233  1.0894 -0.0187 -0.2843
   71MOL   C11939459   6.656   2.792   1.289  0.4388 -0.0557  0.3382
   71MOL   C12039460   6.748   2.827   1.389 -0.3636 -0.1914  0.3328
   71MOL   C12139461   6.849   2.736   1.427  0.6313 -0.0349 -0.4260
   71MOL   C12239462   6.854   2.607   1.365 -0.1729 -0.0571 -0.0556
   71MOL   C12339463   6.964   2.510   1.393 -0.0341  0.3007  0.3201
   71MOL   O12439464   7.055   2.554   1.481 -0.0811 -0.4963  0.1538
   71MOL   C12539465   7.160   2.467   1.529  0.4030 -0.2577  0.1287
   71MOL   C12639466   7.285   2.547   1.561 -0.0535  0.2312 -0.6522
   71MOL   O12739467   6.977   2.402   1.339 -0.1445  0.4696  0.2546
   71MOL   C12839468   6.759   2.578   1.268 -0.1937  0.5426 -0.2524
   71MOL   C12939469   6.661   2.665   1.229 -0.6332 -0.3218  0.3012
   71MOL   C13039470   6.579   2.627   1.125 -0.7326  0.2306 -0.2038
   71MOL   C13139471   6.502   2.723   1.058  0.3872 -0.5844  0.1104
   71MOL   H13239472   6.556   2.982   1.282 -1.5282 -0.9158  1.1082
   71MOL   H13339473   6.735   2.919   1.444 -0.5348  0.6598 -1.1050
   71MOL   H13439474   6.916   2.765   1.507  1.5914  2.4417 -2.0617
   71MOL   H13539475   7.189   2.411   1.439 -1.4183 -0.1599 -0.5369
   71MOL   H13639476   7.119   2.406   1.609  0.5437 -0.4725  0.0385
   71MOL   H13739477   7.373   2.483   1.573 -1.7617 -1.9265  0.6956
   71MOL   H13839478   7.320   2.604   1.475 -0.0632 -2.0262 -2.1751
   71MOL   H13939479   6.766   2.481   1.221 -2.9747  0.6160 -0.8990
   71MOL   H14039480   6.580   2.529   1.079 -1.5040 -0.6724  1.6427
   71MOL   H14139481   6.447   2.692   0.970 -0.5829  0.2913  0.4071
   71MOL   O14239482   7.343   2.480   1.824 -0.4075 -0.3418  0.0788
   71MOL   C14339483   7.288   2.585   1.797 -0.5793 -0.0293 -0.6373
   71MOL   O14439484   7.268   2.631   1.665 -0.5502 -0.6405  0.5007
   71MOL   C14539485   7.222   2.667   1.901 -0.1871 -0.2180 -0.1765
   71MOL   C14639486   7.146   2.783   1.863 -0.7240 -0.3984 -0.4965
   71MOL   C14739487   7.082   2.864   1.954 -0.4251  0.2196  0.0879
   71MOL   C14839488   7.015   2.984   1.923  0.1905  0.2565  0.5716
   71MOL   C14939489   6.950   3.058   2.021  0.2556  0.0029  0.3352
   71MOL   C15039490   6.950   3.016   2.157 -0.5129 -0.2213 -0.5912
   71MOL   C15139491   6.875   3.090   2.263  0.0305  0.2960  0.0201
   71MOL   O15239492   6.926   3.067   2.383 -0.4405 -0.0682  0.0918
   71MOL   C15339493   6.874   3.143   2.501 -0.8310  0.1006 -0.3799
   71MOL   C15439494   6.756   3.069   2.560  0.2209  0.0572 -0.5768
   71MOL   O15539495   6.784   3.174   2.246  0.2947  0.3512  0.9490
   71MOL   C15639496   7.030   2.902   2.188  0.6861  0.4520  0.7127
   71MOL   C15739497   7.087   2.821   2.092 -0.1514  0.4229  0.3835
   71MOL   C15839498   7.162   2.710   2.130 -0.4159 -0.3721 -0.1684
   71MOL   C15939499   7.232   2.633   2.036  0.1480 -0.0358  0.2582
   71MOL   H16039500   7.137   2.814   1.760 -0.4006  0.2292 -0.3353
   71MOL   H16139501   7.010   3.008   1.818  0.8710 -0.3173  0.4005
   71MOL   H16239502   6.907   3.155   1.997 -2.1155 -0.5444  2.2091
   71MOL   H16339503   6.844   3.244   2.474  0.7563  0.9987  1.1037
   71MOL   H16439504   6.956   3.142   2.573  0.3980 -1.9624 -1.7377
   71MOL   H16539505   6.685   3.139   2.605  0.6881 -0.6778  1.3376
   71MOL   H16639506   6.696   3.014   2.487 -0.2938 -0.1671  0.0064
   71MOL   H16739507   7.016   2.862   2.288 -0.7002 -1.0054 -0.0386
   71MOL   H16839508   7.183   2.685   2.233 -2.1609 -0.1715  0.2366
   71MOL   H16939509   7.296   2.549   2.058 -0.1883  0.1296  1.9706
   71MOL   O17039510   6.875   2.804   2.541  0.3207  0.3015  0.0556
   71MOL   C17139511   6.865   2.859   2.646  0.2618  0.4310 -0.3607
   71MOL   O17239512   6.802   2.982   2.662 -0.0764 -0.0147 -0.5709
   71MOL   C17339513   6.896   2.795   2.776 -0.3314 -0.1524 -0.4818
   71MOL   C17439514   6.877   2.653   2.792 -0.0427  0.4802 -0.4006
   71MOL   C17539515   6.891   2.597   2.921 -0.1449  1.1279 -0.2893
   71MOL   C17639516   6.883   2.456   2.932  0.2676 -0.2168 -0.0406
   71MOL   C17739517   6.888   2.389   3.058 -0.0725  0.1345 -0.3986
   71MOL   C17839518   6.921   2.469   3.175  0.1851 -0.4076 -0.0087
   71MOL   C17939519   6.943   2.416   3.303 -0.1974 -0.3978 -0.2315
   71MOL   O18039520   7.052   2.467   3.358 -0.4983 -0.0368  0.3107
   71MOL   C18139521   7.089   2.438   3.497  0.1012 -0.3557 -0.3964
   71MOL   C18239522   7.030   2.542   3.593 -0.6206  0.2177  0.2025
   71MOL   O18339523   6.873   2.330   3.355 -0.3549 -0.2008 -0.0461
   71MOL   C18439524   6.937   2.610   3.159 -0.2729 -0.2291 -0.4199
   71MOL   C18539525   6.926   2.668   3.037  0.2888 -0.0781 -0.0470
   71MOL   C18639526   6.937   2.808   3.020 -0.4311  0.0204  0.6088
   71MOL   C18739527   6.932   2.866   2.894 -0.0394  0.1956 -0.1963
   71MOL   H18839528   6.854   2.597   2.703 -0.6782 -0.2724  0.2345
   71MOL   H18939529   6.863   2.399   2.842  0.6437  0.5668 -0.6279
   71MOL   H19039530   6.883   2.283   3.077  1.4864  0.4155  1.7993
   71MOL   H19139531   7.198   2.437   3.504  0.1348 -0.4967 -0.9531
   71MOL   H19239532   7.047   2.339   3.516  1.5016 -0.9082 -0.0621
   71MOL   H19339533   6.926   2.518   3.612 -0.7294 -0.6209 -1.3479
   71MOL   H19439534   7.091   2.536   3.683 -0.3113 -0.9740 -0.0776
   71MOL   H19539535   6.963   2.681   3.237  2.1565  0.0395 -1.4208
   71MOL   H19639536   6.965   2.875   3.100 -0.2457 -0.4373  0.9247
   71MOL   H19739537   6.943   2.974   2.891  1.7300 -0.0175 -3.5368
   71MOL   O19839538   7.244   2.706   3.547 -0.2557  0.3901  0.5879
   71MOL   C19939539   7.134   2.750   3.515  0.9021 -0.0076 -0.3262
   71MOL   O20039540   7.026   2.676   3.541  0.4680  0.1149  0.8021
   71MOL   C20139541   7.106   2.869   3.435  0.7653 -1.0815  0.1066
   71MOL   C20239542   7.212   2.941   3.373  0.2418 -0.5074 -0.2521
   71MOL   C20339543   7.177   3.042   3.281 -0.2305  0.3486  0.2954
   71MOL   C20439544   7.276   3.107   3.203 -0.0390 -0.0181 -0.2080
   71MOL   C20539545   7.247   3.203   3.100  0.0691  0.4332  0.0662
   71MOL   C20639546   7.118   3.241   3.077  0.4571 -0.2190  0.0083
   71MOL   C20739547   7.089   3.361   2.984 -0.3728 -0.6165  0.3099
   71MOL   O20839548   6.955   3.377   2.965 -0.3940 -0.3430  0.5395
   71MOL   C20939549   6.907   3.470   2.873 -0.0212  0.0884  0.1269
   71MOL   C21039550   6.896   3.412   2.724 -0.5052  0.4643 -0.4329
   71MOL   O21139551   7.175   3.438   2.941 -0.9630 -0.7832  0.2354
   71MOL   C21239552   7.014   3.180   3.161 -0.3529  0.8408 -0.1455
   71MOL   C21339553   7.043   3.079   3.259 -0.2351  0.7611  0.2133
   71MOL   C21439554   6.945   3.017   3.335  0.3104  0.5861 -0.6844
   71MOL   C21539555   6.974   2.907   3.411  0.1244  0.1231 -0.7611
   71MOL   H21639556   7.316   2.920   3.392  0.0477 -1.1913  0.0637
   71MOL   H21739557   7.375   3.073   3.231 -0.9703 -1.9215  0.8685
   71MOL   H21839558   7.328   3.244   3.042 -1.6006  3.6422 -0.1161
   71MOL   H21939559   6.967   3.561   2.877  0.9533 -0.5577  0.2223
   71MOL   H22039560   6.813   3.485   2.926  0.1227  0.0767  0.3857
   71MOL   H22139561   6.864   3.308   2.734 -2.1274  1.0512  0.5789
   71MOL   H22239562   6.825   3.466   2.661 -1.3691 -1.1961 -0.9153
   71MOL   H22339563   6.912   3.212   3.144 -0.9405 -1.2736 -0.6953
   71MOL   H22439564   6.841   3.047   3.328 -0.6831 -2.0912  1.5437
   71MOL   H22539565   6.894   2.862   3.469 -0.7642  1.7110 -0.7193
   71MOL   O22639566   7.046   3.636   2.664 -0.0660  0.2540  0.6138
   71MOL   C22739567   7.086   3.526   2.616 -0.0490  0.3716 -0.6995
   71MOL   O22839568   7.014   3.414   2.642 -0.0092  0.4094 -0.0735
   71MOL   C22939569   7.215   3.498   2.544 -0.9827 -0.5188  0.2637
   71MOL   C23039570   7.320   3.593   2.550 -0.4632 -0.1951 -0.2101
   71MOL   C23139571   7.439   3.574   2.470  0.4549 -0.0617 -0.1444
   71MOL   C23239572   7.535   3.676   2.473 -0.5968 -0.4062  0.6490
   71MOL   C23339573   7.655   3.657   2.401  0.1066  0.0437 -0.2679
   71MOL   C23439574   7.678   3.535   2.334  0.4351  0.0615  0.3634
   71MOL   C23539575   7.794   3.503   2.248  0.3266  0.1357  0.5248
   71MOL   O23639576   7.863   3.607   2.204  0.9508 -0.0157  0.0168
   71MOL   C23739577   7.983   3.596   2.132 -0.1197  0.2156 -0.9714
   71MOL   C23839578   8.096   3.582   2.235  0.1162  0.0184 -0.2644
   71MOL   O23939579   7.817   3.385   2.212 -0.4624 -0.7813 -0.0118
   71MOL   C24039580   7.574   3.442   2.326 -1.0101  0.2881 -0.3127
   71MOL   C24139581   7.455   3.460   2.396 -0.3259  0.2451  1.2098
   71MOL   C24239582   7.351   3.364   2.396  0.1070 -0.2044  0.6682
   71MOL   C24339583   7.234   3.380   2.468 -0.0703 -0.0276  0.0910
   71MOL   H24439584   7.301   3.691   2.590  2.7492  0.6695 -0.6732
   71MOL   H24539585   7.525   3.769   2.527 -1.6827  0.8382 -1.6204
   71MOL   H24639586   7.724   3.740   2.412 -0.1452  0.2490 -0.2381
   71MOL   H24739587   7.990   3.694   2.085  1.9125  0.4731 -0.1734
   71MOL   H24839588   7.971   3.522   2.052 -0.9032 -0.1410 -0.5313
   71MOL   H24939589   8.094   3.503   2.309 -0.6162  1.7119  1.5432
   71MOL   H25039590   8.187   3.563   2.177 -0.6508 -0.8955 -1.1883
   71MOL   H25139591   7.579   3.351   2.269 -1.0466 -0.5957  1.0693
   71MOL   H25239592   7.363   3.283   2.326 -0.4125 -0.3452  0.7437
   71MOL   H25339593   7.156   3.305   2.469  0.6200 -0.7499  0.0930
   71MOL   O25439594   0.022   3.789   2.175  0.1605 -0.1478  0.1226
   71MOL   C25539595   8.189   3.802   2.264 -0.0323  0.9777  0.3328
   71MOL   O25639596   8.114   3.698   2.312  0.0615 -0.1871  0.1050
   71MOL   C25739597   8.156   3.933   2.331 -0.5388 -0.2874 -0.0749
   71MOL   C25839598   8.061   3.943   2.444 -0.0198  0.5175  0.9378
   71MOL   C25939599   8.032   4.071   2.497  0.7669  0.2373 -0.3521
   71MOL   C26039600   7.937   4.091   2.598 -0.0744 -0.1649 -0.4710
   71MOL   C26139601   7.913   4.220   2.649 -0.2319 -0.0378 -0.7815
   71MOL   C26239602   7.979   4.332   2.594  0.7009 -0.4068 -0.5360
   71MOL   C26339603   7.950   4.467   2.655 -0.9491 -0.1071 -0.8995
   71MOL   O26439604   7.987   4.573   2.574  0.1243 -0.1929 -0.1202
   71MOL   C26539605   7.953   4.707   2.614 -0.1855  0.4509  0.2123
   71MOL   C26639606   8.079   4.769   2.673 -0.5939  0.6179 -0.0303
   71MOL   O26739607   7.903   4.493   2.766  0.3403 -0.0733 -0.3291
   71MOL   C26839608   8.085   4.308   2.503  0.4990 -0.2521 -0.1645
   71MOL   C26939609   8.104   4.184   2.448 -0.6683 -0.2549  0.2302
   71MOL   C27039610   8.207   4.171   2.349  0.1594 -0.5254 -0.1504
   71MOL   C27139611   8.229   4.046   2.295  0.4685  0.0439  0.3133
   71MOL   H27239612   7.997   3.860   2.472  0.0880 -1.2223 -3.4644
   71MOL   H27339613   7.894   4.003   2.644  1.2590 -0.6134 -0.0652
   71MOL   H27439614   7.838   4.238   2.725  1.8855 -0.6205  1.4783
   71MOL   H27539615   7.864   4.698   2.677  0.7574 -2.1828  1.2339
   71MOL   H27639616   7.922   4.748   2.518  0.2075  1.5391  0.5430
   71MOL   H27739617   8.143   4.694   2.720 -0.3438  0.9770  0.1990
   71MOL   H27839618   8.138   4.810   2.591  2.8891 -2.7048  0.6827
   71MOL   H27939619   8.137   4.393   2.461  0.3831 -0.8715 -1.6036
   71MOL   H28039620   0.017   4.251   2.307  1.3011 -2.3265 -2.0619
   71MOL   H28139621   0.058   4.033   2.222  1.7561 -2.5697  2.0987
   71MOL   O28239622   7.958   5.045   2.658 -0.4351 -0.0799  0.3718
   71MOL   C28339623   8.018   4.994   2.754 -0.8603  0.3681  0.0727
   71MOL   O28439624   8.051   4.863   2.777  0.5389 -0.4638  0.5094
   71MOL   C28539625   8.045   5.075   2.874  0.6949 -0.0909  0.3654
   71MOL   C28639626   8.011   5.212   2.870  0.0598  1.0933 -0.4435
   71MOL   C28739627   8.008   5.289   2.988 -0.0783  0.0413 -0.4983
   71MOL   C28839628   7.958   5.422   2.983 -0.7933  0.9382  1.0455
   71MOL   C28939629   7.970   5.504   3.100 -0.3533 -0.1941  0.2546
   71MOL   C29039630   8.025   5.453   3.222 -0.4894 -0.3604  0.0863
   71MOL   C29139631   8.043   5.542   3.340  0.2603  1.0739 -0.3552
   71MOL   O29239632   8.038   5.676   3.308 -0.0570  0.2087 -0.2859
   71MOL   C29339633   8.036   5.770   3.415 -0.0087 -0.3766 -0.5168
   71MOL   C29439634   7.895   5.807   3.439 -0.0918 -0.6611 -0.4021
   71MOL   O29539635   8.055   5.491   3.451 -0.3796 -0.1114 -0.2040
   71MOL   C29639636   8.070   5.319   3.223 -0.1371 -0.4475  0.1762
   71MOL   C29739637   8.058   5.235   3.109  0.5278  1.2784  0.3565
   71MOL   C29839638   8.110   5.102   3.111  0.2337 -0.3460  0.2407
   71MOL   C29939639   8.093   5.020   2.997 -0.1928 -0.4695  0.4252
   71MOL   H30039640   7.973   5.252   2.777 -4.1648  0.7792  1.0248
   71MOL   H30139641   7.909   5.454   2.892  1.4022 -3.2272 -1.7787
   71MOL   H30239642   7.915   5.597   3.098  0.5504  0.3348 -0.7704
   71MOL   H30339643   8.105   5.852   3.396 -0.1931  0.6418  2.8780
   71MOL   H30439644   8.080   5.721   3.502 -0.3447  1.4789  0.7265
   71MOL   H30539645   7.878   5.892   3.506 -0.9708 -1.5382  0.5039
   71MOL   H30639646   7.851   5.844   3.347  0.5525 -0.1533 -0.5101
   71MOL   H30739647   8.114   5.273   3.310 -0.3360  0.8271  0.9713
   71MOL   H30839648   8.155   5.063   3.201 -0.8675  1.6373  1.6825
   71MOL   H30939649   8.114   4.914   3.006 -0.8494 -0.7948 -1.5362
   71MOL   O31039650   7.894   5.715   3.702 -0.3736 -0.7371 -0.4620
   71MOL   C31139651   7.826   5.661   3.616  0.3629 -0.0989 -0.1903
   71MOL   O31239652   7.813   5.702   3.486 -0.1499  0.3834 -0.1008
   71MOL   C31339653   7.760   5.527   3.639  0.5977  0.4007  0.1749
   71MOL   C31439654   7.702   5.465   3.530 -0.8204 -0.5968 -0.2415
   71MOL   C31539655   7.637   5.340   3.544  0.2325 -0.3967 -0.0396
   71MOL   C31639656   7.590   5.272   3.428  0.6893 -0.1540  0.2461
   71MOL   C31739657   7.541   5.137   3.443  0.4085 -0.2770 -0.4127
   71MOL   C31839658   7.532   5.082   3.573  0.4214 -1.0260  0.2950
   71MOL   C31939659   7.463   4.949   3.589 -0.8193 -0.1727 -0.2574
   71MOL   O32039660   7.466   4.900   3.713 -0.2447 -0.0242 -0.2934
   71MOL   C32139661   7.379   4.790   3.743  0.2048  0.2818 -0.2364
   71MOL   C32239662   7.442   4.665   3.687 -0.1078  0.6807 -0.1527
   71MOL   O32339663   7.405   4.895   3.495 -0.5738 -0.2734 -0.6256
   71MOL   C32439664   7.592   5.148   3.686  0.1453  0.2313 -0.1795
   71MOL   C32539665   7.640   5.277   3.671 -0.5387  0.1719 -0.6861
   71MOL   C32639666   7.686   5.347   3.777  0.4453 -0.0857  0.5757
   71MOL   C32739667   7.750   5.473   3.768  0.2685 -0.5471 -0.4826
   71MOL   H32839668   7.703   5.498   3.427 -0.6431 -2.3451 -0.8130
   71MOL   H32939669   7.589   5.307   3.326 -0.1378  2.2322  1.0436
   71MOL   H33039670   7.493   5.088   3.359 -0.7965  1.7916 -0.9686
   71MOL   H33139671   7.277   4.807   3.709  0.3008 -0.6433 -0.9986
   71MOL   H33239672   7.376   4.791   3.852 -2.8450  0.6232 -0.2898
   71MOL   H33339673   7.487   4.693   3.591 -2.4539  1.8142 -0.9712
   71MOL   H33439674   7.529   4.629   3.743  0.1526 -0.0940 -1.0342
   71MOL   H33539675   7.591   5.092   3.779  0.7957 -1.5945 -1.2610
   71MOL   H33639676   7.689   5.313   3.880 -0.7135 -1.0907  0.2814
   71MOL   H33739677   7.784   5.526   3.855 -1.5248 -0.3851  0.1425
   71MOL   O33839678   7.337   4.505   3.881 -0.2360  0.0180 -0.5622
   71MOL   C33939679   7.288   4.505   3.772  0.2732  0.5151 -0.2510
   71MOL   O34039680   7.338   4.570   3.667 -0.2489 -0.1075  0.3823
   71MOL   C34139681   7.167   4.439   3.733 -0.8302 -0.2511  0.5232
   71MOL   C34239682   7.076   4.393   3.833 -0.5195 -0.1812  0.1269
   71MOL   C34339683   6.948   4.337   3.809 -0.2272 -0.3459 -0.1535
   71MOL   C34439684   6.857   4.294   3.908  0.3908 -0.3124  0.4215
   71MOL   C34539685   6.737   4.226   3.874 -0.4965  0.3600  0.5142
   71MOL   C34639686   6.705   4.213   3.739 -0.0030  0.3180 -0.3515
   71MOL   C34739687   6.595   4.121   3.701 -0.1722  0.3477 -0.3282
   71MOL   O34839688   6.618   4.069   3.576  0.5027 -0.1424 -0.3354
   71MOL   C34939689   6.548   3.949   3.547  0.1284  0.2970 -0.0406
   71MOL   C35039690   6.581   3.836   3.652 -0.6592 -0.2306 -0.3591
   71MOL   O35139691   6.488   4.096   3.756  0.0301  0.3475 -0.0844
   71MOL   C35239692   6.783   4.274   3.636 -0.1808  0.7416 -0.6751
   71MOL   C35339693   6.906   4.329   3.676 -0.4945 -0.1757  0.5870
   71MOL   C35439694   6.997   4.364   3.572 -0.0363 -0.4036 -0.4294
   71MOL   C35539695   7.128   4.418   3.596  0.3890 -0.1641 -0.0773
   71MOL   H35639696   7.100   4.404   3.937 -0.1227 -1.6877  0.1943
   71MOL   H35739697   6.882   4.301   4.012 -0.3127 -0.3645  0.6014
   71MOL   H35839698   6.677   4.178   3.949 -2.2407  1.4353 -0.1761
   71MOL   H35939699   6.582   3.930   3.446 -0.2138 -1.8810  0.2306
   71MOL   H36039700   6.441   3.969   3.548  0.3291  1.3814  1.3374
   71MOL   H36139701   6.498   3.831   3.722  1.9329 -0.1513  2.8621
   71MOL   H36239702   6.571   3.738   3.605 -0.9460  0.1472 -1.0913
   71MOL   H36339703   6.770   4.263   3.529 -4.4970 -2.3138  0.0098
   71MOL   H36439704   6.964   4.349   3.470 -2.1387  0.4176  0.1003
   71MOL   H36539705   7.185   4.460   3.515  2.0623 -2.7231 -0.2882
   71MOL   O36639706   6.810   3.763   3.525  0.2257  0.1298 -0.5897
   71MOL   C36739707   6.815   3.810   3.638  0.4529  0.1290 -0.5373
   71MOL   O36839708   6.711   3.843   3.706 -0.1317 -0.1872  0.1267
   71MOL   C36939709   6.942   3.833   3.708  0.3689 -0.6897  0.1248
   71MOL   C37039710   6.944   3.900   3.833  0.5174  0.1478  0.2914
   71MOL   C37139711   7.058   3.971   3.869 -0.6130  0.0035  0.2660
   71MOL   C37239712   7.061   4.049   3.985 -0.0088 -0.6149 -0.0271
   71MOL   C37339713   7.173   4.116   4.025  0.9189 -0.3557  0.4605
   71MOL   C37439714   7.295   4.104   3.949  0.7060 -0.9050 -0.2840
   71MOL   C37539715   7.419   4.180   3.987  0.2472  0.1285 -0.2419
   71MOL   O37639716   7.530   4.141   3.932 -0.4952  0.2542  0.5723
   71MOL   C37739717   7.655   4.178   3.986 -0.1808  0.1428 -0.1504
   71MOL   C37839718   7.700   4.050   4.068 -0.2412  0.3895 -0.0105
   71MOL   O37939719   7.421   4.267   4.074 -0.2522 -0.6491 -0.4273
   71MOL   C38039720   7.302   4.008   3.848 -0.2409  0.3874  0.1761
   71MOL   C38139721   7.181   3.951   3.805 -0.7309  0.3641  0.1021
   71MOL   C38239722   7.183   3.868   3.688 -0.5951 -0.6136 -0.3248
   71MOL   C38339723   7.067   3.810   3.647  0.4011  0.0988 -0.8332
   71MOL   H38439724   6.851   3.908   3.888  0.5592 -1.8912  0.6916
   71MOL   H38539725   6.970   4.055   4.042 -0.5575  3.3997 -1.1314
   71MOL   H38639726   7.182   4.175   4.115  0.4284 -0.0410  0.3054
   71MOL   H38739727   7.656   4.273   4.041  1.7986 -0.2512  0.5328
   71MOL   H38839728   7.716   4.185   3.896 -0.0215  0.4856 -0.0185
   71MOL   H38939729   7.685   3.961   4.007 -1.1880  0.2324  0.4406
   71MOL   H39039730   7.805   4.060   4.097 -0.4202 -1.2219  1.2643
   71MOL   H39139731   7.395   3.984   3.799 -0.2952 -2.1976  1.2509
   71MOL   H39239732   7.276   3.847   3.637  0.1799  2.8611 -0.4689
   71MOL   H39339733   7.070   3.746   3.560 -0.6012  0.7200 -1.3310
   71MOL   O39439734   7.749   4.194   4.309 -0.3331  0.4919 -0.2102
   71MOL   C39539735   7.668   4.102   4.303 -0.1906  0.2300  0.2211
   71MOL   O39639736   7.622   4.049   4.186  0.1109  0.4225  0.3751
   71MOL   C39739737   7.611   4.030   4.418  0.4251 -0.1968 -0.0196
   71MOL   C39839738   7.654   4.060   4.547 -0.1363  0.2939 -0.3737
   71MOL   C39939739   7.611   3.986   4.654  0.2116 -0.2960 -0.2928
   71MOL   C40039740   7.673   4.002   4.775  0.4112 -0.1571 -0.5642
   71MOL   C40139741   7.634   3.919   4.884  0.1589 -0.2178 -0.2036
   71MOL   C40239742   7.544   3.812   4.871 -0.4110 -0.4654  0.1189
   71MOL   C40339743   7.500   3.717   4.978  0.1069 -0.1840 -0.7357
   71MOL   O40439744   7.534   3.769   5.092 -0.2237  0.2583 -0.5629
   71MOL   C40539745   7.515   3.695   5.220  0.1602 -0.0980 -0.0489
   71MOL   C40639746   7.632   3.598   5.240 -0.2854  0.4812  0.2810
   71MOL   O40739747   7.442   3.612   4.959  0.2804  0.3406  0.0835
   71MOL   C40839748   7.488   3.793   4.745  0.4366  0.1656  0.2328
   71MOL   C40939749   7.524   3.875   4.639  0.3507  0.1270 -0.2339
   71MOL   C41039750   7.472   3.852   4.505  0.0017  0.0557 -0.3802
   71MOL   C41139751   7.525   3.922   4.397  1.0696 -0.2650  0.0173
   71MOL   H41239752   7.723   4.143   4.556 -0.2750  0.4341 -0.6034
   71MOL   H41339753   7.747   4.079   4.789 -0.0209 -0.2465  2.4423
   71MOL   H41439754   7.686   3.927   4.979  0.6948  1.4920 -0.6256
   71MOL   H41539755   7.417   3.648   5.221  0.4812 -0.7692  0.6667
   71MOL   H41639756   7.516   3.759   5.308 -1.7041 -0.8546  0.5600
   71MOL   H41739757   7.597   3.496   5.255  0.8604  0.0552  0.0954
   71MOL   H41839758   7.696   3.596   5.152 -1.5918 -1.7196 -0.6589
   71MOL   H41939759   7.410   3.722   4.720 -1.1454  2.3163 -1.0545
   71MOL   H42039760   7.401   3.770   4.504  0.4509 -0.3425  0.1623
   71MOL   H42139761   7.499   3.889   4.297  0.2243 -0.8420  0.4190
   71MOL   O42239762   7.837   3.473   5.356  0.0525  0.6807  0.5529
   71MOL   C42339763   7.801   3.580   5.405 -0.9872  0.5723  0.3063
   71MOL   O42439764   7.707   3.654   5.348 -0.1925 -0.0523  0.0433
   71MOL   C42539765   7.870   3.645   5.520  0.0833 -0.0834  0.4304
   71MOL   C42639766   7.824   3.763   5.586  0.4394 -1.0749 -0.1674
   71MOL   C42739767   7.895   3.823   5.697 -0.7209  0.2343  0.1784
   71MOL   C42839768   7.845   3.933   5.759  0.3734  0.1197  0.7463
   71MOL   C42939769   7.914   3.998   5.863 -0.0273 -0.4880  0.2266
   71MOL   C43039770   8.042   3.956   5.905  0.1369 -0.9440 -0.0622
   71MOL   C43139771   8.110   4.031   6.015 -0.0930  0.6731 -1.0296
   71MOL   O43239772   8.244   4.007   6.017 -0.6598 -0.1084 -0.1517
   71MOL   C43339773   0.076   4.067   6.124 -0.0578 -0.5195 -0.7156
   71MOL   C43439774   0.093   3.968   6.236 -0.5768  0.2292 -0.9486
   71MOL   O43539775   8.053   4.109   6.090 -0.4960 -0.5211 -0.0134
   71MOL   C43639776   8.090   3.836   5.846 -1.2544 -0.6420 -0.0571
   71MOL   C43739777   8.015   3.770   5.741  0.4685  0.1571 -0.0329
   71MOL   C43839778   8.061   3.657   5.682  0.1716  0.0469  0.2252
   71MOL   C43939779   7.995   3.600   5.573  0.0992 -0.1690  0.5564
   71MOL   H44039780   7.724   3.795   5.562  0.4565 -1.0311 -0.1828
   71MOL   H44139781   7.750   3.973   5.725 -0.4997  0.1757  3.1651
   71MOL   H44239782   7.868   4.082   5.913 -0.2763  1.3576 -2.9976
   71MOL   H44339783   0.043   4.165   6.158  0.1147  0.0227 -2.0713
   71MOL   H44439784   0.174   4.086   6.078 -0.2230 -1.3577 -1.4209
   71MOL   H44539785   0.149   4.025   6.309 -1.0843 -2.0303  1.3012
   71MOL   H44639786   8.247   3.956   6.289 -0.3873  0.0705 -0.6393
   71MOL   H44739787   8.193   3.816   5.871 -0.9920 -1.5302 -1.7402
   71MOL   H44839788   8.147   3.619   5.734 -1.2293  0.6335  3.0961
   71MOL   H44939789   8.043   3.510   5.538 -0.7547 -0.1035 -0.8508
   71MOL   O45039790   8.203   3.726   6.161 -0.7033  0.1205 -0.4553
   71MOL   C45139791   0.076   3.739   6.150  0.1119  0.0136 -0.5305
   71MOL   O45239792   0.150   3.846   6.198  0.0414 -0.4276  0.1446
   71MOL   C45339793   0.170   3.642   6.088  0.2457  0.6189  0.2692
   71MOL   C45439794   0.125   3.540   6.007  0.0056 -0.0797  0.1964
   71MOL   C45539795   0.203   3.439   5.949  0.3385  0.0124 -0.0065
   71MOL   C45639796   0.149   3.342   5.862 -0.7591 -0.2976 -0.6709
   71MOL   C45739797   0.234   3.242   5.816 -0.4431  0.0544  1.2316
   71MOL   C45839798   0.367   3.225   5.863 -0.7037  0.4947  0.0280
   71MOL   C45939799   0.462   3.129   5.813 -0.5733 -0.1172  0.5922
   71MOL   O46039800   0.591   3.145   5.849 -0.4294  0.3412 -0.4370
   71MOL   C46139801   0.698   3.063   5.796  1.1550 -0.0985  0.3610
   71MOL   C46239802   0.723   2.950   5.892  0.0287 -0.3889 -0.6203
   71MOL   O46339803   0.424   3.031   5.742 -0.0290  0.1025 -0.4409
   71MOL   C46439804   0.420   3.330   5.948  0.4158 -0.4609 -0.1181
   71MOL   C46539805   0.341   3.439   5.993  0.5743 -0.2353 -0.4849
   71MOL   C46639806   0.395   3.543   6.071  0.0609  0.2120  0.5901
   71MOL   C46739807   0.309   3.642   6.122  0.6937  0.3770 -0.8559
   71MOL   H46839808   0.019   3.542   5.985  0.0872  4.1739 -0.2339
   71MOL   H46939809   0.052   3.362   5.818 -1.5403 -0.7593  0.7940
   71MOL   H47039810   0.198   3.177   5.738  0.3992  0.5255  0.4381
   71MOL   H47139811   0.784   3.129   5.789  0.2624  1.2522  1.6920
   71MOL   H47239812   0.676   3.024   5.696  3.8622 -1.8951  0.4066
   71MOL   H47339813   0.644   2.899   5.947  1.2817 -0.1840  1.4071
   71MOL   H47439814   0.777   2.869   5.843 -0.2165 -0.5353 -0.6488
   71MOL   H47539815   0.521   3.330   5.987  1.0526  0.6330 -1.7322
   71MOL   H47639816   0.503   3.550   6.078  0.0718  0.2060  0.4503
   71MOL   H47739817   0.346   3.730   6.172 -0.5228  0.3034  0.2144
   71MOL   O47839818   0.995   2.986   5.887  0.2456  0.3772 -0.1584
   71MOL   C47939819   0.931   3.014   5.990  0.1099 -0.0778 -0.3207
   71MOL   O48039820   0.800   3.001   5.997 -0.8215 -0.2953 -0.1889
   71MOL   C48139821   0.992   3.058   6.124 -0.3393  0.5873  0.3234
   71MOL   C48239822   0.913   3.106   6.229 -0.1833 -0.2899 -0.5687
   71MOL   C48339823   0.968   3.162   6.345 -0.2147 -0.8420 -0.0876
   71MOL   C48439824   0.887   3.227   6.443 -0.5555  0.5252  0.0231
   71MOL   C48539825   0.947   3.290   6.552 -0.2375  0.6116  0.2937
   71MOL   C48639826   1.090   3.301   6.560  0.1195 -0.0997  0.4793
   71MOL   C48739827   1.148   3.366   6.677  0.2412  0.0102  0.2524
   71MOL   O48839828   1.276   3.378   6.671 -0.7778  0.4009  0.2737
   71MOL   C48939829   1.355   3.441   6.774  0.2358 -0.4255  0.2270
   71MOL   C49039830   1.389   3.336   6.888  0.4125  0.3519  0.1103
   71MOL   O49139831   1.088   3.398   6.780 -0.0408  0.6187 -0.1418
   71MOL   C49239832   1.169   3.235   6.459 -0.1774 -0.4328 -0.4640
   71MOL   C49339833   1.109   3.167   6.354 -0.4024 -0.3859  0.5396
   71MOL   C49439834   1.188   3.103   6.256 -0.2194 -0.5560 -0.7073
   71MOL   C49539835   1.134   3.051   6.138 -0.6162  0.6073  0.0041
   71MOL   H49639836   0.806   3.105   6.217 -0.3979 -0.0918  1.2503
   71MOL   H49739837   0.779   3.215   6.441 -0.3265 -1.7699  0.0369
   71MOL   H49839838   0.879   3.327   6.628  0.4928 -1.8274  2.2111
   71MOL   H49939839   1.317   3.535   6.814  0.3859 -0.2549 -0.0246
   71MOL   H50039840   1.451   3.474   6.733  0.2554 -0.2043  0.4545
   71MOL   H50139841   1.312   3.263   6.914  0.8113  0.6687  2.2148
   71MOL   H50239842   1.475   3.281   6.851 -0.8291 -2.3905  1.2026
   71MOL   H50339843   1.277   3.245   6.459 -0.2826  1.4478  2.0425
   71MOL   H50439844   1.293   3.094   6.280 -0.4924 -1.0851  0.3469
   71MOL   H50539845   1.201   3.002   6.069  0.2299  0.4915  0.8825
   71MOL   O50639846   1.410   3.232   7.129 -0.3893 -0.3641  0.1697
   71MOL   C50739847   1.424   3.353   7.121  0.1075 -0.0745 -0.3652
   71MOL   O50839848   1.421   3.412   7.007 -0.3912 -0.2419  0.1261
   71MOL   C50939849   1.440   3.438   7.236  0.3912 -0.1148  0.5094
   71MOL   C51039850   1.421   3.576   7.216  0.4718  0.4838 -0.3852
   71MOL   C51139851   1.449   3.664   7.325 -0.4187  0.5752 -0.6376
   71MOL   C51239852   1.426   3.803   7.309  0.0530  1.2103  0.1472
   71MOL   C51339853   1.455   3.891   7.416 -0.1528  0.5595 -0.5666
   71MOL   C51439854   1.490   3.841   7.547  0.1899 -0.2215  1.0044
   71MOL   C51539855   1.500   3.946   7.654 -0.1504 -0.3915 -0.1445
   71MOL   O51639856   1.534   3.898   7.775 -0.7651 -0.0006  0.2119
   71MOL   C51739857   1.567   3.991   7.880 -0.3558 -0.1958  0.2423
   71MOL   C51839858   1.701   4.071   7.846 -0.0747  0.3440 -0.3436
   71MOL   O51939859   1.480   4.066   7.629 -0.1376  0.1395 -0.3802
   71MOL   C52039860   1.505   3.704   7.567 -0.3470  0.1755  0.2515
   71MOL   C52139861   1.489   3.620   7.453  0.2770 -0.0395  0.2471
   71MOL   C52239862   1.485   3.479   7.470 -0.2278  0.0394 -0.4604
   71MOL   C52339863   1.464   3.386   7.366 -0.4635  0.2384  0.3596
   71MOL   H52439864   1.391   3.616   7.120 -2.9394  1.8858  1.2024
   71MOL   H52539865   1.375   3.825   7.216 -0.0096 -3.0114 -0.9567
   71MOL   H52639866   1.433   3.993   7.390  0.8507  0.9030 -0.0991
   71MOL   H52739867   1.582   3.937   7.973  1.8886 -0.0777 -0.0098
   71MOL   H52839868   1.474   4.045   7.898 -0.9249 -0.7553 -0.9199
   71MOL   H52939869   1.780   4.046   7.916  1.1042  0.1716 -1.7072
   71MOL   H53039870   1.736   4.025   7.753  1.5136  0.0410  0.3867
   71MOL   H53139871   1.525   3.662   7.665 -0.8674  1.9797  1.1653
   71MOL   H53239872   1.510   3.441   7.568  0.8452  2.6636  0.3403
   71MOL   H53339873   1.467   3.280   7.387 -0.5538  0.6499  2.5569
   71MOL   O53439874   1.754   4.231   8.051  0.1970  0.1600 -0.4902
   71MOL   C53539875   1.716   4.284   7.950 -0.6027  0.9147 -0.6998
   71MOL   O53639876   1.685   4.210   7.836 -0.0777 -0.1869  0.5931
   71MOL   C53739877   1.706   4.435   7.932  0.4552  0.2171  0.5114
   71MOL   C53839878   1.702   4.512   8.048 -0.0961  0.1080  0.1832
   71MOL   C53939879   1.670   4.651   8.037  0.2706 -1.2376  1.3433
   71MOL   C54039880   1.666   4.726   8.153 -0.1477  0.0734 -0.2648
   71MOL   C54139881   1.636   4.864   8.144 -0.3811  0.8477  0.0514
   71MOL   C54239882   1.632   4.929   8.020 -0.3783 -0.1264 -0.3828
   71MOL   C54339883   1.595   5.071   8.005  0.2231  0.4313  0.8111
   71MOL   O54439884   1.509   5.118   8.091 -0.3239 -0.3578 -0.0937
   71MOL   C54539885   1.466   5.248   8.078  0.3521  0.1111  0.4053
   71MOL   C54639886   1.432   5.301   8.218  0.1905 -0.6419  0.6235
   71MOL   O54739887   1.651   5.141   7.918  0.4546 -0.9177 -0.5737
   71MOL   C54839888   1.636   4.852   7.899  0.6810 -0.5689 -0.0442
   71MOL   C54939889   1.658   4.715   7.912 -0.4313 -0.2672  0.1194
   71MOL   C55039890   1.671   4.634   7.798  0.0109  0.2907 -0.5691
   71MOL   C55139891   1.687   4.494   7.807  0.6495  0.1857 -0.2701
   71MOL   H55239892   1.704   4.463   8.144  4.1550 -1.9624 -0.8336
   71MOL   H55339893   1.682   4.669   8.244 -1.5754  0.5541  0.3028
   71MOL   H55439894   1.629   4.926   8.232  2.4591  1.5782 -0.1873
   71MOL   H55539895   1.380   5.263   8.013  0.4433 -0.9682  0.0317
   71MOL   H55639896   1.548   5.303   8.032  2.0074 -1.6545  1.1898
   71MOL   H55739897   1.381   5.395   8.198 -0.6570 -1.4030 -0.8777
   71MOL   H55839898   1.518   5.318   0.035 -0.5772  0.4657  1.3504
   71MOL   H55939899   1.618   4.904   7.805  0.1738 -0.8064 -0.0784
   71MOL   H56039900   1.665   4.683   7.702  0.4566 -0.7678 -1.1520
   71MOL   H56139901   1.676   4.434   7.718  2.5756 -1.5056  0.5724
   71MOL   H56239902   1.363   5.237   0.025  0.0865 -1.2963 -0.2436
   72MOL     O139903   5.802   2.757   3.651 -0.4471 -0.0291 -0.7861
   72MOL     C239904   5.764   2.736   3.534 -0.2874  0.9744  0.2846
   72MOL     O339905   5.813   2.802   3.425  0.2435 -0.2625 -0.1873
   72MOL     C439906   5.658   2.644   3.494  0.7080 -0.0823 -0.4537
   72MOL     C539907   5.552   2.612   3.581  0.2014  0.1031  0.3674
   72MOL     C639908   5.449   2.530   3.540  0.6043  0.1002  0.2851
   72MOL     C739909   5.342   2.494   3.625 -0.6590 -0.5470 -0.3916
   72MOL     C839910   5.235   2.413   3.584 -0.7069 -0.0122  0.1759
   72MOL     C939911   5.236   2.350   3.453  0.6910  0.1991 -0.1696
   72MOL    C1039912   5.133   2.253   3.400  0.3951  1.2178  0.5123
   72MOL    O1139913   5.052   2.238   3.500  0.7443  0.2905 -0.5529
   72MOL    C1239914   4.954   2.141   3.484  0.0881  0.1088  0.0590
   72MOL    C1339915   5.015   2.007   3.550 -0.5002  0.9571 -0.6475
   72MOL    O1439916   5.133   2.210   3.280 -0.0463 -0.0765  0.2204
   72MOL    C1539917   5.346   2.385   3.366 -0.0043 -0.1835 -0.4953
   72MOL    C1639918   5.448   2.475   3.410  0.3358  0.3430  0.6144
   72MOL    C1739919   5.555   2.504   3.324  0.1760  0.0185  0.9217
   72MOL    C1839920   5.663   2.588   3.364 -0.0925  0.5643 -0.3368
   72MOL    H1939921   5.549   2.644   3.684 -0.9375 -0.4809  0.5303
   72MOL    H2039922   5.343   2.549   3.718  2.6152  0.5861 -1.0381
   72MOL    H2139923   5.163   2.377   3.657 -0.6615  0.8149  0.6391
   72MOL    H2239924   4.861   2.169   3.534  1.5100  2.5792  1.4015
   72MOL    H2339925   4.927   2.126   3.379  0.5705  2.0851 -0.3593
   72MOL    H2439926   4.948   1.923   3.535  1.2026 -0.1677 -2.1299
   72MOL    H2539927   5.104   1.968   3.501  0.8569  0.6086  2.0392
   72MOL    H2639928   5.353   2.338   3.269  1.3968 -0.7190 -0.1437
   72MOL    H2739929   5.559   2.454   3.228  1.7807  0.8559  0.5360
   72MOL    H2839930   5.748   2.608   3.300 -0.1007 -0.8568 -0.8015
   72MOL    H2939931   5.881   2.857   3.461 -0.8566 -0.0505  1.5997
   72MOL    O3039932   5.240   2.098   3.690 -0.1781  0.3605  0.0572
   72MOL    C3139933   5.140   2.060   3.750  0.7359 -0.6257  0.7694
   72MOL    O3239934   5.028   2.018   3.689  0.0962 -0.1956 -0.3739
   72MOL    C3339935   5.129   2.081   3.900  0.0750  0.7567  0.1252
   72MOL    C3439936   5.240   2.133   3.971  0.0295 -0.3852  0.1023
   72MOL    C3539937   5.232   2.132   4.117  0.2912  0.0717  0.3327
   72MOL    C3639938   5.336   2.179   4.190  0.0284  0.1875  0.1712
   72MOL    C3739939   5.327   2.170   4.333  0.3752 -0.3305  0.7116
   72MOL    C3839940   5.204   2.157   4.397  0.3693 -0.5791  0.0537
   72MOL    C3939941   5.185   2.164   4.545  0.1844 -0.1248 -0.4665
   72MOL    O4039942   5.284   2.238   4.613 -0.2820  0.2590 -0.2939
   72MOL    C4139943   5.278   2.239   4.752 -0.4241 -0.3654 -0.0884
   72MOL    C4239944   5.156   2.308   4.816  0.1153 -0.8575 -0.3780
   72MOL    O4339945   5.087   2.109   4.602 -0.2226  0.0793  0.4254
   72MOL    C4439946   5.092   2.135   4.319 -0.3825 -0.0840 -1.1626
   72MOL    C4539947   5.109   2.113   4.177 -0.1760 -0.6595 -0.0657
   72MOL    C4639948   4.999   2.063   4.102  0.0672  0.2512  0.1980
   72MOL    C4739949   5.010   2.044   3.966 -0.1451  0.6857 -0.5514
   72MOL    H4839950   5.334   2.158   3.925  0.2094  0.6125  0.9839
   72MOL    H4939951   5.424   2.211   4.136 -0.5996 -0.2280 -1.1184
   72MOL    H5039952   5.422   2.183   4.382  0.2530 -2.5604  1.5716
   72MOL    H5139953   5.374   2.267   4.797  0.7891 -1.4786 -1.9091
   72MOL    H5239954   5.266   2.135   4.781 -1.2497 -0.2160  0.1028
   72MOL    H5339955   5.068   2.319   4.753 -0.2227  0.8132  0.3262
   72MOL    H5439956   5.103   2.241   4.884 -1.4197 -0.1456 -0.8438
   72MOL    H5539957   4.995   2.130   4.364 -0.1460  0.3781 -0.5986
   72MOL    H5639958   4.901   2.046   4.145  1.0393  0.1539  2.4946
   72MOL    H5739959   4.920   2.023   3.909 -0.2773 -1.7313  0.5035
   72MOL    O5839960   5.176   2.558   4.709 -0.3124  0.0224 -0.4140
   72MOL    C5939961   5.193   2.541   4.829  1.1322  0.2833 -0.2241
   72MOL    O6039962   5.194   2.422   4.884  0.1115  0.2441  0.3171
   72MOL    C6139963   5.214   2.652   4.923 -0.8094  0.3187  0.5536
   72MOL    C6239964   5.275   2.781   4.891 -0.1577  0.1576 -0.3207
   72MOL    C6339965   5.292   2.876   4.990  0.7175  0.0494  0.1346
   72MOL    C6439966   5.367   2.991   4.962  0.8659  0.0347 -0.2866
   72MOL    C6539967   5.388   3.089   5.061 -0.0227  0.0856 -0.5411
   72MOL    C6639968   5.335   3.066   5.191  0.4088 -0.6464  1.0589
   72MOL    C6739969   5.356   3.164   5.303  0.3248 -0.4565 -0.2956
   72MOL    O6839970   5.453   3.264   5.282  0.7169  0.0901 -0.1090
   72MOL    C6939971   5.505   3.348   5.381 -0.1470 -0.3414 -0.5532
   72MOL    C7039972   5.589   3.275   5.480 -0.1869  0.3868  0.0480
   72MOL    O7139973   5.288   3.159   5.407  0.0990 -0.4563  0.5411
   72MOL    C7239974   5.258   2.947   5.218 -0.6997  0.3082  0.2538
   72MOL    C7339975   5.232   2.853   5.119 -0.6939 -0.3416 -0.4469
   72MOL    C7439976   5.159   2.740   5.147 -0.0153  0.3789 -0.6675
   72MOL    C7539977   5.155   2.637   5.049 -0.2598 -0.4733  0.6417
   72MOL    H7639978   5.310   2.799   4.790 -1.0794  0.2650 -0.6218
   72MOL    H7739979   5.417   3.002   4.867 -0.7755  1.0439 -1.0544
   72MOL    H7839980   5.453   3.173   5.040 -0.3963  0.4245 -0.3563
   72MOL    H7939981   5.417   3.391   5.429 -0.9402 -1.8884 -0.5750
   72MOL    H8039982   5.549   3.440   5.342  0.1824  0.0511  0.7258
   72MOL    H8139983   5.531   3.190   5.516  0.9729 -0.5412 -0.2459
   72MOL    H8239984   5.677   3.231   5.434  0.0247 -1.4774  2.1583
   72MOL    H8339985   5.219   2.922   5.316  0.7931  2.6922  1.5237
   72MOL    H8439986   5.102   2.734   5.239  0.7293  0.5758 -0.1959
   72MOL    H8539987   5.109   2.545   5.080 -0.0614 -0.3106  1.4379
   72MOL    O8639988   5.483   3.342   5.720 -0.2138  0.3172 -0.1465
   72MOL    C8739989   5.585   3.398   5.677  0.4041  0.7642 -0.1032
   72MOL    O8839990   5.643   3.374   5.568 -0.5068 -0.3528  0.5517
   72MOL    C8939991   5.657   3.504   5.755  0.3743 -0.4194  0.3534
   72MOL    C9039992   5.791   3.552   5.726  0.0116  0.0268 -0.1213
   72MOL    C9139993   5.854   3.656   5.798  1.1610  0.0075 -0.5528
   72MOL    C9239994   5.984   3.697   5.767 -0.1481 -0.3495  0.1344
   72MOL    C9339995   6.030   3.816   5.821 -0.2128 -0.0623 -0.5185
   72MOL    C9439996   5.956   3.886   5.924  0.1730  0.8276  0.7831
   72MOL    C9539997   6.009   4.010   5.988  0.1135  0.0461 -0.3298
   72MOL    O9639998   6.145   4.010   6.011  0.0853 -0.1936  0.7734
   72MOL    C9739999   6.207   4.129   6.014  0.1314 -0.5426  1.3517
   72MOL    C9840000   6.229   4.185   5.872  0.1793 -0.0192  0.0950
   72MOL    O9940001   5.937   4.093   6.032  0.1362  0.1896  0.1458
   72MOL   C10040002   5.834   3.828   5.974  0.2068  0.4080  0.3420
   72MOL   C10140003   5.786   3.709   5.905 -0.1036 -0.1496 -0.6459
   72MOL   C10240004   5.660   3.654   5.939 -0.3835  0.0207 -0.3750
   72MOL   C10340005   5.592   3.557   5.865  0.0583  0.3877  0.5300
   72MOL   H10440006   5.838   3.514   5.636 -1.0827 -0.7522 -0.3743
   72MOL   H10540007   6.021   3.653   5.675  0.3014 -1.1382  0.6861
   72MOL   H10640008   6.123   3.856   5.780  0.6888  0.8184  2.2802
   72MOL   H10740009   6.301   4.121   6.067 -0.0366 -1.5338  1.5044
   72MOL   H10840010   6.149   4.191   6.082  0.4878  0.3397  0.8664
   72MOL   H10940011   6.308   4.260   5.879  0.1532 -0.1263  1.8245
   72MOL   H11040012   6.279   4.116   5.804  3.4278  2.3478 -0.0326
   72MOL   H11140013   5.774   3.877   6.049  0.1783 -1.4030  1.5375
   72MOL   H11240014   5.603   3.701   6.018  0.7693  0.7661  0.0341
   72MOL   H11340015   5.490   3.530   5.890 -1.1395  2.7089 -1.5776
   72MOL   O11440016   6.204   4.253   5.610  0.3488 -0.3861 -0.2416
   72MOL   C11540017   6.107   4.273   5.695 -0.0241 -0.3256 -0.0817
   72MOL   O11640018   6.116   4.250   5.827  0.0117 -0.2053  0.1120
   72MOL   C11740019   5.971   4.329   5.663 -0.2355 -1.3312 -0.6572
   72MOL   C11840020   5.856   4.315   5.741  0.5533 -0.6338 -0.2473
   72MOL   C11940021   5.728   4.354   5.696 -0.1553 -0.0287 -0.0051
   72MOL   C12040022   5.616   4.323   5.776 -0.2288  0.0933  0.0114
   72MOL   C12140023   5.491   4.371   5.741 -0.3468 -0.5419 -0.2559
   72MOL   C12240024   5.478   4.447   5.622 -0.1477 -0.5311  0.4304
   72MOL   C12340025   5.349   4.479   5.561  0.1296 -0.3773  0.5357
   72MOL   O12440026   5.243   4.416   5.612  0.2265 -0.6564 -0.2682
   72MOL   C12540027   5.121   4.439   5.550 -0.0666  0.0544  0.7253
   72MOL   C12640028   5.085   4.333   5.443  0.1635  0.4061 -0.1724
   72MOL   O12740029   5.339   4.547   5.462  0.4558 -0.8575  0.0870
   72MOL   C12840030   5.590   4.490   5.552  0.0470  0.2386  0.1817
   72MOL   C12940031   5.720   4.437   5.588  0.7940  0.0834  0.8496
   72MOL   C13040032   5.831   4.459   5.509 -0.2509  0.2751 -0.5417
   72MOL   C13140033   5.958   4.403   5.542 -0.7510  0.4581  0.1571
   72MOL   H13240034   5.854   4.251   5.828 -0.5783 -1.1361 -0.6311
   72MOL   H13340035   5.637   4.255   5.857  0.0469  0.5410  0.3155
   72MOL   H13440036   5.407   4.337   5.799  0.7575 -3.9631 -0.5383
   72MOL   H13540037   5.118   4.538   5.504 -0.4298 -1.0784 -1.7344
   72MOL   H13640038   5.050   4.438   5.633 -1.8654  1.2251 -0.7542
   72MOL   H13740039   5.163   4.312   5.370  1.0609 -0.3656  0.9848
   72MOL   H13840040   5.081   4.236   5.491  1.5581  1.3209  1.8635
   72MOL   H13940041   5.584   4.541   5.457  2.6865  0.1597 -0.0817
   72MOL   H14040042   5.820   4.521   5.421 -1.7855 -1.9051 -1.9124
   72MOL   H14140043   6.039   4.425   5.474 -0.3169 -0.5257  0.3541
   72MOL   O14240044   4.834   4.337   5.557 -0.2102  0.4345 -0.2941
   72MOL   C14340045   4.846   4.354   5.435  0.0291 -0.1618 -0.1685
   72MOL   O14440046   4.962   4.356   5.372 -0.0534  0.2671 -0.0082
   72MOL   C14540047   4.737   4.388   5.345  0.2490 -0.0008 -0.4779
   72MOL   C14640048   4.758   4.444   5.219 -0.0559  0.2470  0.3502
   72MOL   C14740049   4.648   4.476   5.140 -0.0128  0.3773 -0.3778
   72MOL   C14840050   4.675   4.515   5.009  0.0738 -0.3441 -0.7409
   72MOL   C14940051   4.573   4.541   4.914  0.2204 -0.3643  0.2416
   72MOL   C15040052   4.436   4.529   4.956  0.2219  0.3725 -0.1694
   72MOL   C15140053   4.326   4.577   4.868 -0.2580 -0.8627 -0.0644
   72MOL   O15240054   4.362   4.655   4.771 -0.3869 -0.3318 -0.0274
   72MOL   C15340055   4.272   4.704   4.674 -0.0582 -0.3078  0.7807
   72MOL   C15440056   4.340   4.736   4.542  1.5953  0.4868 -0.6778
   72MOL   O15540057   4.206   4.554   4.886  0.1682  0.6449  0.1858
   72MOL   C15640058   4.415   4.479   5.085  0.0847  0.2563 -0.2172
   72MOL   C15740059   4.514   4.456   5.180 -0.3756  0.0305 -0.0045
   72MOL   C15840060   4.490   4.402   5.309 -0.2053 -0.1034  0.4183
   72MOL   C15940061   4.600   4.364   5.389 -0.1466  0.1615  0.4440
   72MOL   H16040062   4.854   4.466   5.174 -1.1817  0.3657 -2.0960
   72MOL   H16140063   4.778   4.532   4.982  0.1216  1.1247  0.2926
   72MOL   H16240064   4.599   4.578   4.816  0.6748 -0.0118  0.4875
   72MOL   H16340065   4.207   4.784   4.711  0.2569  0.1797  0.2820
   72MOL   H16440066   4.201   4.627   4.644 -0.6880  0.1009  1.2106
   72MOL   H16540067   4.428   4.798   4.561  1.1200  0.0352  3.4469
   72MOL   H16640068   4.387   4.641   4.514 -0.5037 -0.6295 -0.5192
   72MOL   H16740069   4.314   4.466   5.120  0.3935 -1.2874  0.1194
   72MOL   H16840070   4.392   4.387   5.352 -0.2716 -1.8827 -0.3198
   72MOL   H16940071   4.581   4.320   5.486 -0.7321  1.9567  1.1698
   72MOL   O17040072   4.225   4.619   4.333 -0.1165 -0.1830  0.7364
   72MOL   C17140073   4.198   4.737   4.351  0.3730 -0.0860 -0.0284
   72MOL   O17240074   4.264   4.805   4.442  0.4066  0.3592 -0.2922
   72MOL   C17340075   4.105   4.814   4.267 -0.1353 -0.1130  0.4737
   72MOL   C17440076   4.052   4.748   4.151 -0.4273  0.0368 -0.5248
   72MOL   C17540077   3.978   4.823   4.064  0.0686 -0.1823 -0.0150
   72MOL   C17640078   3.941   4.769   3.941  0.4175  0.1849  1.0364
   72MOL   C17740079   3.863   4.839   3.847  0.0838 -0.5874  0.6589
   72MOL   C17840080   3.827   4.971   3.863  0.2053 -0.8276 -0.2994
   72MOL   C17940081   3.732   5.046   3.772 -0.0219 -0.0316  0.9841
   72MOL   O18040082   3.699   5.171   3.823  0.1649  0.4388 -0.1640
   72MOL   C18140083   3.596   5.241   3.769 -1.1388 -0.9804  0.3030
   72MOL   C18240084   3.551   5.341   3.871 -0.0237  0.2688 -0.1615
   72MOL   O18340085   3.686   5.001   3.673 -0.2137  0.1331 -0.1106
   72MOL   C18440086   3.868   5.029   3.990 -0.3074  0.2130 -0.2259
   72MOL   C18540087   3.940   4.957   4.093 -0.9620  0.3062 -0.0842
   72MOL   C18640088   3.979   5.012   4.216 -0.1254  0.3875  0.6550
   72MOL   C18740089   4.065   4.944   4.301 -0.1348 -0.6543  0.0009
   72MOL   H18840090   4.079   4.644   4.145 -0.4300  0.0467 -0.7028
   72MOL   H18940091   3.971   4.672   3.907 -2.1256 -0.3089  0.0666
   72MOL   H19040092   3.844   4.802   3.748  1.6742  0.2862  0.0039
   72MOL   H19140093   3.512   5.173   3.758 -1.6722 -0.7394  2.5705
   72MOL   H19240094   3.622   5.297   3.680  0.4295 -0.7020  0.9168
   72MOL   H19340095   3.452   5.381   3.851 -0.5794 -0.2960  1.3581
   72MOL   H19440096   3.527   5.301   3.970 -1.5836 -0.3310 -0.7721
   72MOL   H19540097   3.836   5.132   4.004 -1.7267  0.0825 -2.1900
   72MOL   H19640098   3.950   5.115   4.231 -1.0745  0.1212  0.6623
   72MOL   H19740099   4.095   4.998   4.390 -0.2971  1.5621 -1.2529
   72MOL   O19840100   3.525   5.506   4.080 -0.6114  0.1973 -0.2796
   72MOL   C19940101   3.605   5.536   3.988 -0.0402 -0.3641 -0.4005
   72MOL   O20040102   3.629   5.456   3.887 -0.2285 -0.2055  0.1646
   72MOL   C20140103   3.692   5.655   3.982 -0.0236  0.0768 -0.4293
   72MOL   C20240104   3.679   5.749   4.079  0.1481 -0.6363 -0.3445
   72MOL   C20340105   3.764   5.860   4.082  0.0683  0.2695  0.0369
   72MOL   C20440106   3.755   5.945   4.194  0.2007  0.4027 -0.5270
   72MOL   C20540107   3.854   6.052   4.208 -0.3684 -1.0138  0.5314
   72MOL   C20640108   3.938   6.080   4.095 -0.0222  0.7002 -0.6951
   72MOL   C20740109   4.036   6.192   4.108 -0.0606  0.3925  0.4215
   72MOL   O20840110   4.065   6.219   4.234 -0.5068  0.6743 -0.3352
   72MOL   C20940111   4.177   6.296   4.264 -0.1883 -0.0561  1.0063
   72MOL   C21040112   4.221   6.269   4.409 -0.0034 -0.1693 -0.3085
   72MOL   O21140113   4.100   6.243   4.013 -0.0164  0.5020  0.2437
   72MOL   C21240114   3.945   5.993   3.991  0.0334  0.0613  0.3793
   72MOL   C21340115   3.862   5.881   3.984  0.5579 -0.5453 -0.2046
   72MOL   C21440116   3.883   5.784   3.883 -0.5259  0.0580 -0.2623
   72MOL   C21540117   3.800   5.670   3.882  0.2267  0.2503 -0.3473
   72MOL   H21640118   3.596   5.737   4.147  0.0844  0.7971 -0.1558
   72MOL   H21740119   3.676   5.929   4.266  1.1255 -0.1871  0.3808
   72MOL   H21840120   3.853   6.112   4.297 -1.9907 -4.2573  2.7934
   72MOL   H21940121   4.163   6.404   4.251  1.0000  0.1408  1.2541
   72MOL   H22040122   4.262   6.279   4.197  0.0905 -2.4611  1.9254
   72MOL   H22140123   4.272   6.173   4.418  0.6825  0.2209  0.0771
   72MOL   H22240124   4.290   6.346   4.446 -1.2270  1.2746 -0.9792
   72MOL   H22340125   4.025   6.018   3.923 -0.0629  2.8409  1.2056
   72MOL   H22440126   3.946   5.809   3.799 -0.4006  1.0984  0.1306
   72MOL   H22540127   3.824   5.599   3.804  0.4246 -1.5032  1.2809
   72MOL   O22640128   4.051   6.069   4.488 -0.3436 -0.3669  0.3515
   72MOL   C22740129   4.034   6.182   4.532 -0.1553 -0.0031  0.0807
   72MOL   O22840130   4.113   6.283   4.496 -1.0727  0.0143  0.3187
   72MOL   C22940131   3.922   6.217   4.622  0.0902 -0.3114 -0.1377
   72MOL   C23040132   3.909   6.342   4.683  0.5247  0.6188  0.1832
   72MOL   C23140133   3.798   6.372   4.765 -0.4874 -1.4805 -0.1216
   72MOL   C23240134   3.777   6.497   4.827 -0.0214 -0.2825  0.4660
   72MOL   C23340135   3.657   6.519   4.905 -0.2102 -0.8704  0.3259
   72MOL   C23440136   3.564   6.414   4.931  0.4242  0.0201  0.8103
   72MOL   C23540137   3.456   6.442   5.025 -0.0923  0.4162 -0.4629
   72MOL   O23640138   3.374   6.338   5.038 -0.5854 -0.1107  0.1088
   72MOL   C23740139   3.291   6.321   5.149 -0.2780  0.2424 -0.2547
   72MOL   C23840140   3.156   6.257   5.116 -0.2537 -0.0825 -0.6265
   72MOL   O23940141   3.457   6.535   5.103  0.4285  0.1720  0.0388
   72MOL   C24040142   3.591   6.293   4.872  0.4189 -0.0920 -0.0983
   72MOL   C24140143   3.703   6.271   4.789 -0.0531  0.0413  0.2532
   72MOL   C24240144   3.711   6.145   4.728 -0.3173 -0.1964  0.2177
   72MOL   C24340145   3.827   6.114   4.652 -0.6595  0.1866  0.3684
   72MOL   H24440146   3.982   6.420   4.667  0.1481  1.3081  1.7514
   72MOL   H24540147   3.852   6.574   4.822 -1.2399  0.8420 -1.0396
   72MOL   H24640148   3.643   6.611   4.960 -0.1404  0.7466 -2.2138
   72MOL   H24740149   3.263   6.410   5.205 -1.7301  0.0789 -0.6938
   72MOL   H24840150   3.360   6.253   5.197 -0.4299 -1.1416 -1.9533
   72MOL   H24940151   3.126   6.196   5.201 -2.2157  0.6015 -0.8159
   72MOL   H25040152   3.085   6.337   5.097  0.4837  0.9572  0.8209
   72MOL   H25140153   3.519   6.214   4.887 -1.0844  1.2491 -0.0280
   72MOL   H25240154   3.638   6.069   4.751 -0.9972 -1.3318 -4.9696
   72MOL   H25340155   3.842   6.011   4.623  0.2651  0.4367 -0.0682
   72MOL   O25440156   3.149   5.978   5.092 -0.9103  0.1545 -0.1227
   72MOL   C25540157   3.184   6.052   4.996  0.1585  1.1059 -0.3805
   72MOL   O25640158   3.156   6.178   4.993  0.0446 -0.2559  0.2140
   72MOL   C25740159   3.257   6.001   4.880 -0.0393 -0.0460 -0.8268
   72MOL   C25840160   3.293   5.865   4.879 -0.3213 -0.1503  0.1247
   72MOL   C25940161   3.375   5.805   4.781 -0.0128 -0.1502  0.0089
   72MOL   C26040162   3.405   5.671   4.779  0.1158  0.8449  0.9739
   72MOL   C26140163   3.487   5.617   4.678 -0.1106 -0.0040 -0.3059
   72MOL   C26240164   3.546   5.700   4.575  0.4039  0.0548  0.0796
   72MOL   C26340165   3.642   5.655   4.469 -0.3399 -0.1018 -0.1790
   72MOL   O26440166   3.618   5.524   4.433  0.1220 -0.3138 -0.0471
   72MOL   C26540167   3.711   5.447   4.356  0.2062 -0.3492  0.6633
   72MOL   C26640168   3.658   5.307   4.337 -0.3833  0.4230  0.3405
   72MOL   O26740169   3.729   5.730   4.420  0.6147 -0.3615  0.5484
   72MOL   C26840170   3.505   5.841   4.578 -0.0609 -0.8175 -0.7256
   72MOL   C26940171   3.421   5.887   4.679  0.0493 -0.5441  0.7363
   72MOL   C27040172   3.385   6.021   4.675  0.2952  0.2666  0.2139
   72MOL   C27140173   3.307   6.081   4.775 -0.4888 -0.0016  0.2121
   72MOL   H27240174   3.251   5.804   4.957 -0.7938 -1.7550 -1.3512
   72MOL   H27340175   3.380   5.609   4.864 -0.5303 -0.1454  0.0682
   72MOL   H27440176   3.519   5.514   4.681 -0.6921 -0.1633  0.9929
   72MOL   H27540177   3.812   5.448   4.398  0.2023 -1.1403  0.7029
   72MOL   H27640178   3.722   5.501   4.262 -0.8542  1.2650  1.4487
   72MOL   H27740179   3.553   5.311   4.306 -0.0650  1.4514 -0.6488
   72MOL   H27840180   3.714   5.248   4.265  0.2544  0.6350  0.6604
   72MOL   H27940181   3.556   5.910   4.512  0.0270  0.6885  0.8658
   72MOL   H28040182   3.435   6.084   4.603  0.4504 -0.6702 -0.5053
   72MOL   H28140183   3.298   6.188   4.777  0.1358  0.0752 -1.0655
   72MOL   O28240184   3.500   5.288   4.562 -0.1176 -0.0229  0.0815
   72MOL   C28340185   3.593   5.210   4.550 -0.3638  0.6436 -0.5060
   72MOL   O28440186   3.681   5.214   4.450 -0.5537  0.4414  0.8380
   72MOL   C28540187   3.639   5.122   4.666  0.1765  0.1863  0.4084
   72MOL   C28640188   3.741   5.027   4.660  0.1050 -0.0071  0.0032
   72MOL   C28740189   3.796   4.968   4.777 -0.7712 -0.4274  0.3715
   72MOL   C28840190   3.907   4.876   4.767  0.5891 -0.2354 -0.6104
   72MOL   C28940191   3.951   4.806   4.881  0.3085  0.0113 -0.0126
   72MOL   C29040192   3.888   4.834   5.011  0.2543 -0.7674  0.7630
   72MOL   C29140193   3.927   4.762   5.133  1.0346 -0.1536  0.2910
   72MOL   O29240194   4.037   4.688   5.113 -1.0055 -0.0257 -0.9574
   72MOL   C29340195   4.075   4.594   5.202  0.2226 -0.3981 -0.3626
   72MOL   C29440196   4.000   4.459   5.217  0.5120  0.5541 -0.1900
   72MOL   O29540197   3.876   4.772   5.242  0.1508 -0.0257  0.3998
   72MOL   C29640198   3.779   4.921   5.018 -0.5397  0.0165  0.4092
   72MOL   C29740199   3.738   4.992   4.905  0.6699 -0.1870 -0.0865
   72MOL   C29840200   3.624   5.072   4.909 -0.8026 -0.6618 -0.0097
   72MOL   C29940201   3.579   5.136   4.792 -0.3461  0.0330  0.0145
   72MOL   H30040202   3.786   5.011   4.564  0.3057  1.4277 -0.1417
   72MOL   H30140203   3.965   4.869   4.676  1.5812 -1.0664  0.0841
   72MOL   H30240204   4.041   4.746   4.879 -0.1280 -0.6595 -0.0184
   72MOL   H30340205   4.063   4.640   5.300  0.8551 -2.2538  0.6336
   72MOL   H30440206   4.184   4.586   5.200  0.2078 -0.7210 -0.0367
   72MOL   H30540207   4.030   4.418   5.314 -2.0062 -1.1436 -0.0926
   72MOL   H30640208   3.894   4.483   5.211  0.6149  1.4707  1.3629
   72MOL   H30740209   3.728   4.937   5.111  1.1586  1.0048  1.1880
   72MOL   H30840210   3.581   5.098   5.004  1.0110 -0.7889  0.8513
   72MOL   H30940211   3.498   5.208   4.792 -0.4223 -0.0496  1.1022
   72MOL   O31040212   3.869   4.432   4.979 -0.3875  0.0235  0.3472
   72MOL   C31140213   3.965   4.363   4.999  0.1783 -0.5310 -0.5529
   72MOL   O31240214   4.040   4.373   5.118  0.5054  0.6772  0.7272
   72MOL   C31340215   4.009   4.262   4.900  0.6666  0.1338 -0.0034
   72MOL   C31440216   3.922   4.221   4.798  0.2958 -0.7257  0.3729
   72MOL   C31540217   3.969   4.128   4.700 -0.7201  0.2589  0.0034
   72MOL   C31640218   3.886   4.097   4.594  0.3213  0.2636  0.4222
   72MOL   C31740219   3.930   4.002   4.496 -0.7301 -0.2852  0.2380
   72MOL   C31840220   4.055   3.935   4.516  0.4144 -0.5001  0.5446
   72MOL   C31940221   4.086   3.829   4.422 -0.3141 -0.0920 -0.0418
   72MOL   O32040222   4.203   3.764   4.455 -0.0170 -0.0600 -0.4304
   72MOL   C32140223   4.235   3.642   4.390  0.3690 -0.2688 -0.7298
   72MOL   C32240224   4.273   3.656   4.238  0.1276 -0.0136  0.2901
   72MOL   O32340225   4.016   3.801   4.323  0.0000  0.7581  0.9397
   72MOL   C32440226   4.141   3.968   4.623 -0.0757 -0.2869 -0.6317
   72MOL   C32540227   4.100   4.069   4.715  0.0619  0.1994 -0.4093
   72MOL   C32640228   4.180   4.100   4.825 -0.3102  0.0864 -0.2448
   72MOL   C32740229   4.136   4.200   4.910  0.0455  0.4777  0.3832
   72MOL   H32840230   3.829   4.273   4.778  0.1419 -0.9485  0.5028
   72MOL   H32940231   3.790   4.144   4.579  0.3020  0.5971  1.5312
   72MOL   H33040232   3.866   3.987   4.410 -0.1345 -1.0619 -0.0771
   72MOL   H33140233   4.141   3.588   4.393  0.1500  0.0673 -1.5068
   72MOL   H33240234   4.314   3.595   4.448  0.3535  0.0962 -0.4084
   72MOL   H33340235   4.287   3.564   4.182  0.0798  0.3606 -0.3448
   72MOL   H33440236   4.198   3.709   4.179 -1.2076 -1.8346  0.3194
   72MOL   H33540237   4.240   3.924   4.621  0.1582  0.1278  1.3170
   72MOL   H33640238   4.282   4.068   4.836 -0.3843  0.0940  0.5117
   72MOL   H33740239   4.192   4.227   4.998  1.2848  0.9102 -0.5137
   72MOL   O33840240   4.521   3.590   4.340 -0.0672 -0.1721  0.0913
   72MOL   C33940241   4.508   3.701   4.289 -0.4990 -0.3519  0.4434
   72MOL   O34040242   4.393   3.741   4.235 -0.1637  0.5849  0.0789
   72MOL   C34140243   4.613   3.806   4.276  0.3699 -0.3488 -0.0783
   72MOL   C34240244   4.591   3.927   4.201  0.3527  0.3294  0.4063
   72MOL   C34340245   4.690   4.027   4.209 -0.3401 -0.0655  0.7396
   72MOL   C34440246   4.660   4.148   4.142 -0.1505  0.4376  0.0015
   72MOL   C34540247   4.756   4.256   4.149  0.0478 -0.4282  0.4507
   72MOL   C34640248   4.872   4.246   4.225 -0.5735  0.0815 -0.2868
   72MOL   C34740249   4.962   4.364   4.241  0.3167 -0.2018  0.0881
   72MOL   O34840250   4.912   4.476   4.184  0.4413  0.5061 -0.0302
   72MOL   C34940251   4.973   4.600   4.193 -0.0680 -0.0518 -0.1017
   72MOL   C35040252   5.091   4.612   4.088  0.1706  0.4554  0.0267
   72MOL   O35140253   5.074   4.358   4.292 -0.0601  0.3053  0.0011
   72MOL   C35240254   4.904   4.120   4.285 -0.1511  0.8426 -0.3268
   72MOL   C35340255   4.810   4.019   4.277  0.2865  1.3715 -0.1638
   72MOL   C35440256   4.840   3.888   4.334  0.0342 -0.7986 -0.4395
   72MOL   C35540257   4.737   3.788   4.337 -0.8174  0.4532 -0.3870
   72MOL   H35640258   4.501   3.938   4.142  0.9378  0.2894 -0.5043
   72MOL   H35740259   4.568   4.160   4.088  0.2960  0.1336 -0.8278
   72MOL   H35840260   4.730   4.344   4.093 -0.3170 -0.5219  0.4695
   72MOL   H35940261   5.001   4.633   4.293  0.9796 -2.3889  0.4274
   72MOL   H36040262   4.894   4.669   4.165  0.3401  0.2799 -0.4390
   72MOL   H36140263   5.133   4.713   4.088 -0.5959  0.7847 -0.8452
   72MOL   H36240264   5.175   4.545   4.106 -0.0115  0.4153  0.7304
   72MOL   H36340265   5.000   4.097   4.329 -0.6504  1.4390  1.0758
   72MOL   H36440266   4.930   3.858   4.386 -0.1767 -0.6967 -0.0134
   72MOL   H36540267   4.756   3.697   4.392 -2.8183 -0.2588 -0.8451
   72MOL   O36640268   4.894   4.734   3.939  0.7830  0.2191  0.2038
   72MOL   C36740269   4.962   4.649   3.887  0.6019  0.0142 -0.1094
   72MOL   O36840270   5.055   4.579   3.952  0.7560  0.4071 -0.0448
   72MOL   C36940271   4.963   4.616   3.746  0.7308 -0.0258  0.0013
   72MOL   C37040272   5.057   4.518   3.693  0.1719  0.1775 -0.6058
   72MOL   C37140273   5.071   4.495   3.557 -0.0534  0.1187 -0.4798
   72MOL   C37240274   5.168   4.401   3.508  0.8337  0.2898 -0.0595
   72MOL   C37340275   5.192   4.385   3.373  0.2213  0.3250  0.1666
   72MOL   C37440276   5.105   4.448   3.277 -0.6237  0.7022  0.5008
   72MOL   C37540277   5.120   4.403   3.136  0.6033 -0.3448 -0.0306
   72MOL   O37640278   5.043   4.475   3.047  0.0337  0.1060  0.3863
   72MOL   C37740279   5.041   4.430   2.905  0.3601  0.2379 -0.6427
   72MOL   C37840280   4.981   4.287   2.893 -0.1456  0.4232 -0.1348
   72MOL   O37940281   5.181   4.302   3.102  0.3736  0.0166  0.7653
   72MOL   C38040282   5.010   4.540   3.323  0.7948  0.6994  0.5605
   72MOL   C38140283   4.995   4.568   3.462 -0.3086 -0.3440 -0.4865
   72MOL   C38240284   4.905   4.667   3.511 -0.0150  0.9754  0.6752
   72MOL   C38340285   4.888   4.695   3.650 -0.0671 -0.2611  0.5871
   72MOL   H38440286   5.120   4.469   3.766 -2.4134 -1.7315  0.4602
   72MOL   H38540287   5.227   4.342   3.578 -2.4390  0.1902  2.7753
   72MOL   H38640288   5.269   4.315   3.345  0.1315 -0.1456  1.0907
   72MOL   H38740289   5.141   4.442   2.864  0.5634  1.6100  0.2392
   72MOL   H38840290   4.972   4.493   2.849 -0.4123 -0.3436 -0.3626
   72MOL   H38940291   5.056   4.213   2.921 -2.8896 -1.9659  1.0978
   72MOL   H39040292   4.894   4.294   2.958 -0.7029  1.2805 -0.9649
   72MOL   H39140293   4.957   4.601   3.251  1.8768  1.3154  0.2806
   72MOL   H39240294   4.852   4.728   3.440 -0.7067 -0.6852 -0.2799
   72MOL   H39340295   4.826   4.775   3.689  0.1795  1.7043 -2.8396
   72MOL   O39440296   5.138   4.206   2.683 -0.1118 -0.0650 -0.2625
   72MOL   C39540297   5.013   4.226   2.663  0.0281  0.0663  0.2630
   72MOL   O39640298   4.926   4.264   2.764  0.1619  0.8361 -0.2435
   72MOL   C39740299   4.944   4.217   2.532 -0.3774 -0.6056  0.1017
   72MOL   C39840300   5.007   4.207   2.404  0.1403 -0.0032  0.8910
   72MOL   C39940301   4.932   4.202   2.285  0.4530  0.4217  0.2086
   72MOL   C40040302   4.990   4.177   2.159 -0.5735 -0.0939 -0.6842
   72MOL   C40140303   4.908   4.178   2.044 -0.1238 -1.3210 -0.1380
   72MOL   C40240304   4.763   4.181   2.057  0.0903 -0.3120 -0.1376
   72MOL   C40340305   4.668   4.152   1.944 -0.3959 -0.9550  0.4190
   72MOL   O40440306   4.726   4.072   1.859 -0.0202  0.6513  0.2606
   72MOL   C40540307   4.650   4.015   1.754 -0.3167  0.0076 -0.1332
   72MOL   C40640308   4.578   3.899   1.813 -0.8846  0.0648  0.2936
   72MOL   O40740309   4.548   4.191   1.949 -0.1072 -0.3961 -0.5231
   72MOL   C40840310   4.712   4.214   2.178  0.0428  0.3622 -0.2841
   72MOL   C40940311   4.789   4.214   2.293 -0.0234 -0.3386  0.3609
   72MOL   C41040312   4.722   4.220   2.414 -0.7893  0.8182 -0.7748
   72MOL   C41140313   4.801   4.215   2.528  0.2638  0.0525 -0.6322
   72MOL   H41240314   5.114   4.210   2.395  0.1463 -2.1096  0.0539
   72MOL   H41340315   5.095   4.159   2.147 -0.5846  1.0997 -2.7728
   72MOL   H41440316   4.950   4.152   1.948  1.2051  0.6529 -0.1143
   72MOL   H41540317   4.705   3.980   1.667 -0.7595 -1.0360 -0.0065
   72MOL   H41640318   4.574   4.089   1.729 -1.0912 -1.6193 -2.7820
   72MOL   H41740319   4.520   3.926   1.902 -0.6238  1.1932  0.1334
   72MOL   H41840320   4.515   3.853   1.737 -1.6164 -2.0613  2.1099
   72MOL   H41940321   4.606   4.234   2.188 -0.4919 -2.5976  0.2857
   72MOL   H42040322   4.615   4.216   2.421 -0.6825 -0.0342  0.6032
   72MOL   H42140323   4.745   4.222   2.620  0.1437  0.5739 -0.7421
   72MOL   O42240324   4.617   3.753   2.060 -0.7420  0.1906  0.3829
   72MOL   C42340325   4.698   3.751   1.968 -0.2884 -0.4085 -0.5062
   72MOL   O42440326   4.681   3.805   1.848  0.7095  0.1176 -0.0866
   72MOL   C42540327   4.829   3.683   1.975  0.6076 -1.1764  0.5358
   72MOL   C42640328   4.876   3.646   2.103 -0.6241  0.3514  0.2949
   72MOL   C42740329   5.004   3.593   2.117  0.5174  0.1033 -0.5303
   72MOL   C42840330   5.059   3.559   2.242 -0.2396  0.5934 -0.8744
   72MOL   C42940331   5.187   3.507   2.251  0.0902  0.6434 -0.7578
   72MOL   C43040332   5.270   3.502   2.137 -0.0325 -0.7588  0.2492
   72MOL   C43140333   5.414   3.461   2.146 -0.0504  0.0921 -1.2513
   72MOL   O43240334   5.491   3.498   2.037 -0.7488 -0.2716  0.4104
   72MOL   C43340335   5.620   3.449   2.017  0.0652  0.2589 -0.6825
   72MOL   C43440336   5.625   3.317   1.933 -0.0540 -0.7702  0.0491
   72MOL   O43540337   5.465   3.404   2.249  0.0491 -0.2757 -0.5080
   72MOL   C43640338   5.213   3.534   2.012 -0.0098  0.1850  0.4112
   72MOL   C43740339   5.085   3.580   2.005 -0.9553 -0.5502  0.1118
   72MOL   C43840340   5.039   3.619   1.872  0.2535  0.3954 -0.0361
   72MOL   C43940341   4.912   3.674   1.864 -0.0685 -0.4711  0.7800
   72MOL   H44040342   4.816   3.657   2.192  0.1320  0.2887  0.8206
   72MOL   H44140343   4.994   3.575   2.327  0.3318 -0.3252 -0.2487
   72MOL   H44240344   5.222   3.478   2.349  1.0687 -0.5366 -1.4398
   72MOL   H44340345   5.670   3.440   2.114  0.5046  3.2129 -0.5969
   72MOL   H44440346   5.677   3.531   1.973 -1.4185  1.3967 -0.4847
   72MOL   H44540347   5.569   3.331   1.840 -1.3055  0.4543  0.9605
   72MOL   H44640348   5.727   3.292   1.906  0.5593  1.0172  0.6618
   72MOL   H44740349   5.274   3.518   1.924 -1.3926  1.5069 -0.8264
   72MOL   H44840350   5.092   3.600   1.780  1.8128 -0.9220  1.1029
   72MOL   H44940351   4.882   3.695   1.763 -0.4658 -2.0597  0.5573
   72MOL   O45040352   5.679   3.039   1.911  0.2048 -0.0941 -0.5139
   72MOL   C45140353   5.597   3.085   1.994 -0.0170 -0.4659  0.5960
   72MOL   O45240354   5.563   3.215   2.006  0.4788  0.2244  0.1504
   72MOL   C45340355   5.530   2.995   2.095 -0.7199 -0.6257 -0.0436
   72MOL   C45440356   5.579   2.861   2.110  0.0667  0.2216 -0.5166
   72MOL   C45540357   5.509   2.776   2.208 -0.1020 -0.1682  0.7558
   72MOL   C45640358   5.554   2.644   2.229 -0.0516  0.0255 -0.2622
   72MOL   C45740359   5.482   2.558   2.317 -0.6056  0.5768 -0.3547
   72MOL   C45840360   5.362   2.604   2.379  0.1218  0.1795 -0.5568
   72MOL   C45940361   5.284   2.520   2.473  0.3618 -0.1151  0.6743
   72MOL   O46040362   5.340   2.403   2.512 -0.0415  0.2406 -0.4647
   72MOL   C46140363   5.280   2.329   2.614 -0.6530  0.3180  0.1691
   72MOL   C46240364   5.241   2.193   2.553 -0.1477  0.1138 -0.5933
   72MOL   O46340365   5.169   2.555   2.506  0.1628 -0.1804  0.0352
   72MOL   C46440366   5.313   2.740   2.359 -0.0553  0.4805  0.3153
   72MOL   C46540367   5.391   2.822   2.268 -0.9775 -0.1224 -0.3047
   72MOL   C46640368   5.344   2.949   2.248 -0.3413 -0.1346  0.4909
   72MOL   C46740369   5.415   3.040   2.167 -0.1449  0.1614  0.6253
   72MOL   H46840370   5.645   2.819   2.036 -1.0117 -2.6110  0.0664
   72MOL   H46940371   5.647   2.609   2.186 -0.1807 -1.1986  0.4276
   72MOL   H47040372   5.506   2.455   2.337 -2.7045 -0.0778 -1.1400
   72MOL   H47140373   5.186   2.373   2.648 -0.2590  1.9618 -0.7660
   72MOL   H47240374   5.351   2.315   2.695  1.6255 -0.9805 -1.9734
   72MOL   H47340375   5.212   2.185   2.448  0.1963  0.5387 -0.7222
   72MOL   H47440376   5.330   2.129   2.552  0.0239  0.3164  1.1161
   72MOL   H47540377   5.234   2.790   2.412  1.4549  1.6565  1.4763
   72MOL   H47640378   5.257   2.987   2.298  0.6926  1.7207  0.9082
   72MOL   H47740379   5.377   3.141   2.166 -2.7638 -0.7430  2.5887
   72MOL   O47840380   5.259   2.113   2.819  0.3782 -0.3702 -0.2875
   72MOL   C47940381   5.151   2.109   2.761 -0.4380 -0.3379 -0.2006
   72MOL   O48040382   5.136   2.127   2.630 -0.7250 -0.2866  0.3895
   72MOL   C48140383   5.031   2.057   2.826  0.1381 -0.0837  0.0928
   72MOL   C48240384   5.037   2.013   2.960  0.3038  0.1602  0.6046
   72MOL   C48340385   4.920   1.975   3.032 -0.7429  0.4655  0.3362
   72MOL   C48440386   4.928   1.950   3.171  0.2896  0.4578 -0.0128
   72MOL   C48540387   4.821   1.886   3.237  0.1010 -0.8310  0.7827
   72MOL   C48640388   4.702   1.854   3.170  0.2136 -0.0448  0.4034
   72MOL   C48740389   4.587   1.795   3.244 -0.4225  0.6233  0.0115
   72MOL   O48840390   4.606   1.797   3.373  0.3355  0.0645 -0.5187
   72MOL   C48940391   4.504   1.746   3.467  0.2464  0.0585  0.2869
   72MOL   C49040392   4.565   1.711   3.595 -0.1987  0.2508 -0.0543
   72MOL   O49140393   4.487   1.747   3.198 -0.0232 -0.7152 -0.4738
   72MOL   C49240394   4.681   1.888   3.032 -0.0203  0.0737 -0.1812
   72MOL   C49340395   4.796   1.947   2.965 -0.4726  0.0318  0.2546
   72MOL   C49440396   4.790   1.992   2.832  0.4129  0.3077  0.0566
   72MOL   C49540397   4.906   2.044   2.768 -0.6037 -0.1050  0.4480
   72MOL   H49640398   5.125   2.031   3.020  1.3203  0.2148 -0.8932
   72MOL   H49740399   5.018   1.975   3.225  0.1236  0.4753  0.2535
   72MOL   H49840400   4.822   1.879   3.345  2.3952  1.4857  0.9613
   72MOL   H49940401   4.468   1.648   3.436  0.4219 -0.1260  0.6581
   72MOL   H50040402   4.423   1.816   3.489  0.9470  0.3162  2.2331
   72MOL   H50140403   4.492   1.654   3.653  1.7679  0.5507  2.8224
   72MOL   H50240404   4.645   1.637   3.587 -1.6451 -1.3934  0.3218
   72MOL   H50340405   4.597   1.852   2.974 -0.5266  2.1514 -0.8066
   72MOL   H50440406   4.695   1.991   2.779 -0.4119 -2.1067  1.5105
   72MOL   H50540407   4.892   2.066   2.664 -0.0195 -2.1438 -0.0832
   72MOL   O50640408   4.478   1.801   3.849  0.5611  0.2089 -0.3868
   72MOL   C50740409   4.554   1.864   3.780 -0.0308  0.3569  0.1459
   72MOL   O50840410   4.618   1.818   3.668  0.2222 -0.0870 -0.4274
   72MOL   C50940411   4.575   2.009   3.816  0.5624 -0.0430  0.3443
   72MOL   C51040412   4.510   2.065   3.929 -0.3559  0.2092 -0.6114
   72MOL   C51140413   4.539   2.197   3.975 -0.2163 -0.7804  0.0305
   72MOL   C51240414   4.480   2.237   4.095  0.3897 -0.6932  0.3154
   72MOL   C51340415   4.510   2.369   4.139  0.6420  0.6415  0.0054
   72MOL   C51440416   4.598   2.454   4.072 -0.3440  0.2014  0.1935
   72MOL   C51540417   4.628   2.592   4.120  0.2687  0.1031  0.0091
   72MOL   O51640418   4.591   2.609   4.245 -0.4275 -0.7307  0.5550
   72MOL   C51740419   4.594   2.738   4.310  0.0804 -0.8368  0.7348
   72MOL   C51840420   4.743   2.787   4.337 -0.1910 -0.7184  0.0412
   72MOL   O51940421   4.669   2.687   4.049  0.0489 -0.2851 -0.7843
   72MOL   C52040422   4.662   2.407   3.952  0.3387 -0.2159 -0.2098
   72MOL   C52140423   4.631   2.280   3.905  0.8840  0.3532  0.4436
   72MOL   C52240424   4.684   2.230   3.784  0.3556  0.1432 -0.5817
   72MOL   C52340425   4.662   2.097   3.745  0.7373 -0.6802 -0.3537
   72MOL   H52440426   4.440   2.006   3.985 -1.3686  2.4684  0.5651
   72MOL   H52540427   4.405   2.175   4.142 -0.3294 -0.0722  0.0017
   72MOL   H52640428   4.464   2.412   4.227 -1.0823  1.4164 -1.2398
   72MOL   H52740429   4.537   2.736   4.403  1.9840 -0.0437  1.9286
   72MOL   H52840430   4.548   2.809   4.241  0.4364 -1.5869 -0.3017
   72MOL   H52940431   4.812   2.708   4.306  1.6426  0.8194  0.1080
   72MOL   H53040432   4.767   2.870   4.271 -0.3152 -0.3536  0.4535
   72MOL   H53140433   4.745   2.466   3.915  0.7550 -1.2820 -0.9997
   72MOL   H53240434   4.742   2.296   3.721  1.3494 -0.9329 -0.8175
   72MOL   H53340435   4.708   2.056   3.656 -0.1388 -1.1026 -0.6156
   72MOL   O53440436   4.637   3.000   4.461 -0.1212 -0.1055 -0.0735
   72MOL   C53540437   4.715   2.931   4.528 -0.8189  0.0031  0.0038
   72MOL   O53640438   4.772   2.821   4.476 -0.3512 -0.1387  0.5083
   72MOL   C53740439   4.757   2.961   4.670  0.2220 -0.0459 -0.0470
   72MOL   C53840440   4.669   3.019   4.762  0.3008  1.1120  0.4253
   72MOL   C53940441   4.703   3.020   4.897  0.4475  0.0694 -0.0877
   72MOL   C54040442   4.603   3.057   4.995  0.2823 -0.7961 -0.5356
   72MOL   C54140443   4.643   3.072   5.127  0.2088 -0.5507  0.2001
   72MOL   C54240444   4.768   3.028   5.172 -0.0588 -0.1954  0.5169
   72MOL   C54340445   4.791   3.040   5.324  0.0286 -0.1719 -0.3857
   72MOL   O54440446   4.902   2.977   5.367  0.1293  0.6438  0.2152
   72MOL   C54540447   4.938   2.984   5.501 -0.2246 -0.2615  0.2320
   72MOL   C54640448   4.961   2.838   5.552 -0.2804 -0.0360 -0.5281
   72MOL   O54740449   4.710   3.096   5.400  0.0926  0.1134  0.5112
   72MOL   C54840450   4.863   2.984   5.077  0.3928 -0.5953  0.2261
   72MOL   C54940451   4.833   2.974   4.940  0.2666  0.1187 -0.0997
   72MOL   C55040452   4.927   2.938   4.839 -0.1133 -0.3041 -0.1389
   72MOL   C55140453   4.890   2.926   4.703 -1.0303  0.0505  0.8618
   72MOL   H55240454   4.571   3.045   4.725  0.8870  1.5520 -0.8566
   72MOL   H55340455   4.501   3.081   4.967 -0.3332 -1.0097  1.4973
   72MOL   H55440456   4.566   3.120   5.185 -0.0478 -1.2025  0.3989
   72MOL   H55540457   4.863   3.029   5.565  0.9988 -0.9392  2.1981
   72MOL   H55640458   5.022   3.053   5.505  0.2514 -0.7635 -0.9420
   72MOL   H55740459   5.050   2.796   5.505  0.5154  0.2815  0.6815
   72MOL   H55840460   4.878   2.770   5.536 -2.7416  2.3769  1.5913
   72MOL   H55940461   4.962   2.959   5.113 -1.0111 -1.7467  3.3996
   72MOL   H56040462   5.026   2.917   4.877  0.4714 -1.3127 -2.1285
   72MOL   H56140463   4.967   2.901   4.632 -0.2907 -0.7885  1.9548
   72MOL   H56240464   4.990   2.831   5.657 -1.0155 -1.0606 -0.3859
   73MOL     O140465   1.413   1.528   3.026  0.0174  0.1058  0.1810
   73MOL     C240466   1.332   1.532   2.932 -0.7436 -0.5096  0.7052
   73MOL     O340467   1.329   1.447   2.831 -0.1713  0.7219  0.1555
   73MOL     C440468   1.212   1.619   2.935  0.7058  0.1676  0.0015
   73MOL     C540469   1.155   1.654   3.051 -0.1298  0.1418 -0.4191
   73MOL     C640470   1.030   1.727   3.058 -0.7288 -0.0490  0.3947
   73MOL     C740471   0.960   1.739   3.179 -0.2314 -0.5211 -0.0654
   73MOL     C840472   0.837   1.815   3.175 -0.0081  0.1074  0.7672
   73MOL     C940473   0.781   1.860   3.053  0.1022 -0.1537  0.2166
   73MOL    C1040474   0.647   1.916   3.054 -0.0455 -0.5615  0.3606
   73MOL    O1140475   0.567   1.870   3.159  0.0177 -0.1181  0.0258
   73MOL    C1240476   0.429   1.905   3.146  0.0170 -0.8099 -0.1557
   73MOL    C1340477   0.370   1.815   3.041 -0.2849  0.2431  0.2852
   73MOL    O1440478   0.606   1.989   2.963  0.0973  0.0463 -0.1632
   73MOL    C1540479   0.855   1.847   2.938 -0.3197 -0.7214 -0.1312
   73MOL    C1640480   0.978   1.774   2.938 -0.2816  0.4037  0.2095
   73MOL    C1740481   1.043   1.751   2.815  0.6562 -0.1892 -0.1245
   73MOL    C1840482   1.163   1.669   2.811 -0.2620  0.0439 -0.0698
   73MOL    H1940483   1.198   1.616   3.143  2.3971  1.6407 -0.9521
   73MOL    H2040484   0.991   1.696   3.273  1.4698 -0.2391 -0.4743
   73MOL    H2140485   0.781   1.845   3.263 -0.9735 -2.6743  1.1486
   73MOL    H2240486   0.388   1.890   3.246  0.4514  0.5088  0.2207
   73MOL    H2340487   0.415   2.011   3.128  1.1502 -0.9906 -2.2889
   73MOL    H2440488   0.261   1.819   3.048 -0.4384 -0.5437 -1.4275
   73MOL    H2540489   0.393   1.861   2.944 -0.1871  0.8445  0.5923
   73MOL    H2640490   0.824   1.881   2.840  0.3763  0.5409  0.0813
   73MOL    H2740491   0.995   1.794   2.728  1.2821  0.4858 -0.1366
   73MOL    H2840492   1.211   1.658   2.715  0.5431 -0.6275  0.4055
   73MOL    H2940493   1.377   1.368   2.851 -2.3438 -0.7406 -0.2850
   73MOL    O3040494   0.267   1.619   2.884  0.4797  0.3443 -0.1020
   73MOL    C3140495   0.362   1.592   2.962 -0.0687  0.5377 -0.0556
   73MOL    O3240496   0.420   1.682   3.048  0.0583  0.0894 -0.0195
   73MOL    C3340497   0.419   1.454   2.973 -0.3591  0.8262  0.5205
   73MOL    C3440498   0.520   1.424   3.069  0.2532  0.0351 -0.4178
   73MOL    C3540499   0.573   1.298   3.078  0.2103 -0.7625 -1.2100
   73MOL    C3640500   0.664   1.248   3.178  0.5007 -0.4065 -0.0292
   73MOL    C3740501   0.719   1.119   3.165 -0.8576 -0.2495 -0.1105
   73MOL    C3840502   0.678   1.023   3.067 -0.5145  0.5830 -0.1113
   73MOL    C3940503   0.730   0.879   3.070 -1.0498  0.6793 -0.3883
   73MOL    O4040504   0.704   0.819   2.946 -0.2900 -0.1520 -0.4331
   73MOL    C4140505   0.729   0.686   2.943 -0.6118 -0.5304 -0.4598
   73MOL    C4240506   0.883   0.654   2.934 -0.1058 -0.3113 -0.0070
   73MOL    O4340507   0.771   0.820   3.170  0.3796 -0.1532 -0.1137
   73MOL    C4440508   0.577   1.064   2.977  0.1037  0.1708 -0.3372
   73MOL    C4540509   0.530   1.199   2.984 -0.2420 -0.0579  0.4439
   73MOL    C4640510   0.432   1.230   2.891  0.4422 -0.1118 -0.2331
   73MOL    C4740511   0.374   1.354   2.889 -0.2098  0.4795 -0.1525
   73MOL    H4840512   0.548   1.509   3.129  1.4421 -1.3541  1.0490
   73MOL    H4940513   0.686   1.315   3.260  0.4961 -0.4585  0.0144
   73MOL    H5040514   0.792   1.091   3.239 -2.1008 -1.5369  0.6792
   73MOL    H5140515   0.669   0.630   2.871 -3.1780  1.0414  0.4043
   73MOL    H5240516   0.695   0.635   3.033  1.9550  2.5843  2.4316
   73MOL    H5340517   0.950   0.724   2.985 -1.2558  0.9969 -0.2409
   73MOL    H5440518   0.879   0.561   2.991 -2.5395  1.3112  2.6153
   73MOL    H5540519   0.545   1.003   2.895 -2.1671 -0.0894  0.7225
   73MOL    H5640520   0.407   1.151   2.821 -0.9164 -0.8905  1.0880
   73MOL    H5740521   0.295   1.387   2.823 -1.2072 -0.7929  0.3922
   73MOL    O5840522   0.924   0.409   2.799 -0.4618 -0.4276  0.0259
   73MOL    C5940523   0.940   0.518   2.739  0.0602  0.0816  0.8087
   73MOL    O6040524   0.915   0.634   2.795 -1.0773 -0.8035  0.0587
   73MOL    C6140525   0.996   0.520   2.595  0.9048  0.3940 -0.3597
   73MOL    C6240526   1.055   0.635   2.542  0.2903  0.3735  0.0341
   73MOL    C6340527   1.124   0.639   2.418 -0.4936  0.9739  0.3884
   73MOL    C6440528   1.183   0.757   2.365  0.1446  0.0315 -0.5823
   73MOL    C6540529   1.257   0.742   2.243  0.4172 -0.2228 -0.9948
   73MOL    C6640530   1.269   0.619   2.174  0.6081 -0.1803 -0.0382
   73MOL    C6740531   1.352   0.607   2.050  0.2695  0.1317 -0.1881
   73MOL    O6840532   1.473   0.663   2.071 -0.3933  0.3522 -0.2958
   73MOL    C6940533   1.574   0.658   1.968  0.4917 -0.4127  0.3831
   73MOL    C7040534   1.621   0.515   1.945  0.2172  0.3150 -0.2408
   73MOL    O7140535   1.311   0.558   1.947  0.0466  0.4685 -0.1722
   73MOL    C7240536   1.199   0.506   2.220  0.0563 -0.1356 -0.1823
   73MOL    C7340537   1.127   0.520   2.343  0.2152 -0.4772  0.1085
   73MOL    C7440538   1.066   0.404   2.396  0.5916 -0.0750  0.0688
   73MOL    C7540539   1.002   0.402   2.520  0.2316  0.4999  0.1745
   73MOL    H7640540   1.068   0.722   2.604 -0.6505  0.0723  0.6654
   73MOL    H7740541   1.181   0.845   2.428  0.2618  0.3528 -1.0205
   73MOL    H7840542   1.308   0.828   2.201  0.6170  1.1981  2.0385
   73MOL    H7940543   1.665   0.713   1.991 -0.2149 -0.6327  3.8880
   73MOL    H8040544   1.546   0.712   1.877 -1.8507 -0.9514  0.7400
   73MOL    H8140545   1.613   0.465   2.041  0.4801  0.9265  0.0984
   73MOL    H8240546   1.554   0.473   1.870 -1.5951  1.7146  0.5453
   73MOL    H8340547   1.203   0.412   2.168  0.7856 -0.1439 -0.1161
   73MOL    H8440548   1.068   0.314   2.337  0.6200  1.2146 -1.9469
   73MOL    H8540549   0.960   0.308   2.555 -0.2474  0.0910 -1.4628
   73MOL    O8640550   1.782   0.656   1.770  0.0245  0.2120  0.2821
   73MOL    C8740551   1.825   0.554   1.826 -0.4203  0.3480  0.0748
   73MOL    O8840552   1.756   0.486   1.920  0.3902 -0.1971  0.0952
   73MOL    C8940553   1.954   0.494   1.797 -0.7219  0.1940 -0.3272
   73MOL    C9040554   2.048   0.558   1.713  0.6944  0.0419 -0.2014
   73MOL    C9140555   2.174   0.492   1.698  0.2514 -0.7729  0.5549
   73MOL    C9240556   2.282   0.562   1.623  0.2466  0.4859  0.0050
   73MOL    C9340557   2.409   0.498   1.604 -0.2591 -0.1590  0.7047
   73MOL    C9440558   2.436   0.374   1.663 -0.0977 -0.0485 -0.4511
   73MOL    C9540559   2.574   0.309   1.657  0.1543 -0.2003  0.4233
   73MOL    O9640560   2.656   0.363   1.565 -0.0573  0.0870  0.3170
   73MOL    C9740561   2.778   0.302   1.532  0.1987 -0.8310 -0.3443
   73MOL    C9840562   2.887   0.371   1.620  0.8388  0.5222  1.0585
   73MOL    O9940563   2.595   0.210   1.723 -0.2305 -0.1579  0.2949
   73MOL   C10040564   2.333   0.312   1.744 -0.7433  0.0453 -0.3390
   73MOL   C10140565   2.206   0.367   1.755 -0.0654  0.3034  0.1934
   73MOL   C10240566   2.110   0.309   1.837 -0.3126  0.3423 -0.1475
   73MOL   C10340567   1.982   0.363   1.845  0.2233 -0.6648  0.0905
   73MOL   H10440568   2.028   0.657   1.676  1.3325  1.0302  2.0000
   73MOL   H10540569   2.266   0.655   1.570 -2.4033 -0.0945 -0.2961
   73MOL   H10640570   2.492   0.554   1.565 -0.3840  0.2278  0.9902
   73MOL   H10740571   2.804   0.309   1.427  0.6361 -1.6184 -0.2945
   73MOL   H10840572   2.773   0.195   1.554 -3.0081 -0.8986 -1.1794
   73MOL   H10940573   2.880   0.476   1.593 -1.3850  0.8199  2.6586
   73MOL   H11040574   2.865   0.359   1.726 -0.6255 -1.4794  0.5749
   73MOL   H11140575   2.358   0.216   1.786 -1.4657 -1.0693 -2.3617
   73MOL   H11240576   2.121   0.216   1.890 -0.6047 -0.0918 -0.8402
   73MOL   H11340577   1.908   0.305   1.898 -0.3654 -3.2483 -3.4260
   73MOL   O11440578   3.115   0.516   1.590 -0.0939  0.0321  0.3067
   73MOL   C11540579   3.118   0.391   1.586  0.1858 -0.3282 -0.0061
   73MOL   O11640580   3.011   0.313   1.602 -0.0748  0.0177  0.0516
   73MOL   C11740581   3.246   0.322   1.574  0.2034 -0.3305 -0.8114
   73MOL   C11840582   3.260   0.180   1.592 -0.2591 -0.4171  0.6527
   73MOL   C11940583   3.382   0.122   1.567 -0.0935 -0.5333  0.3410
   73MOL   C12040584   3.397   8.238   1.587 -0.5102 -0.0597 -0.3362
   73MOL   C12140585   3.528   8.177   1.581  0.6306  0.1036 -0.3380
   73MOL   C12240586   3.641   0.003   1.536  0.7608 -0.5008  0.6857
   73MOL   C12340587   3.772   8.186   1.503  0.4228  0.2234 -0.0041
   73MOL   O12440588   3.774   8.060   1.525  0.1641 -0.5512 -0.0704
   73MOL   C12540589   3.888   7.978   1.491  0.4099 -0.1493 -0.0127
   73MOL   C12640590   3.988   7.966   1.605  0.3049 -0.5263  0.3204
   73MOL   O12740591   3.866   8.239   1.450  0.5515 -0.2517 -0.3423
   73MOL   C12840592   3.622   0.141   1.514  0.1585 -0.0816  0.5108
   73MOL   C12940593   3.492   0.195   1.526 -0.2500 -0.3484 -0.0298
   73MOL   C13040594   3.477   0.330   1.508  0.4089 -0.0743  0.0489
   73MOL   C13140595   3.352   0.394   1.522  0.0384  0.4453  0.3695
   73MOL   H13240596   3.183   0.115   1.632  3.0343 -4.0289  1.3842
   73MOL   H13340597   3.311   8.178   1.613  0.2554 -2.2526 -2.6485
   73MOL   H13440598   3.550   8.077   1.616 -0.1056 -0.0515 -0.2936
   73MOL   H13540599   3.935   8.008   1.397  1.0396  2.3239  1.0343
   73MOL   H13640600   3.842   7.882   1.471 -0.7290 -0.0823  2.1142
   73MOL   H13740601   4.029   8.061   1.638  2.7578 -1.7659  0.9602
   73MOL   H13840602   3.942   7.934   1.699  1.3256  3.5644  2.3184
   73MOL   H13940603   3.708   0.197   1.479  0.6153 -2.4009 -2.2608
   73MOL   H14040604   3.555   0.396   1.473  2.6094 -1.7310  1.6616
   73MOL   H14140605   3.335   0.498   1.498  0.2323  0.6683  1.1913
   73MOL   O14240606   4.215   8.057   1.467  0.3518  0.4805  0.1561
   73MOL   C14340607   4.195   7.936   1.498 -0.6326 -0.0899 -0.3460
   73MOL   O14440608   4.093   7.883   1.566  0.5158  0.1355 -0.1794
   73MOL   C14540609   4.290   7.828   1.475  0.4739  0.0923  0.4330
   73MOL   C14640610   4.416   7.862   1.433 -0.0545 -0.2665 -0.2561
   73MOL   C14740611   4.507   7.755   1.409  0.3210  0.5551  0.4225
   73MOL   C14840612   4.640   7.791   1.371 -0.8130 -0.1007 -0.3706
   73MOL   C14940613   4.732   7.689   1.329 -0.2185  0.2630  0.4695
   73MOL   C15040614   4.698   7.550   1.335  0.0424 -0.1808 -0.0152
   73MOL   C15140615   4.791   7.445   1.303  0.1503 -0.2128  0.8889
   73MOL   O15240616   4.920   7.484   1.303  0.1790 -0.2184  0.6093
   73MOL   C15340617   5.034   7.404   1.282 -0.5873  0.0272  0.5280
   73MOL   C15440618   5.049   7.348   1.146  0.6808  0.3953 -0.3853
   73MOL   O15540619   4.749   7.330   1.279  0.1775  0.4595  0.1651
   73MOL   C15640620   4.575   7.518   1.404 -0.1183 -0.8122  0.2313
   73MOL   C15740621   4.481   7.617   1.435 -0.0744 -0.0666  0.7666
   73MOL   C15840622   4.362   7.590   1.490  0.0924 -0.1680 -1.0163
   73MOL   C15940623   4.263   7.692   1.506  0.0333  0.8497  0.1520
   73MOL   H16040624   4.442   7.964   1.409  0.7403 -0.4483 -0.1667
   73MOL   H16140625   4.679   7.891   1.359 -0.1042 -0.4116 -0.6822
   73MOL   H16240626   4.825   7.724   1.288 -0.6169  0.7567 -0.0198
   73MOL   H16340627   5.013   7.323   1.351 -3.8439 -0.4146 -0.8807
   73MOL   H16440628   5.123   7.460   1.312 -0.1466 -0.9348  0.9993
   73MOL   H16540629   5.104   7.256   1.168  1.2346  1.3508  2.3737
   73MOL   H16640630   4.961   7.316   1.091  0.8119  1.7788 -1.4344
   73MOL   H16740631   4.550   7.414   1.419 -1.6324 -0.4609  0.2055
   73MOL   H16840632   4.344   7.486   1.514 -1.1243  0.5934  1.4742
   73MOL   H16940633   4.164   7.659   1.533  0.4586 -1.7297 -1.2353
   73MOL   O17040634   4.960   7.582   1.028 -0.3011  0.9049 -0.7347
   73MOL   C17140635   5.064   7.528   0.988 -0.2688  0.1407  0.0477
   73MOL   O17240636   5.124   7.430   1.052  0.5632 -0.5290 -0.2231
   73MOL   C17340637   5.150   7.577   0.870  0.0481  0.4337  0.8932
   73MOL   C17440638   5.278   7.523   0.844 -0.6999 -0.1187  0.1466
   73MOL   C17540639   5.357   7.560   0.738  0.0890 -0.0795 -0.3580
   73MOL   C17640640   5.480   7.495   0.726 -0.0686  0.5341  0.5581
   73MOL   C17740641   5.561   7.532   0.613 -0.8401  0.1967 -0.3405
   73MOL   C17840642   5.521   7.637   0.524 -0.1013 -0.1059 -0.2661
   73MOL   C17940643   5.618   7.686   0.417  0.2500 -0.7706 -0.2578
   73MOL   O18040644   5.742   7.653   0.439  0.6434  0.6833 -0.3289
   73MOL   C18140645   5.835   7.695   0.343  0.4955 -0.3646 -0.2757
   73MOL   C18240646   5.970   7.626   0.369  0.1448  0.4887  0.1983
   73MOL   O18340647   5.580   7.759   0.323  0.0606 -0.3044  0.1621
   73MOL   C18440648   5.396   7.706   0.554 -0.3151  0.6271 -0.5322
   73MOL   C18540649   5.315   7.663   0.657 -0.5548 -0.3502 -0.3634
   73MOL   C18640650   5.189   7.730   0.678  0.0666  0.6647  0.0787
   73MOL   C18740651   5.099   7.680   0.782  0.6252  0.4012  0.0679
   73MOL   H18840652   5.309   7.438   0.903  3.0908  1.2050  0.2179
   73MOL   H18940653   5.506   7.421   0.800 -0.0537  1.4793  1.5105
   73MOL   H19040654   5.661   7.493   0.604 -1.5591 -1.6240 -0.6156
   73MOL   H19140655   5.845   7.802   0.357  3.7049 -0.7070  0.5714
   73MOL   H19240656   5.798   7.678   0.242  0.2907  0.4413 -0.3362
   73MOL   H19340657   6.056   7.675   0.325  0.4819  0.6327  1.0009
   73MOL   H19440658   5.997   7.621   0.475 -0.0438  0.9810  0.2697
   73MOL   H19540659   5.372   7.791   0.492  1.6190  0.6933 -1.2329
   73MOL   H19640660   5.151   7.814   0.622  0.0678  1.1811  0.8398
   73MOL   H19740661   5.001   7.720   0.805 -1.1336 -2.4892 -2.0025
   73MOL   O19840662   6.145   7.430   0.414 -0.0470 -0.6775  0.4562
   73MOL   C19940663   6.050   7.407   0.343  0.0307 -0.0020 -0.3425
   73MOL   O20040664   5.960   7.493   0.314  0.5493  0.6562  0.0283
   73MOL   C20140665   6.035   7.281   0.269 -0.4901 -0.4251  0.4852
   73MOL   C20240666   6.150   7.197   0.253 -0.0187 -0.2050  0.5191
   73MOL   C20340667   6.143   7.070   0.193 -0.6844 -0.0921 -0.1046
   73MOL   C20440668   6.258   6.994   0.170 -0.0980  0.5303  0.0077
   73MOL   C20540669   6.252   6.861   0.116 -0.0795  0.0626 -0.2946
   73MOL   C20640670   6.123   6.807   0.082  0.0728  0.3073 -0.3419
   73MOL   C20740671   6.114   6.665   0.030  0.6412 -0.5885 -0.0522
   73MOL   O20840672   6.219   6.627   8.198 -0.0971 -0.1228  0.0873
   73MOL   C20940673   6.221   6.503   8.132  0.8602  1.0043  0.6310
   73MOL   C21040674   6.299   6.402   8.217  0.1476 -0.6069  0.3747
   73MOL   O21140675   6.023   6.586   0.055  0.1767 -0.0133  0.2840
   73MOL   C21240676   6.009   6.891   0.101  0.6387 -0.1564  0.3690
   73MOL   C21340677   6.018   7.021   0.151  0.4461 -0.1151 -0.4207
   73MOL   C21440678   5.901   7.099   0.173  0.5913  0.2947  0.1544
   73MOL   C21540679   5.908   7.228   0.231  0.9535  0.0920  0.2142
   73MOL   H21640680   6.244   7.241   0.285  0.3857 -0.3392 -0.4532
   73MOL   H21740681   6.354   7.031   0.201  0.1852 -1.1148  1.1542
   73MOL   H21840682   6.337   6.796   0.099 -0.4329 -0.0878 -1.5552
   73MOL   H21940683   6.250   6.499   8.027  0.7015 -0.8717  0.6424
   73MOL   H22040684   6.121   6.460   8.123  0.5732  1.6629  0.6324
   73MOL   H22140685   6.272   6.416   0.073 -2.4202  1.4579 -0.4976
   73MOL   H22240686   6.281   6.298   8.190 -1.6173 -0.3928  0.6536
   73MOL   H22340687   5.906   6.859   0.090  0.2419  0.9019  0.8870
   73MOL   H22440688   5.808   7.065   0.130  0.3222 -0.6123  1.4232
   73MOL   H22540689   5.820   7.289   0.247  0.9983  0.5160 -1.1564
   73MOL   O22640690   6.471   6.353   7.988  0.1761 -0.2004  0.0087
   73MOL   C22740691   6.507   6.406   8.095  0.1268 -0.3473  0.1861
   73MOL   O22840692   6.435   6.426   8.207  0.6931  0.1475 -0.5953
   73MOL   C22940693   6.647   6.467   8.115  0.1949 -0.9903 -0.8325
   73MOL   C23040694   6.655   6.585   8.190  0.4145  0.3960 -0.7153
   73MOL   C23140695   6.776   6.650   8.210 -0.7204  0.8118 -0.1940
   73MOL   C23240696   6.786   6.764   0.038  0.4993 -0.0903  0.5669
   73MOL   C23340697   6.902   6.840   0.040  0.4131  0.3270  0.2720
   73MOL   C23440698   7.023   6.784   8.236 -0.5657  0.0885  0.1222
   73MOL   C23540699   7.157   6.838   0.029 -0.0342  0.7206 -0.1891
   73MOL   O23640700   7.156   6.969   0.071  0.1023 -0.1689 -0.3518
   73MOL   C23740701   7.279   7.040   0.090  0.6041 -0.4597  0.4581
   73MOL   C23840702   7.267   7.177   0.031  0.3584  0.1507 -0.2122
   73MOL   O23940703   7.260   6.770   0.026  0.2245 -0.9458 -0.0124
   73MOL   C24040704   7.011   6.670   8.155 -0.2344  0.4696 -0.0487
   73MOL   C24140705   6.890   6.602   8.144  0.0414  0.3741 -0.3531
   73MOL   C24240706   6.881   6.480   8.070  0.4166 -0.2533  0.0045
   73MOL   C24340707   6.760   6.413   8.050 -0.2071  0.2303  0.4108
   73MOL   H24440708   6.562   6.622   8.232 -0.1172 -3.6178  2.0223
   73MOL   H24540709   6.702   6.800   0.096  0.8086  2.1209 -0.2727
   73MOL   H24640710   6.907   6.929   0.101 -0.6502  1.4935 -1.2870
   73MOL   H24740711   7.365   6.985   0.051  0.4626 -0.1122 -0.3620
   73MOL   H24840712   7.304   7.053   0.196  2.3813 -1.1460  0.1460
   73MOL   H24940713   7.359   7.205   8.230 -0.5421  0.1613 -1.9072
   73MOL   H25040714   7.191   7.181   8.201 -2.4362 -0.1512  2.3759
   73MOL   H25140715   7.101   6.636   8.106  0.6728  2.2131  0.3361
   73MOL   H25240716   6.965   6.449   8.010  2.2802  0.6566  2.0824
   73MOL   H25340717   6.762   6.318   7.999  2.2666  0.0731  0.7546
   73MOL   O25440718   7.016   7.229   0.133  0.0392  0.4867 -0.4267
   73MOL   C25540719   7.114   7.300   0.165 -0.0307 -0.1221  0.3828
   73MOL   O25640720   7.243   7.280   0.122  0.2123 -0.3450  0.3792
   73MOL   C25740721   7.097   7.422   0.235  0.2188 -0.5982 -0.4428
   73MOL   C25840722   6.979   7.491   0.223 -0.0814  0.1367  0.3104
   73MOL   C25940723   6.954   7.612   0.290  0.9590  1.1331 -0.1633
   73MOL   C26040724   6.830   7.673   0.292  0.1814  0.8421 -0.2545
   73MOL   C26140725   6.805   7.772   0.390 -0.4997  0.2576 -1.1958
   73MOL   C26240726   6.914   7.841   0.449 -0.6201 -0.2151  0.2471
   73MOL   C26340727   6.878   7.964   0.529 -0.7912  0.1374  0.5106
   73MOL   O26440728   6.764   8.033   0.484 -0.5079  0.3047  0.2463
   73MOL   C26540729   6.734   8.153   0.557  0.6182 -0.4077 -0.2812
   73MOL   C26640730   6.782   0.031   0.483 -0.2387 -0.5545 -0.2087
   73MOL   O26740731   6.940   7.997   0.628  0.6353 -0.4935  0.0575
   73MOL   C26840732   7.039   7.783   0.444  0.1694 -0.1219  0.3283
   73MOL   C26940733   7.063   7.663   0.367  0.1896 -0.4808 -1.0722
   73MOL   C27040734   7.187   7.602   0.373 -0.0690  0.7508  0.7382
   73MOL   C27140735   7.207   7.482   0.303  0.4048 -0.1995  0.2106
   73MOL   H27240736   6.903   7.449   0.159  0.3794  1.1943 -0.9513
   73MOL   H27340737   6.757   7.620   0.233 -0.0031 -1.3314  1.8280
   73MOL   H27440738   6.705   7.810   0.402 -1.0699 -1.3798 -0.7003
   73MOL   H27540739   6.777   8.164   0.656  0.3098  0.0921 -0.1996
   73MOL   H27640740   6.626   8.163   0.569  1.0025  1.3513  2.1858
   73MOL   H27740741   6.741   0.053   0.384 -1.8064  3.5265  1.2191
   73MOL   H27840742   6.747   0.115   0.543  0.9499 -0.1868 -0.0114
   73MOL   H27940743   7.120   7.829   0.499  0.3360  0.5875 -0.4867
   73MOL   H28040744   7.275   7.647   0.419 -0.5707 -0.9313  3.4539
   73MOL   H28140745   7.303   7.433   0.314 -0.2345 -1.5633 -0.2334
   73MOL   O28240746   6.958   0.257   0.484  0.0826 -0.2943 -0.3336
   73MOL   C28340747   7.002   0.145   0.473  0.3452 -1.0377  0.2522
   73MOL   O28440748   6.922   0.029   0.470  0.4051 -0.4524  0.1003
   73MOL   C28540749   7.145   0.109   0.468  0.9206 -0.3132 -0.4340
   73MOL   C28640750   7.186   8.227   0.453  0.0273  0.3473 -0.0425
   73MOL   C28740751   7.324   8.189   0.454 -0.1708 -0.3122 -0.0429
   73MOL   C28840752   7.369   8.056   0.440 -0.3983  0.4347  0.1886
   73MOL   C28940753   7.507   8.018   0.452  0.1630 -0.0205  0.1782
   73MOL   C29040754   7.599   8.123   0.477 -1.0117 -1.3483 -0.1187
   73MOL   C29140755   7.748   8.092   0.488  0.2135 -0.1258 -0.8545
   73MOL   O29240756   7.816   8.200   0.453  0.5903  0.3443 -0.0888
   73MOL   C29340757   7.953   8.192   0.433 -0.2047 -0.0384 -0.5570
   73MOL   C29440758   7.968   8.181   0.280 -0.1522  0.5606 -0.4797
   73MOL   O29540759   7.799   7.984   0.517  0.3306  0.1397  0.3558
   73MOL   C29640760   7.556   0.007   0.486 -0.7410 -0.1126 -0.2453
   73MOL   C29740761   7.421   0.040   0.478 -0.7669 -0.7432  0.4084
   73MOL   C29840762   7.381   0.178   0.489 -0.1749 -0.1630 -0.3792
   73MOL   C29940763   7.242   0.212   0.485 -0.1928  0.2025  0.7282
   73MOL   H30040764   7.123   8.141   0.439  0.7731 -0.7926  3.2240
   73MOL   H30140765   7.306   7.971   0.418 -0.9341  0.7486  0.5117
   73MOL   H30240766   7.551   7.921   0.433  0.9141  0.4701 -0.6216
   73MOL   H30340767   8.010   8.108   0.472  0.3094  1.0295  1.0610
   73MOL   H30440768   8.003   0.032   0.471  0.3590 -0.1868 -0.9513
   73MOL   H30540769   8.070   8.177   0.243 -0.4172 -0.5835 -1.0994
   73MOL   H30640770   7.916   8.096   0.236  0.4596  0.4145 -0.9204
   73MOL   H30740771   7.622   0.091   0.502 -0.1473 -0.5631 -0.3355
   73MOL   H30840772   7.457   0.251   0.511  1.3712 -2.0368  0.5967
   73MOL   H30940773   7.228   0.317   0.505  2.3648  0.5286  0.9444
   73MOL   O31040774   7.774   8.193   0.089 -0.2904  0.1121 -0.5074
   73MOL   C31140775   7.807   0.045   0.150  0.0828 -0.3221 -0.4394
   73MOL   O31240776   7.922   0.054   0.223 -0.2143 -0.0804  0.3054
   73MOL   C31340777   7.743   0.177   0.148 -0.3533  0.1305  0.1098
   73MOL   C31440778   7.601   0.183   0.158  0.4660 -0.1592 -0.1375
   73MOL   C31540779   7.533   0.309   0.148 -0.3427 -1.3686 -0.1523
   73MOL   C31640780   7.397   0.322   0.166 -0.4161 -0.7724  0.7548
   73MOL   C31740781   7.336   0.450   0.166  0.0292 -0.5144 -0.4092
   73MOL   C31840782   7.414   0.566   0.135 -0.4203  0.0208  0.4605
   73MOL   C31940783   7.351   0.699   0.131 -0.1121 -0.0827  0.1121
   73MOL   O32040784   7.216   0.688   0.148  0.5617  0.1555  0.0134
   73MOL   C32140785   7.128   0.774   0.088 -0.2629 -0.4275 -0.0003
   73MOL   C32240786   7.096   0.717   8.200 -0.7872 -0.0334 -0.3036
   73MOL   O32340787   7.404   0.807   0.105 -0.2369 -0.0633 -0.1469
   73MOL   C32440788   7.551   0.551   0.100 -0.1440  0.7220  0.2108
   73MOL   C32540789   7.611   0.427   0.114 -0.4262  0.2672  0.0510
   73MOL   C32640790   7.751   0.414   0.089  0.5121 -0.2107 -0.0632
   73MOL   C32740791   7.815   0.289   0.106  0.3062  0.3803 -0.1509
   73MOL   H32840792   7.541   0.096   0.183 -1.6858  1.4336  0.4290
   73MOL   H32940793   7.333   0.241   0.198 -1.1591 -2.0554 -3.7052
   73MOL   H33040794   7.231   0.466   0.187  0.5855  0.1318  2.0451
   73MOL   H33140795   7.169   0.874   0.071  1.2269 -1.2213 -1.2488
   73MOL   H33240796   7.035   0.787   0.143 -1.5073 -0.1803 -2.1029
   73MOL   H33340797   7.120   0.796   8.129  1.6379  1.2497  1.8984
   73MOL   H33440798   7.179   0.650   8.178 -1.2463 -0.4806 -0.6985
   73MOL   H33540799   7.609   0.635   0.064  0.4830 -1.2019 -3.5037
   73MOL   H33640800   7.811   0.501   0.063  0.2555  0.9022  2.7936
   73MOL   H33740801   7.920   0.286   0.080  0.0057 -1.6881 -1.1581
   73MOL   O33840802   7.035   0.568   7.980 -0.2805 -0.1695  0.0234
   73MOL   C33940803   6.946   0.594   8.063  0.1009 -0.4443  0.0663
   73MOL   O34040804   6.963   0.670   8.172  0.4165 -0.2463 -0.3587
   73MOL   C34140805   6.802   0.537   8.053 -0.1007 -1.2366  0.0060
   73MOL   C34240806   6.701   0.565   8.148 -0.5819  0.0607 -0.2787
   73MOL   C34340807   6.569   0.510   8.139 -0.5744  0.0916  0.2687
   73MOL   C34440808   6.457   0.549   8.215 -0.2096 -0.1941 -0.1778
   73MOL   C34540809   6.330   0.497   8.193  0.3311 -0.5260  0.6715
   73MOL   C34640810   6.299   0.418   8.088 -0.6645  0.8388 -0.0942
   73MOL   C34740811   6.163   0.359   8.070  0.3491 -0.1489  0.1255
   73MOL   O34840812   6.146   0.336   7.937 -0.2642 -0.3634 -0.2290
   73MOL   C34940813   6.017   0.326   7.890 -0.0431  0.5154  0.4473
   73MOL   C35040814   6.000   0.171   7.866  0.3540  0.2202  0.5011
   73MOL   O35140815   6.070   0.357   8.149  0.4422  0.6165 -0.1685
   73MOL   C35240816   6.410   0.370   8.011 -0.3698 -0.4394 -0.6815
   73MOL   C35340817   6.539   0.426   8.026 -0.1128 -0.1994 -0.2791
   73MOL   C35440818   6.640   0.401   7.930 -0.0838  0.1871  0.0948
   73MOL   C35540819   6.770   0.458   7.943  0.4822  0.0184  0.3649
   73MOL   H35640820   6.717   0.635   8.229  0.2599  0.3360 -0.6731
   73MOL   H35740821   6.470   0.620   0.047  0.3517  0.7388 -1.0798
   73MOL   H35840822   6.259   0.534   0.017 -0.7479  0.4929 -0.8611
   73MOL   H35940823   5.989   0.373   7.796  0.3962 -0.3101 -0.1022
   73MOL   H36040824   5.932   0.348   7.955 -0.9810 -0.1536 -0.5317
   73MOL   H36140825   6.083   0.124   7.813  1.3166 -0.0272  2.1730
   73MOL   H36240826   6.006   0.135   7.969  0.1478  2.9219  1.5132
   73MOL   H36340827   6.387   0.306   7.926 -0.7432  0.2069 -1.0702
   73MOL   H36440828   6.621   0.338   7.844  2.5245 -0.4102 -0.0886
   73MOL   H36540829   6.842   0.439   7.864  0.2427 -2.6202  0.7131
   73MOL   O36640830   5.969   0.227   7.609 -0.4721 -0.4522  0.0926
   73MOL   C36740831   5.877   0.166   7.666  0.3858 -0.1600 -0.7864
   73MOL   O36840832   5.881   0.132   7.797 -0.0205  0.2365  0.4448
   73MOL   C36940833   5.762   0.108   7.608 -0.4646 -0.2895  1.1399
   73MOL   C37040834   5.749   0.130   7.467  0.3834  0.0694 -0.2936
   73MOL   C37140835   5.649   0.066   7.391 -0.3852  0.3530  0.3360
   73MOL   C37240836   5.652   0.061   7.252  0.5031  0.1699  0.1628
   73MOL   C37340837   5.551   8.243   7.181  0.4238 -0.3842 -0.1932
   73MOL   C37440838   5.444   8.182   7.253 -0.3064  0.2015  0.2133
   73MOL   C37540839   5.327   8.117   7.182 -0.5926 -0.7795  0.2391
   73MOL   O37640840   5.311   8.165   7.061  0.1776  0.3689  0.3598
   73MOL   C37740841   5.190   8.140   6.997 -0.5046  0.2577  0.2233
   73MOL   C37840842   5.148   0.011   6.902 -1.1137  0.1399  0.1010
   73MOL   O37940843   5.242   8.049   7.240  0.2393 -0.5110 -0.1283
   73MOL   C38040844   5.431   8.199   7.395  0.4647 -0.5425  0.4250
   73MOL   C38140845   5.536   0.017   7.467  0.4711  0.5455 -0.1042
   73MOL   C38240846   5.537   0.013   7.608  0.4436  0.4767  0.6341
   73MOL   C38340847   5.654   0.051   7.678  0.5242  0.0876  0.5778
   73MOL   H38440848   5.831   0.173   7.411 -0.6260  2.9189  0.3815
   73MOL   H38540849   5.741   0.101   7.204  0.6569  1.5838  1.6007
   73MOL   H38640850   5.558   8.237   7.073 -0.9616  1.2226 -0.3821
   73MOL   H38740851   5.108   8.125   7.067 -0.4490 -0.2092  0.1933
   73MOL   H38840852   5.195   8.042   6.950  0.3424 -1.3587  3.5616
   73MOL   H38940853   5.044   8.249   6.874 -0.7640  1.0933 -1.6402
   73MOL   H39040854   5.156   0.098   6.968  0.7569 -0.5714  0.8482
   73MOL   H39140855   5.353   8.146   7.447 -1.4427  0.9704 -0.8013
   73MOL   H39240856   5.457   8.211   7.659 -0.6742  1.3342 -0.2208
   73MOL   H39340857   5.655   0.022   7.782 -2.0623 -2.4783 -0.0586
   73MOL   O39440858   5.100   8.127   6.679  0.3536 -0.0685  0.3085
   73MOL   C39540859   5.207   8.184   6.686  0.0125 -0.4203  0.0640
   73MOL   O39640860   5.239   0.010   6.790 -0.3608 -0.5342  0.5963
   73MOL   C39740861   5.314   8.181   6.592  0.4080 -0.1226 -0.0981
   73MOL   C39840862   5.299   8.122   6.463  0.0673 -0.5622  0.6515
   73MOL   C39940863   5.415   8.112   6.375 -0.1299  0.0061  0.1894
   73MOL   C40040864   5.408   8.055   6.248  0.2507 -0.1075 -0.1840
   73MOL   C40140865   5.520   8.059   6.169  0.2389 -0.2337  0.6760
   73MOL   C40240866   5.641   8.117   6.209 -0.4307  0.8026  0.4826
   73MOL   C40340867   5.756   8.114   6.123 -0.1789 -0.2022  0.3043
   73MOL   O40440868   5.874   8.144   6.181 -0.1556 -1.0794  0.2931
   73MOL   C40540869   5.997   8.109   6.123  0.6645  0.1253  0.3061
   73MOL   C40640870   6.078   8.225   6.066 -0.4497 -0.3145  0.0129
   73MOL   O40740871   5.748   8.066   6.010  0.1283  0.0006 -0.4311
   73MOL   C40840872   5.653   8.163   6.340  0.1721  0.2031  0.6938
   73MOL   C40940873   5.539   8.171   6.420 -0.1157 -0.6007 -0.6463
   73MOL   C41040874   5.550   8.232   6.544  0.4633  0.0422  0.7273
   73MOL   C41140875   5.440   8.231   6.630 -0.3106  0.4267  1.0006
   73MOL   H41240876   5.211   8.064   6.440 -0.4879  1.1979 -1.7899
   73MOL   H41340877   5.317   8.010   6.211 -0.2150  0.9172 -0.3138
   73MOL   H41440878   5.512   8.015   6.070 -1.9769 -3.5480  2.2204
   73MOL   H41540879   5.983   8.034   6.044  0.4716  1.8585 -1.3511
   73MOL   H41640880   6.051   8.056   6.201  1.1270 -0.2344 -0.2503
   73MOL   H41740881   6.087   0.065   6.128  3.6002 -0.6286  0.0199
   73MOL   H41840882   6.180   8.186   6.071  0.1988  1.4264  0.9173
   73MOL   H41940883   5.743   8.217   6.366 -0.2518  1.6964 -0.8547
   73MOL   H42040884   5.639   0.037   6.572  0.2474  0.1353  1.2383
   73MOL   H42140885   5.462   0.029   6.725  0.9813  2.0195 -0.0423
   73MOL   O42240886   6.153   8.080   5.856  0.4195 -0.6346  0.4313
   73MOL   C42340887   6.082   8.180   5.837 -0.4068  0.2872 -0.2721
   73MOL   O42440888   6.044   0.016   5.933 -0.5978  0.0513 -0.3697
   73MOL   C42540889   6.028   8.207   5.699  0.2319 -0.4533  0.4414
   73MOL   C42640890   5.971   0.087   5.669 -0.0278 -0.1197  0.2759
   73MOL   C42740891   5.914   0.103   5.544 -0.2422  0.4303  0.3201
   73MOL   C42840892   5.860   0.235   5.518  0.6823 -0.7581 -0.6302
   73MOL   C42940893   5.819   0.265   5.392 -0.4301  0.0111 -0.4263
   73MOL   C43040894   5.817   0.163   5.291  0.6826 -0.2031 -0.8037
   73MOL   C43140895   5.771   0.207   5.155 -0.1224 -0.3207  1.3552
   73MOL   O43240896   5.769   0.104   5.068  0.3127  0.3395 -0.2146
   73MOL   C43340897   5.717   0.127   4.937  0.1914  0.3096  0.3821
   73MOL   C43440898   5.724   0.003   4.846 -0.1554  0.2400 -0.0111
   73MOL   O43540899   5.728   0.321   5.142  0.2298  0.0775 -0.1063
   73MOL   C43640900   5.856   0.030   5.327  0.4936  0.1348  0.0526
   73MOL   C43740901   5.916   0.002   5.450 -0.2130 -0.2196  0.5508
   73MOL   C43840902   5.982   8.131   5.473 -0.3139  0.0125  0.1679
   73MOL   C43940903   6.032   8.108   5.601  0.2117 -0.0614 -0.4275
   73MOL   H44040904   5.971   0.171   5.737 -1.6857 -1.1239  1.5418
   73MOL   H44140905   5.856   0.312   5.594 -2.5418 -3.0791  1.6943
   73MOL   H44240906   5.789   0.368   5.376 -0.3509  0.1880  0.5438
   73MOL   H44340907   5.762   0.205   4.876 -1.1205  1.2067  0.5356
   73MOL   H44440908   5.613   0.161   4.940  1.0114  3.0372  0.0469
   73MOL   H44540909   5.729   0.041   4.744  0.6014 -3.3205 -1.3690
   73MOL   H44640910   5.820   8.203   4.864 -1.4542 -2.2812  0.2586
   73MOL   H44740911   5.838   8.206   5.250 -1.4308  0.4047  0.2296
   73MOL   H44840912   5.996   8.054   5.399 -1.2101 -0.1787  0.1932
   73MOL   H44940913   6.086   8.014   5.608  1.2473  0.5835  0.2262
   73MOL   O45040914   5.472   0.043   4.773 -0.4074 -0.5868  0.5852
   73MOL   C45140915   5.497   8.192   4.844  1.0775 -0.1044  0.0238
   73MOL   O45240916   5.622   8.161   4.871 -0.0344  0.0374 -0.1876
   73MOL   C45340917   5.408   8.076   4.881  0.3432 -0.3006  0.0561
   73MOL   C45440918   5.447   7.961   4.954 -0.7404 -0.1553  0.6856
   73MOL   C45540919   5.351   7.869   4.986  0.1801 -0.0888  0.3705
   73MOL   C45640920   5.382   7.754   5.055 -0.1386 -0.1585 -0.1168
   73MOL   C45740921   5.277   7.667   5.102 -0.3894 -0.5408 -0.6322
   73MOL   C45840922   5.144   7.707   5.078 -0.3650 -0.2114  0.5439
   73MOL   C45940923   5.029   7.624   5.134  0.6472  0.1601  0.3593
   73MOL   O46040924   5.063   7.495   5.176 -0.3752  0.0392  0.2004
   73MOL   C46140925   4.962   7.413   5.233 -0.2558 -0.4486  0.1336
   73MOL   C46240926   4.968   7.420   5.394  0.1897  0.1663 -0.0475
   73MOL   O46340927   4.910   7.661   5.140 -0.5925  0.1608  0.0257
   73MOL   C46440928   5.112   7.816   4.999  0.1766  1.0171 -0.2723
   73MOL   C46540929   5.218   7.890   4.948 -0.1444 -0.3600  0.0080
   73MOL   C46640930   5.180   8.007   4.878  0.2849  0.5997 -1.0292
   73MOL   C46740931   5.274   8.096   4.844 -0.1690 -0.7038  0.3200
   73MOL   H46840932   5.548   7.935   4.981 -0.5984  1.3616  1.6604
   73MOL   H46940933   5.485   7.724   5.066  0.0210  0.1780 -0.6815
   73MOL   H47040934   5.291   7.574   5.155  2.2960  1.2256  1.9455
   73MOL   H47140935   4.974   7.310   5.198 -0.8536 -0.1616 -0.9460
   73MOL   H47240936   4.858   7.434   5.205 -0.9622 -3.7079  0.0817
   73MOL   H47340937   4.982   7.522   5.430  1.9328  0.3807 -1.2261
   73MOL   H47440938   4.876   7.372   5.426 -0.8415  0.3509 -2.5795
   73MOL   H47540939   5.008   7.834   4.977  0.3346  3.6911  1.0280
   73MOL   H47640940   5.076   8.018   4.852  0.2772  0.3361 -1.1119
   73MOL   H47740941   5.244   8.186   4.791 -2.4561 -0.7207  1.4928
   73MOL   O47840942   5.237   7.511   5.433  0.3913 -0.0883  0.3488
   73MOL   C47940943   5.208   7.391   5.456 -0.1361 -0.1985 -1.0442
   73MOL   O48040944   5.081   7.341   5.436  0.2083 -0.2312  0.3378
   73MOL   C48140945   5.302   7.299   5.530 -0.0727 -0.2027 -0.3456
   73MOL   C48240946   5.272   7.159   5.542  0.5074 -0.3606 -0.6250
   73MOL   C48340947   5.361   7.073   5.612  0.1662 -0.4544 -0.2081
   73MOL   C48440948   5.336   6.938   5.611 -0.2244  0.9530  0.1704
   73MOL   C48540949   5.425   6.853   5.681  1.7033  0.0433  0.0872
   73MOL   C48640950   5.546   6.897   5.745 -0.3975 -0.0393 -0.3433
   73MOL   C48740951   5.638   6.815   5.822  0.3535  0.6351  0.3160
   73MOL   O48840952   5.581   6.695   5.863 -0.0048  0.0647  0.5400
   73MOL   C48940953   5.657   6.600   5.939  0.5237 -0.2011 -0.3408
   73MOL   C49040954   5.663   6.465   5.876 -0.3334  0.4795 -0.3252
   73MOL   O49140955   5.751   6.845   5.852 -0.3610 -0.0940 -0.4251
   73MOL   C49240956   5.568   7.038   5.737 -0.2091 -0.6641  0.4196
   73MOL   C49340957   5.484   7.127   5.665 -0.1079 -0.4098 -0.2814
   73MOL   C49440958   5.513   7.262   5.649  0.1881 -0.4946  0.1871
   73MOL   C49540959   5.421   7.351   5.586  0.3215 -0.0385  0.1402
   73MOL   H49640960   5.183   7.110   5.505  0.3281  0.3059 -1.0979
   73MOL   H49740961   5.257   6.890   5.555  1.8553  0.0786 -2.0897
   73MOL   H49840962   5.385   6.753   5.688  2.4388 -0.1759  1.2220
   73MOL   H49940963   5.605   6.590   6.034  1.0470  0.7587  0.0462
   73MOL   H50040964   5.757   6.629   5.970  0.5777 -1.1812  0.4247
   73MOL   H50140965   5.712   6.400   5.949 -0.2984 -0.5218 -1.2201
   73MOL   H50240966   5.571   6.425   5.833 -1.5125  0.5508  2.0445
   73MOL   H50340967   5.652   7.078   5.792 -1.4763  1.1309  1.1050
   73MOL   H50440968   5.604   7.306   5.689 -0.9701  1.1007  1.1443
   73MOL   H50540969   5.453   7.455   5.584  0.9244 -0.1950  1.6047
   73MOL   O50640970   5.721   6.269   5.684 -0.3021  0.4296  0.4481
   73MOL   C50740971   5.778   6.382   5.682  0.2454  1.1605 -0.4617
   73MOL   O50840972   5.767   6.467   5.778 -0.3244 -0.3617  0.9543
   73MOL   C50940973   5.859   6.429   5.581 -0.0453 -0.0144  0.1039
   73MOL   C51040974   5.951   6.540   5.600  0.3613  0.0310 -0.3756
   73MOL   C51140975   6.027   6.593   5.496  0.7000  0.0913  0.2327
   73MOL   C51240976   6.091   6.711   5.521 -0.3173  0.1816 -0.7520
   73MOL   C51340977   6.167   6.766   5.421 -0.3254  0.2045 -0.3169
   73MOL   C51440978   6.173   6.707   5.290  0.4129  0.0604 -0.3278
   73MOL   C51540979   6.233   6.787   5.181  0.4384  0.4268  0.4101
   73MOL   O51640980   6.217   6.736   5.060  0.2860 -0.4297 -0.1492
   73MOL   C51740981   6.268   6.796   4.945  0.3430  0.6401 -0.0136
   73MOL   C51840982   6.156   6.792   4.845 -0.4234 -0.6837 -0.3495
   73MOL   O51940983   6.294   6.894   5.201  0.2370 -0.2664  0.3347
   73MOL   C52040984   6.094   6.594   5.265  0.4270  0.3912  0.2912
   73MOL   C52140985   6.018   6.534   5.369  0.2878  0.5615  0.2349
   73MOL   C52240986   5.935   6.423   5.341  0.5849 -0.0629 -0.3800
   73MOL   C52340987   5.851   6.371   5.446 -0.5831 -0.3932 -0.0544
   73MOL   H52440988   5.962   6.577   5.701  0.2167 -0.3137 -0.2306
   73MOL   H52540989   6.076   6.759   5.617  0.3821 -2.5447  0.7528
   73MOL   H52640990   6.213   6.862   5.441 -1.4300  0.8222 -0.7208
   73MOL   H52740991   6.362   6.753   4.912  0.1095  1.5367 -1.9167
   73MOL   H52840992   6.294   6.897   4.974  0.6635  1.0938 -1.7920
   73MOL   H52940993   6.152   6.689   4.811  4.0139 -1.0432 -0.0542
   73MOL   H53040994   6.061   6.810   4.895 -0.3439  1.9770 -1.0832
   73MOL   H53140995   6.077   6.545   5.170  0.6101 -2.2411  1.5848
   73MOL   H53240996   5.921   6.384   5.241 -0.1832 -1.2850  0.1841
   73MOL   H53340997   5.794   6.283   5.420 -0.7023 -1.0820  2.3665
   73MOL   O53440998   6.357   6.773   4.654  0.2573 -0.7198 -0.9397
   73MOL   C53540999   6.278   6.870   4.653  0.1177  0.7047 -0.0604
   73MOL   O53641000   6.178   6.885   4.745 -0.0901 -0.4663 -0.0109
   73MOL   C53741001   6.265   6.978   4.557 -0.4187 -0.0937 -0.5813
   73MOL   C53841002   6.309   6.958   4.425 -0.1206 -0.0212 -0.3608
   73MOL   C53941003   6.302   7.053   4.319  0.7506  0.1991  0.4028
   73MOL   C54041004   6.345   7.028   4.185  1.1259  0.4744  0.1786
   73MOL   C54141005   6.315   7.125   4.084  0.9595 -0.2054 -0.5257
   73MOL   C54241006   6.259   7.248   4.120 -0.5131  0.3305  0.3728
   73MOL   C54341007   6.235   7.346   4.011 -0.4773 -0.5078 -0.1012
   73MOL   O54441008   6.256   7.289   3.885 -0.0526 -0.1892 -0.4360
   73MOL   C54541009   6.245   7.380   3.774  0.1601 -0.0434  0.6586
   73MOL   C54641010   6.199   7.289   3.661 -0.3071 -0.2636 -0.2701
   73MOL   O54741011   6.211   7.462   4.035  0.4513  0.0982  0.1193
   73MOL   C54841012   6.221   7.272   4.254  0.5718  0.5974 -0.0120
   73MOL   C54941013   6.233   7.175   4.353  0.0611  0.7010  0.5443
   73MOL   C55041014   6.194   7.202   4.487  0.5249  0.4062 -0.8564
   73MOL   C55141015   6.216   7.101   4.587  0.3348 -0.2873 -0.5437
   73MOL   H55241016   6.361   6.867   4.396 -0.2176 -0.8322  1.9338
   73MOL   H55341017   6.402   6.941   4.157  1.6103  0.5311  0.9556
   73MOL   H55441018   6.354   7.100   3.987  2.4886  1.5376 -0.3898
   73MOL   H55541019   6.344   7.406   3.737 -0.6796 -0.9727 -2.4278
   73MOL   H55641020   6.171   7.461   3.780 -1.2616 -1.2745  0.1590
   73MOL   H55741021   6.267   7.212   3.625 -0.8335 -1.2862  0.8737
   73MOL   H55841022   6.170   7.353   3.578  0.9056  0.4710 -0.1356
   73MOL   H55941023   6.162   7.360   4.277 -0.9503 -0.5669  0.5632
   73MOL   H56041024   6.157   7.301   4.509  0.4509 -0.1677  1.7191
   73MOL   H56141025   6.185   7.135   4.684 -1.0344 -1.8613 -0.4227
   73MOL   H56241026   6.103   7.242   3.683 -0.3136 -0.0380  0.1975
   74MOL     O141027   6.327   4.460   7.005  0.4041  0.1668  0.1075
   74MOL     C241028   6.223   4.493   7.055 -0.7940 -0.3507 -0.1997
   74MOL     O341029   6.207   4.596   7.140  0.2040 -0.5308  0.1738
   74MOL     C441030   6.086   4.443   7.007 -0.2095 -0.0485  0.2300
   74MOL     C541031   5.971   4.459   7.085 -0.2829  0.8894  0.2957
   74MOL     C641032   5.848   4.410   7.046 -0.0942  0.6011 -0.3950
   74MOL     C741033   5.731   4.415   7.126 -0.0337  0.4868 -0.1959
   74MOL     C841034   5.608   4.367   7.081  0.3261 -0.3690 -0.2308
   74MOL     C941035   5.602   4.298   6.960 -0.9253 -0.1220  0.1934
   74MOL    C1041036   5.466   4.259   6.915  0.3768 -0.3286  0.4202
   74MOL    O1141037   5.466   4.230   6.784  0.1414 -0.1161  0.0654
   74MOL    C1241038   5.355   4.161   6.730 -0.7105  0.1954 -0.3098
   74MOL    C1341039   5.366   4.187   6.574  1.0985 -0.3376  0.1230
   74MOL    O1441040   5.369   4.259   6.988  0.1027  0.1202  0.2466
   74MOL    C1541041   5.716   4.293   6.874 -0.3437 -0.3948  0.3201
   74MOL    C1641042   5.844   4.343   6.922  0.5603 -0.2062 -0.6585
   74MOL    C1741043   5.952   4.331   6.830  0.3442  0.3709  0.7872
   74MOL    C1841044   6.074   4.385   6.877 -0.2585 -0.4911  0.7436
   74MOL    H1941045   5.974   4.501   7.184 -4.5283  3.1495 -0.4369
   74MOL    H2041046   5.744   4.447   7.228  0.4620 -0.4147  0.0328
   74MOL    H2141047   5.515   4.375   7.136 -2.2286 -1.1422 -4.1861
   74MOL    H2241048   5.345   4.059   6.767 -3.3718  0.7194  0.5589
   74MOL    H2341049   5.267   4.208   6.774 -0.1883  1.5817 -0.7437
   74MOL    H2441050   5.270   4.147   6.540 -0.1285  1.4447  1.4173
   74MOL    H2541051   5.370   4.295   6.565  2.1714 -0.3424  0.5091
   74MOL    H2641052   5.711   4.238   6.782 -0.3873 -1.1336  0.7578
   74MOL    H2741053   5.950   4.282   6.733  0.5670 -0.5805  1.2552
   74MOL    H2841054   6.159   4.388   6.809 -0.4728  4.0589  0.4981
   74MOL    H2941055   6.294   4.633   7.146 -0.0226  0.2548 -1.2101
   74MOL    O3041056   5.375   3.915   6.550  0.3480 -0.5363 -0.5396
   74MOL    C3141057   5.476   3.986   6.528 -0.2312  0.6467  0.0940
   74MOL    O3241058   5.475   4.117   6.533 -0.1962  0.1558 -1.1108
   74MOL    C3341059   5.609   3.936   6.485  0.2378  0.2976 -0.1935
   74MOL    C3441060   5.724   4.027   6.473  0.3114  0.6466  0.1303
   74MOL    C3541061   5.848   3.977   6.435 -0.0751 -0.6910 -0.3216
   74MOL    C3641062   5.960   4.056   6.423 -0.2401 -0.0630  0.1232
   74MOL    C3741063   6.081   4.008   6.370  0.0210  0.0800 -0.3436
   74MOL    C3841064   6.097   3.871   6.340  0.8083 -0.4123  0.1357
   74MOL    C3941065   6.225   3.814   6.291 -0.0303 -0.9362  0.3224
   74MOL    O4041066   6.213   3.694   6.234  0.1834  0.5155 -0.6483
   74MOL    C4141067   6.328   3.650   6.163  0.2022 -0.2198 -0.8714
   74MOL    C4241068   6.343   3.739   6.027 -0.5624  0.2706  0.3692
   74MOL    O4341069   6.328   3.877   6.298  0.5670 -0.3261  0.0363
   74MOL    C4441070   5.983   3.788   6.355 -0.1506  0.1351 -0.0169
   74MOL    C4541071   5.862   3.840   6.399  0.5632 -0.1537 -0.0886
   74MOL    C4641072   5.751   3.754   6.406 -0.9172  0.1631  0.3718
   74MOL    C4741073   5.629   3.802   6.452  0.6504 -0.0321  0.5761
   74MOL    H4841074   5.720   4.134   6.488  0.9888  0.3955  2.1495
   74MOL    H4941075   5.953   4.162   6.438  1.7805  0.1068 -0.0419
   74MOL    H5041076   6.162   4.078   6.366 -0.7409  0.8572 -4.3287
   74MOL    H5141077   6.309   3.545   6.138 -0.4028 -0.4036  0.3448
   74MOL    H5241078   6.417   3.647   6.226  1.0476 -1.3298 -2.0805
   74MOL    H5341079   6.285   3.831   6.017  1.3975  1.6397  1.1795
   74MOL    H5441080   6.443   3.784   6.024 -0.4775  0.0749  0.2976
   74MOL    H5541081   5.984   3.682   6.339 -1.6482 -0.2928  2.3997
   74MOL    H5641082   5.763   3.651   6.377  0.6089  0.7197 -1.0409
   74MOL    H5741083   5.541   3.739   6.459  0.0276  1.0932  3.7128
   74MOL    O5841084   6.517   3.539   5.934 -0.3974  0.4875 -0.0813
   74MOL    C5941085   6.418   3.561   5.865  0.2497 -0.1764 -0.1222
   74MOL    O6041086   6.328   3.659   5.907 -0.8659  0.8619 -0.4926
   74MOL    C6141087   6.386   3.483   5.745  1.1291 -0.2315  0.4455
   74MOL    C6241088   6.443   3.358   5.722  0.5378 -0.3284 -0.0788
   74MOL    C6341089   6.410   3.286   5.607  0.0062 -0.5987  0.3749
   74MOL    C6441090   6.479   3.168   5.587 -0.3882  0.0383  0.2198
   74MOL    C6541091   6.456   3.100   5.463 -0.5466 -0.6880 -0.2878
   74MOL    C6641092   6.349   3.141   5.379 -0.2188 -1.1584 -0.9292
   74MOL    C6741093   6.318   3.062   5.264  0.2381  0.1671  0.4049
   74MOL    O6841094   6.211   3.104   5.188  0.0650 -0.1639 -0.1063
   74MOL    C6941095   6.138   3.019   5.098 -0.3050 -0.0327 -0.1849
   74MOL    C7041096   6.007   2.964   5.164 -0.3010 -0.2502 -0.3791
   74MOL    O7141097   6.374   2.958   5.243 -0.1762  0.2768 -0.2880
   74MOL    C7241098   6.276   3.257   5.407  0.0857 -0.7233 -0.5119
   74MOL    C7341099   6.312   3.335   5.520  0.0049 -0.4402 -0.3243
   74MOL    C7441100   6.256   3.467   5.536  0.6400  0.6024 -0.0318
   74MOL    C7541101   6.293   3.537   5.649  0.4895 -1.1174 -0.4275
   74MOL    H7641102   6.525   3.317   5.780 -0.5171 -1.5437  0.5736
   74MOL    H7741103   6.559   3.140   5.654 -0.0066  0.3459 -0.1019
   74MOL    H7841104   6.505   3.007   5.441  3.3076  1.3831 -0.9539
   74MOL    H7941105   6.196   2.927   5.089  1.2593  0.7726  1.4485
   74MOL    H8041106   6.136   3.056   4.996 -1.3383  1.7234  0.4565
   74MOL    H8141107   5.961   2.880   5.114 -4.2763  0.4065  1.9883
   74MOL    H8241108   6.017   2.955   5.272 -0.2907  0.4988 -0.3111
   74MOL    H8341109   6.198   3.294   5.341  0.1105  0.2980  0.0249
   74MOL    H8441110   6.184   3.507   5.466 -0.5932 -0.2250  0.7284
   74MOL    H8541111   6.254   3.637   5.660  1.6839 -0.6113 -0.6649
   74MOL    O8641112   5.947   3.163   5.351 -0.1379 -0.3521  0.3877
   74MOL    C8741113   5.900   3.175   5.239  0.0044  0.1096  0.0781
   74MOL    O8841114   5.906   3.068   5.149 -0.0095 -0.2171 -0.1158
   74MOL    C8941115   5.826   3.292   5.193 -0.3069  0.4883 -0.2734
   74MOL    C9041116   5.840   3.416   5.256 -0.5951 -0.1379  0.8795
   74MOL    C9141117   5.774   3.533   5.204  0.3326  0.3737 -0.1057
   74MOL    C9241118   5.788   3.661   5.267 -0.4166  0.3657 -0.6272
   74MOL    C9341119   5.702   3.767   5.228 -0.5779  0.4302 -0.7684
   74MOL    C9441120   5.618   3.752   5.118  0.0767  0.8076  0.5306
   74MOL    C9541121   5.541   3.868   5.069  0.0627 -0.2002  0.1639
   74MOL    O9641122   5.442   3.836   4.983 -0.6215 -0.0456 -0.1301
   74MOL    C9741123   5.369   3.942   4.918  0.6962 -0.7585 -0.2676
   74MOL    C9841124   5.247   3.887   4.841 -0.5679 -0.2476 -0.0335
   74MOL    O9941125   5.568   3.982   5.106  0.3808 -0.7654 -0.1024
   74MOL   C10041126   5.603   3.625   5.054 -0.7906 -0.2493 -0.9454
   74MOL   C10141127   5.689   3.519   5.091 -0.0949  0.4160 -0.0674
   74MOL   C10241128   5.673   3.392   5.032 -0.3497  0.4639 -0.4153
   74MOL   C10341129   5.746   3.283   5.078  0.2761  1.0077 -0.0979
   74MOL   H10441130   5.902   3.423   5.344 -0.7951 -0.8692  1.0878
   74MOL   H10541131   5.850   3.673   5.355  1.0999 -0.1923 -1.6122
   74MOL   H10641132   5.688   3.857   5.286  3.5951  0.6533  0.0346
   74MOL   H10741133   5.435   4.007   4.862  1.8863 -2.5734 -1.0132
   74MOL   H10841134   5.324   4.002   4.997 -1.0190 -0.1246 -1.6818
   74MOL   H10941135   5.186   3.824   4.906 -0.3838 -0.1927  0.1912
   74MOL   H11041136   5.180   3.970   4.817 -0.2657  0.3407  1.0933
   74MOL   H11141137   5.539   3.619   4.967  0.2913 -0.9129 -1.7093
   74MOL   H11241138   5.613   3.381   4.944  0.1930 -2.7872 -0.4129
   74MOL   H11341139   5.727   3.188   5.031  4.2323 -0.8386  1.7382
   74MOL   O11441140   5.345   3.636   4.825  0.1642 -0.5235 -0.4223
   74MOL   C11541141   5.318   3.696   4.722 -0.1523 -0.4149 -0.6198
   74MOL   O11641142   5.286   3.827   4.721  0.4400  0.5560 -0.0963
   74MOL   C11741143   5.301   3.630   4.583  0.1358 -0.3628 -0.3704
   74MOL   C11841144   5.271   3.497   4.586 -0.0412  0.5589  0.0334
   74MOL   C11941145   5.237   3.423   4.470  0.1374  0.5023  0.9728
   74MOL   C12041146   5.190   3.290   4.480 -0.0500  0.0944 -0.2285
   74MOL   C12141147   5.170   3.213   4.369 -0.7677  0.7638  0.2044
   74MOL   C12241148   5.188   3.273   4.245  0.2745 -0.0895  0.4024
   74MOL   C12341149   5.182   3.179   4.125 -0.7507 -0.0277 -0.4812
   74MOL   O12441150   5.233   3.230   4.019  0.3159  0.3435  0.4133
   74MOL   C12541151   5.213   3.169   3.892 -0.4062 -0.9094  0.6552
   74MOL   C12641152   5.336   3.084   3.856  0.4117 -0.1660 -0.5870
   74MOL   O12741153   5.126   3.074   4.124 -0.6732  0.2321 -0.0647
   74MOL   C12841154   5.217   3.410   4.228  0.3109  0.0776  0.1832
   74MOL   C12941155   5.240   3.488   4.343  1.0116  0.5325  0.0995
   74MOL   C13041156   5.262   3.619   4.343 -0.3813 -0.0252 -0.0161
   74MOL   C13141157   5.293   3.694   4.461  0.3418 -0.2289  0.5260
   74MOL   H13241158   5.267   3.447   4.682  1.7128  0.9001  0.3087
   74MOL   H13341159   5.184   3.237   4.574  2.4625  0.3150  0.0703
   74MOL   H13441160   5.146   3.108   4.372  0.8556  0.4100  2.4712
   74MOL   H13541161   5.216   3.249   3.818  1.4241  0.0262  1.7092
   74MOL   H13641162   5.117   3.120   3.878  0.1228 -3.0950  4.0525
   74MOL   H13741163   5.329   3.040   3.757 -0.9865 -0.7664 -0.2307
   74MOL   H13841164   5.419   3.154   3.848 -1.3630  1.9709 -0.6057
   74MOL   H13941165   5.232   3.452   4.130 -1.5841  0.0002 -0.1745
   74MOL   H14041166   5.251   3.656   4.242 -0.2842 -0.5282 -0.2100
   74MOL   H14141167   5.320   3.799   4.459  1.6575 -0.5706 -0.9912
   74MOL   O14241168   5.328   2.813   3.783  0.1568 -0.5952  0.4360
   74MOL   C14341169   5.357   2.845   3.902  0.4917 -0.9062 -0.3843
   74MOL   O14441170   5.350   2.971   3.949  0.4006  0.1467 -0.0608
   74MOL   C14541171   5.402   2.746   4.010 -0.4423  0.0456 -0.2272
   74MOL   C14641172   5.396   2.782   4.149 -0.0628  0.0648  0.1838
   74MOL   C14741173   5.442   2.693   4.246 -0.1907  0.3851 -0.9205
   74MOL   C14841174   5.453   2.736   4.383  0.3218  0.2490 -0.1281
   74MOL   C14941175   5.498   2.641   4.483  0.2369  0.5705 -0.0365
   74MOL   C15041176   5.535   2.514   4.447 -0.1141 -0.6073  0.2732
   74MOL   C15141177   5.583   2.424   4.558  0.0329 -0.3617  0.4498
   74MOL   O15241178   5.605   2.297   4.511  0.0089  0.1367 -0.3095
   74MOL   C15341179   5.655   2.204   4.598  0.1228  0.2787 -1.0029
   74MOL   C15441180   5.585   2.069   4.604 -0.1586 -0.4909 -0.1073
   74MOL   O15541181   5.602   2.460   4.677  0.4202 -0.0374 -0.0596
   74MOL   C15641182   5.528   2.476   4.313  0.1247 -0.5144 -0.3714
   74MOL   C15741183   5.485   2.566   4.216 -0.7219  0.2331 -0.6505
   74MOL   C15841184   5.481   2.527   4.081 -0.2335  0.6784  0.2897
   74MOL   C15941185   5.453   2.615   3.978  0.1929 -0.1354  0.0111
   74MOL   H16041186   5.365   2.883   4.169 -2.1664 -0.5720  0.2500
   74MOL   H16141187   5.414   2.828   4.423  0.4199  0.9662 -1.6121
   74MOL   H16241188   5.501   2.675   4.585 -0.7291  0.8003 -0.0804
   74MOL   H16341189   5.660   2.241   4.700  1.2009 -2.9010  0.1787
   74MOL   H16441190   5.758   2.189   4.564 -0.2924 -1.1039 -1.7030
   74MOL   H16541191   5.621   2.005   4.685  0.3340  0.8203  0.7200
   74MOL   H16641192   5.484   2.082   4.644 -1.1759  0.5677 -2.9558
   74MOL   H16741193   5.548   2.371   4.297 -1.6060 -0.9946  0.3953
   74MOL   H16841194   5.507   2.426   4.050 -2.1766 -0.2490  1.6284
   74MOL   H16941195   5.471   2.592   3.874  0.6088 -0.7609  0.2164
   74MOL   O17041196   5.791   1.930   4.480  0.2524 -0.0608 -0.0930
   74MOL   C17141197   5.680   1.938   4.434  0.5661  0.0545 -0.1008
   74MOL   O17241198   5.578   2.007   4.483 -0.3560 -0.7237  0.1343
   74MOL   C17341199   5.644   1.879   4.299 -0.4864 -0.0050 -0.4854
   74MOL   C17441200   5.750   1.817   4.231 -0.3265 -0.4362  0.4132
   74MOL   C17541201   5.715   1.747   4.112  0.6209 -0.2404  0.4907
   74MOL   C17641202   5.810   1.693   4.029 -0.4303 -0.2348 -0.3458
   74MOL   C17741203   5.784   1.636   3.907 -0.2804 -0.5662  0.6044
   74MOL   C17841204   5.650   1.631   3.869  0.1391  0.5327  0.1919
   74MOL   C17941205   5.607   1.565   3.745 -0.6586  0.4226 -0.1148
   74MOL   O18041206   5.700   1.578   3.645  0.2721 -0.2521 -0.0659
   74MOL   C18141207   5.687   1.487   3.531 -0.7315  0.0637  0.9745
   74MOL   C18241208   5.799   1.513   3.424  0.1592  0.1954  0.1386
   74MOL   O18341209   5.501   1.506   3.738 -0.5359 -0.0591  0.1520
   74MOL   C18441210   5.545   1.691   3.940 -0.0831 -0.6749 -0.2620
   74MOL   C18541211   5.575   1.752   4.062 -0.4212  0.7540 -0.7018
   74MOL   C18641212   5.475   1.818   4.132  0.1924 -0.0318  0.3228
   74MOL   C18741213   5.510   1.867   4.255 -0.6760 -0.2072  0.1540
   74MOL   H18841214   5.850   1.826   4.269 -0.1099  0.9335 -0.4317
   74MOL   H18941215   5.913   1.684   4.062 -0.7676 -0.6181  0.5929
   74MOL   H19041216   5.862   1.587   3.850 -1.1513 -0.1868 -0.9171
   74MOL   H19141217   5.591   1.504   3.483 -0.3175 -0.1222  0.0725
   74MOL   H19241218   5.679   1.385   3.568 -2.7553 -0.1102  0.1551
   74MOL   H19341219   5.789   1.447   3.338  3.3159 -1.2088  0.8068
   74MOL   H19441220   5.783   1.614   3.385 -0.9901  0.2202  0.6672
   74MOL   H19541221   5.439   1.686   3.918 -0.2067  0.1708  0.1304
   74MOL   H19641222   5.380   1.829   4.081 -0.0246 -2.5777  0.1276
   74MOL   H19741223   5.430   1.913   4.311 -1.5197 -0.8325 -0.5209
   74MOL   O19841224   5.908   1.271   3.516  0.3494  0.3805 -0.3212
   74MOL   C19941225   5.975   1.374   3.523  0.3107  0.6522 -0.0233
   74MOL   O20041226   5.929   1.495   3.479 -0.1641  0.1950 -0.3623
   74MOL   C20141227   6.115   1.380   3.577 -1.0282  0.5343 -0.3413
   74MOL   C20241228   6.172   1.261   3.626  0.2729 -0.5217 -0.4475
   74MOL   C20341229   6.303   1.245   3.666 -0.3024 -0.3673  0.1685
   74MOL   C20441230   6.353   1.121   3.704  0.5961 -1.4639  0.1743
   74MOL   C20541231   6.488   1.104   3.736 -0.5153 -0.5527 -0.0351
   74MOL   C20641232   6.573   1.218   3.743  1.0526  0.4949  0.5486
   74MOL   C20741233   6.719   1.204   3.771  0.1658  0.1359 -0.1724
   74MOL   O20841234   6.751   1.083   3.820  0.2694  0.2185  0.2737
   74MOL   C20941235   6.887   1.062   3.866 -0.1416 -0.1721  0.6269
   74MOL   C21041236   6.890   0.998   4.005 -0.5202  0.5209  0.3082
   74MOL   O21141237   6.794   1.300   3.766 -0.3118 -0.0595 -0.0493
   74MOL   C21241238   6.523   1.343   3.704  0.0495  0.3866  0.6501
   74MOL   C21341239   6.389   1.355   3.667  0.1129 -0.2750  0.8933
   74MOL   C21441240   6.336   1.481   3.637  0.2815  0.7799 -0.3920
   74MOL   C21541241   6.203   1.496   3.587  0.1720  0.4944 -0.0654
   74MOL   H21641242   6.105   1.177   3.626 -0.4375  0.0340 -0.3046
   74MOL   H21741243   6.289   1.035   3.694  2.8772 -3.0809 -0.8627
   74MOL   H21841244   6.520   1.008   3.774  3.6287  0.8322  0.2685
   74MOL   H21941245   6.949   1.151   3.878 -2.4772  1.8706 -1.7646
   74MOL   H22041246   6.940   0.993   3.800  0.0710 -2.2408  2.9080
   74MOL   H22141247   6.996   0.990   4.029 -0.3099  0.9777 -0.4452
   74MOL   H22241248   6.834   1.061   4.075 -0.0424  2.4094 -0.9780
   74MOL   H22341249   6.585   1.431   3.714  1.9677 -1.0901  2.2542
   74MOL   H22441250   6.394   1.571   3.648  1.2295  0.2322 -0.8480
   74MOL   H22541251   6.180   1.595   3.551 -1.7326 -0.4679 -1.5966
   74MOL   O22641252   6.933   0.835   4.209  0.3635 -0.3578 -0.0419
   74MOL   C22741253   6.871   0.789   4.113 -0.0928  0.9278  0.8029
   74MOL   O22841254   6.837   0.870   4.005 -0.4119  0.0767  0.1535
   74MOL   C22941255   6.820   0.653   4.096  0.1438  0.2440  0.0780
   74MOL   C23041256   6.734   0.616   3.992 -1.0584 -0.5961  0.5188
   74MOL   C23141257   6.674   0.487   3.993 -0.2818  0.2491 -0.4400
   74MOL   C23241258   6.586   0.459   3.886 -0.3759  0.1509 -0.2341
   74MOL   C23341259   6.523   0.330   3.881 -0.2175  0.3408 -0.3477
   74MOL   C23441260   6.553   0.229   3.975 -0.4889  0.3806 -0.7617
   74MOL   C23541261   6.470   0.103   3.981 -0.6470 -0.4132  0.4740
   74MOL   O23641262   6.410   0.069   3.861  0.1465 -0.1078  0.4068
   74MOL   C23741263   6.307   8.217   3.865 -0.7498  0.0966 -0.3970
   74MOL   C23841264   6.176   0.023   3.922 -0.0367  0.5238  0.6173
   74MOL   O23941265   6.451   0.041   4.083 -0.3168  0.0646  0.0751
   74MOL   C24041266   6.642   0.264   4.083  0.7963  0.1368 -0.5981
   74MOL   C24141267   6.701   0.391   4.090 -0.1659 -0.0656  0.1194
   74MOL   C24241268   6.787   0.431   4.195 -0.2274  0.6951  0.0467
   74MOL   C24341269   6.857   0.556   4.196  0.0998 -0.0542  0.3863
   74MOL   H24441270   6.708   0.690   3.918 -0.6552 -0.7060  0.2620
   74MOL   H24541271   6.565   0.520   3.800 -0.9947 -1.8724 -1.5547
   74MOL   H24641272   6.457   0.312   3.797  0.8538 -1.2083 -0.8736
   74MOL   H24741273   6.348   8.135   3.924  0.9336  1.8084  0.8476
   74MOL   H24841274   6.284   8.185   3.763  0.4700  0.2195 -0.7145
   74MOL   H24941275   6.119   8.182   3.943  1.1619 -0.4525 -0.2197
   74MOL   H25041276   6.200   0.071   4.016  0.4576  1.9344 -0.2164
   74MOL   H25141277   6.653   0.192   4.162 -2.4073 -0.1027 -0.3147
   74MOL   H25241278   6.813   0.364   4.275 -0.1196  1.3845  0.5979
   74MOL   H25341279   6.918   0.581   4.282 -0.0194  0.0011  0.4557
   74MOL   O25441280   6.031   8.199   3.708  0.5601 -0.0610  0.5838
   74MOL   C25541281   6.053   0.068   3.725  0.0286  0.3290 -0.5703
   74MOL   O25641282   6.122   0.113   3.832 -0.1063  0.1610 -0.1891
   74MOL   C25741283   6.032   0.176   3.624 -0.9041  0.3264  0.1441
   74MOL   C25841284   5.935   0.157   3.525 -0.5206 -0.6095 -0.4341
   74MOL   C25941285   5.893   0.259   3.438 -0.6256  0.0304  0.4009
   74MOL   C26041286   5.794   0.232   3.341 -0.5786  0.3709 -0.2423
   74MOL   C26141287   5.742   0.334   3.260  0.2823  0.3267 -0.5565
   74MOL   C26241288   5.787   0.468   3.284 -0.2637 -0.0294  0.1030
   74MOL   C26341289   5.726   0.594   3.228  0.0800  0.2040 -0.6919
   74MOL   O26441290   5.627   0.559   3.155 -0.5595 -0.2407 -0.0050
   74MOL   C26541291   5.553   0.662   3.089  0.2022  0.4657 -0.4939
   74MOL   C26641292   5.427   0.598   3.017  0.0396  0.0611 -0.1840
   74MOL   O26741293   5.752   0.713   3.255  0.3473 -0.0612  0.1462
   74MOL   C26841294   5.890   0.487   3.378  0.4254 -0.8499  0.3775
   74MOL   C26941295   5.950   0.382   3.452 -0.1249  0.2063 -0.7020
   74MOL   C27041296   6.060   0.404   3.532  0.4124 -0.2392 -0.5312
   74MOL   C27141297   6.096   0.303   3.623 -0.2171  0.6291 -0.8861
   74MOL   H27241298   5.886   0.062   3.512 -2.0953  0.2629 -0.9830
   74MOL   H27341299   5.753   0.133   3.331  0.8059 -0.0050 -2.5736
   74MOL   H27441300   5.662   0.308   3.192 -0.9934  1.3215  0.5335
   74MOL   H27541301   5.618   0.711   3.017 -0.4861  0.2503 -1.2654
   74MOL   H27641302   5.518   0.729   3.168  1.0461 -0.8839  1.0554
   74MOL   H27741303   5.343   0.578   3.084 -0.8420  1.1848 -0.9390
   74MOL   H27841304   5.396   0.688   2.965 -0.2578 -1.0548 -1.9658
   74MOL   H27941305   5.919   0.587   3.405 -0.9623 -0.2300 -0.3556
   74MOL   H28041306   6.106   0.501   3.530  1.4983 -0.6616  2.1836
   74MOL   H28141307   6.167   0.331   3.700 -0.1556 -2.9592  0.4508
   74MOL   O28241308   5.285   0.522   2.805  0.5651  0.2424 -0.0861
   74MOL   C28341309   5.394   0.468   2.823 -0.3306  0.3240 -0.0712
   74MOL   O28441310   5.473   0.499   2.925 -0.2620  0.2695 -0.2585
   74MOL   C28541311   5.463   0.375   2.729  0.0660  0.7018  0.5628
   74MOL   C28641312   5.414   0.356   2.600  0.9302 -0.5890  0.1704
   74MOL   C28741313   5.479   0.270   2.504 -1.3985 -0.9016  0.0027
   74MOL   C28841314   5.430   0.251   2.375 -0.5365  0.1477  0.0387
   74MOL   C28941315   5.494   0.163   2.291 -0.3979  0.0810 -0.3418
   74MOL   C29041316   5.607   0.086   2.334  0.2346  0.3421 -1.1734
   74MOL   C29141317   5.668   8.241   2.244 -0.0446  0.6438  0.1029
   74MOL   O29241318   5.617   8.230   2.124  0.2233  0.4256  0.6957
   74MOL   C29341319   5.691   8.143   2.035  0.0987  0.0162 -0.2268
   74MOL   C29441320   5.641   8.150   1.888  0.3407 -0.0340 -0.2972
   74MOL   O29541321   5.764   8.176   2.282 -0.4925 -0.3356 -0.0972
   74MOL   C29641322   5.649   0.103   2.466  0.7923  0.4572 -0.6253
   74MOL   C29741323   5.587   0.191   2.554 -1.1314 -0.5195 -0.2447
   74MOL   C29841324   5.637   0.208   2.681 -0.9117 -0.4560 -0.2008
   74MOL   C29941325   5.581   0.306   2.766 -0.1222 -0.2778 -0.0183
   74MOL   H30041326   5.325   0.416   2.586  0.8359 -0.1477  2.5312
   74MOL   H30141327   5.341   0.302   2.344 -0.5279  2.4360  3.5207
   74MOL   H30241328   5.462   0.156   2.188 -0.4688 -3.2735 -0.1682
   74MOL   H30341329   5.706   8.040   2.069  2.1284  0.6250  0.7749
   74MOL   H30441330   5.792   8.183   2.034 -0.6686  2.0660  2.3086
   74MOL   H30541331   5.697   8.081   1.824 -0.6623 -1.3805  0.2679
   74MOL   H30641332   5.536   8.120   1.886  0.3110  0.0395  0.1433
   74MOL   H30741333   5.727   0.039   2.504 -0.1175  0.3821  1.1546
   74MOL   H30841334   5.719   0.147   2.716 -0.1811 -0.3787 -1.7160
   74MOL   H30941335   5.636   0.327   2.857  0.6473  0.4064 -0.6439
   74MOL   O31041336   5.853   0.007   1.733 -0.3352  0.3090  0.7756
   74MOL   C31141337   5.770   0.082   1.784  1.1217  0.0487  0.0983
   74MOL   O31241338   5.663   0.038   1.846  0.0365 -0.6240  0.3867
   74MOL   C31341339   5.780   0.231   1.800  0.4559 -0.7000 -0.8353
   74MOL   C31441340   5.847   0.312   1.706 -0.5528 -0.1364 -0.0443
   74MOL   C31541341   5.862   0.448   1.718 -0.1726 -0.3407 -0.5226
   74MOL   C31641342   5.927   0.518   1.615 -0.1738  0.3670 -0.5000
   74MOL   C31741343   5.920   0.660   1.615  0.1313  0.2671  0.2068
   74MOL   C31841344   5.868   0.728   1.728  0.0003  0.5331 -0.0195
   74MOL   C31941345   5.855   0.874   1.728  0.0211  0.4909  0.3828
   74MOL   O32041346   5.881   0.929   1.849 -0.2262  0.1373  0.0964
   74MOL   C32141347   5.908   1.062   1.884 -0.0825 -0.0361  0.7770
   74MOL   C32241348   6.033   1.122   1.811  0.1624 -0.0448  0.0762
   74MOL   O32341349   5.830   0.934   1.621  0.1118 -0.5711 -0.3660
   74MOL   C32441350   5.817   0.653   1.841  0.1369  0.2710  0.2499
   74MOL   C32541351   5.812   0.514   1.834  0.2926 -0.4068  0.2954
   74MOL   C32641352   5.745   0.440   1.934  0.2015 -0.0797  0.8906
   74MOL   C32741353   5.729   0.299   1.914  0.1277 -0.0004 -0.3771
   74MOL   H32841354   5.869   0.267   1.610 -0.5138 -0.5794  0.1692
   74MOL   H32941355   5.976   0.471   1.531 -1.0083 -2.0242  0.3003
   74MOL   H33041356   5.968   0.718   1.539  2.0986  0.6673  1.7030
   74MOL   H33141357   5.927   1.073   1.991  0.8361 -0.6153  0.6702
   74MOL   H33241358   5.825   1.133   1.877  0.8890  1.3120  2.4908
   74MOL   H33341359   6.037   1.074   1.713  2.1387 -1.3074  0.7491
   74MOL   H33441360   6.010   1.229   1.804 -1.3878 -0.3297  0.5952
   74MOL   H33541361   5.791   0.702   1.934  0.5493  0.2063  0.4010
   74MOL   H33641362   5.709   0.482   2.027 -0.5501 -1.3675  1.1958
   74MOL   H33741363   5.665   0.241   1.980 -2.5962  0.6155 -2.3771
   74MOL   O33841364   6.198   0.920   1.744  0.0295 -0.5606 -0.4896
   74MOL   C33941365   6.234   1.002   1.827 -0.0821 -0.2206 -0.1472
   74MOL   O34041366   6.156   1.099   1.880 -0.0238 -0.3360 -0.1195
   74MOL   C34141367   6.366   1.005   1.891  0.1225  0.1329  0.0225
   74MOL   C34241368   6.438   0.886   1.917  0.6184 -0.5540  0.3426
   74MOL   C34341369   6.557   0.895   1.992 -0.1938 -0.1660  0.1942
   74MOL   C34441370   6.626   0.777   2.026  0.1158 -0.1175  0.0083
   74MOL   C34541371   6.749   0.777   2.094 -0.2901 -0.7318 -0.0615
   74MOL   C34641372   6.805   0.900   2.134  0.2327 -0.1131 -0.1539
   74MOL   C34741373   6.936   0.896   2.202 -0.8335 -0.0778 -0.4304
   74MOL   O34841374   6.977   1.012   2.268  0.6266 -0.2947  0.0828
   74MOL   C34941375   7.097   1.020   2.339  0.5650 -0.0089 -0.2149
   74MOL   C35041376   7.068   0.962   2.485  0.4548  0.1754  0.2754
   74MOL   O35141377   7.012   0.798   2.202  0.6105  0.0149 -0.2358
   74MOL   C35241378   6.745   1.019   2.091  0.6333  0.2438  0.9341
   74MOL   C35341379   6.620   1.019   2.023  0.2461 -0.7507 -0.3332
   74MOL   C35441380   6.555   1.134   1.986  0.1367  0.3498  0.2918
   74MOL   C35541381   6.426   1.129   1.923 -0.0745  0.3169  0.1026
   74MOL   H35641382   6.386   0.795   1.890 -1.9692  0.6809  0.9878
   74MOL   H35741383   6.583   0.683   1.996 -2.5378  1.3539 -0.8971
   74MOL   H35841384   6.793   0.683   2.122 -0.0575 -0.7111 -0.3623
   74MOL   H35941385   7.123   1.125   2.347 -1.6180  0.5783 -0.4386
   74MOL   H36041386   7.173   0.961   2.288 -0.2471 -0.1194 -1.3115
   74MOL   H36141387   7.071   0.855   2.509 -0.3743  0.7247  2.9398
   74MOL   H36241388   7.157   0.988   2.543  0.3595  1.1653 -0.0234
   74MOL   H36341389   6.782   1.117   2.119  0.7885  0.2299  0.7751
   74MOL   H36441390   6.590   1.224   2.034 -1.4572  0.3564  1.5006
   74MOL   H36541391   6.366   1.218   1.917  0.2658  0.4581 -1.2789
   74MOL   O36641392   7.093   1.199   2.633 -0.5344  0.0394 -0.0942
   74MOL   C36741393   6.983   1.143   2.619  0.5155  0.9668 -0.4548
   74MOL   O36841394   6.957   1.043   2.532  0.3928 -0.3112 -0.1154
   74MOL   C36941395   6.870   1.178   2.703 -0.5764 -0.3156  0.4919
   74MOL   C37041396   6.884   1.283   2.793 -0.3613  0.1861 -0.4999
   74MOL   C37141397   6.788   1.293   2.892 -0.3981  0.1918  0.3800
   74MOL   C37241398   6.807   1.387   2.994 -0.5143  0.2458  0.3422
   74MOL   C37341399   6.720   1.402   3.103  0.3262  0.1163  0.3050
   74MOL   C37441400   6.595   1.331   3.104  0.0520  0.1002 -0.2973
   74MOL   C37541401   6.495   1.351   3.214 -0.0917  0.2847 -0.2938
   74MOL   O37641402   6.375   1.297   3.194  0.4373  0.1124 -0.6201
   74MOL   C37741403   6.284   1.277   3.300  0.2587  0.1669 -0.0938
   74MOL   C37841404   6.227   1.131   3.286  0.1427 -0.6592  0.4072
   74MOL   O37941405   6.530   1.407   3.313  0.3702  0.2552  0.0688
   74MOL   C38041406   6.571   1.255   2.985 -0.0123  0.1058  1.2169
   74MOL   C38141407   6.671   1.221   2.891  0.3411 -0.2158 -0.3004
   74MOL   C38241408   6.642   1.123   2.794 -0.6164  0.2464 -0.3663
   74MOL   C38341409   6.749   1.100   2.704 -0.0509  0.0107  0.4138
   74MOL   H38441410   6.976   1.339   2.800 -0.2238  0.2646 -2.5447
   74MOL   H38541411   6.892   1.452   2.980 -0.7434  0.3296 -0.7618
   74MOL   H38641412   6.738   1.467   3.187  0.6082 -3.0630  2.7728
   74MOL   H38741413   6.205   1.352   3.289 -0.1598 -0.2564 -0.0032
   74MOL   H38841414   6.338   1.280   3.395  1.5257 -0.3102 -0.7841
   74MOL   H38941415   6.313   1.063   3.289  0.7592  0.0866 -0.3690
   74MOL   H39041416   6.167   1.107   3.374 -0.7078 -0.2815 -0.0686
   74MOL   H39141417   6.479   1.208   2.952  0.4522 -0.1584  0.2795
   74MOL   H39241418   6.572   1.043   2.814 -0.0308 -0.5378 -1.3859
   74MOL   H39341419   6.739   1.023   2.629 -2.3920  0.5622  0.0950
   74MOL   O39441420   6.036   0.955   3.246 -0.0405  0.9949  0.4222
   74MOL   C39541421   6.075   1.020   3.152 -0.4501 -0.1597  0.3050
   74MOL   O39641422   6.154   1.116   3.167 -0.3478 -0.8178 -0.4438
   74MOL   C39741423   6.009   1.017   3.020  0.6916 -0.2602 -0.4037
   74MOL   C39841424   6.079   1.061   2.911 -0.0302  0.0582 -0.2308
   74MOL   C39941425   6.023   1.063   2.781 -0.4398  0.8403 -0.1005
   74MOL   C40041426   6.097   1.102   2.667 -0.5921 -0.3957 -0.5355
   74MOL   C40141427   6.030   1.109   2.544 -0.1903 -0.0807 -0.1167
   74MOL   C40241428   5.898   1.067   2.530  0.1413  0.3095 -0.2009
   74MOL   C40341429   5.828   1.078   2.398 -0.2196 -0.5705 -0.4939
   74MOL   O40441430   5.691   1.077   2.421 -0.2113 -0.6623 -0.3156
   74MOL   C40541431   5.595   1.109   2.316 -0.1149  0.0588  0.0307
   74MOL   C40641432   5.591   0.981   2.234  0.3214  0.7055 -0.1962
   74MOL   O40741433   5.885   1.088   2.290 -0.3399  0.0232 -0.4425
   74MOL   C40841434   5.828   1.014   2.643  1.1593  0.0763 -0.1613
   74MOL   C40941435   5.894   1.008   2.767 -0.8886 -0.1151  0.2106
   74MOL   C41041436   5.822   0.964   2.880 -0.0456  0.3485  1.1726
   74MOL   C41141437   5.879   0.965   3.003 -0.4347 -0.4997  0.1396
   74MOL   H41241438   6.177   1.107   2.918  0.4774 -0.9245 -0.8104
   74MOL   H41341439   6.197   1.144   2.670  0.1016 -1.7989 -2.7817
   74MOL   H41441440   6.088   1.129   2.455  1.1591  1.9576  1.1710
   74MOL   H41541441   5.628   1.194   2.257 -1.7249 -0.6012 -1.8999
   74MOL   H41641442   5.502   1.131   2.370 -0.5543 -1.2742 -0.1521
   74MOL   H41741443   5.686   0.953   2.189  0.0041  0.3755 -0.6742
   74MOL   H41841444   5.574   0.899   2.304  0.7270  1.1330  0.4093
   74MOL   H41941445   5.727   0.978   2.634  1.2378 -0.0321 -0.6565
   74MOL   H42041446   5.724   0.922   2.860 -0.6500  1.8644  0.8534
   74MOL   H42141447   5.840   0.912   3.089 -0.4649 -2.2859 -0.9484
   74MOL   O42241448   5.618   1.097   1.975 -0.1612 -0.9201 -0.3944
   74MOL   C42341449   5.514   1.034   2.015  0.8247  0.0711  0.5276
   74MOL   O42441450   5.489   0.975   2.133  0.2915 -0.0099 -0.0139
   74MOL   C42541451   5.405   0.991   1.926  0.4676 -0.2187  0.0900
   74MOL   C42641452   5.276   0.945   1.975 -0.8272 -0.6494  0.1425
   74MOL   C42741453   5.175   0.901   1.888 -0.7216 -0.3833  0.0117
   74MOL   C42841454   5.055   0.842   1.939  0.4360 -1.0712  0.7956
   74MOL   C42941455   4.948   0.818   1.858  0.2864 -0.5021  0.1949
   74MOL   C43041456   4.958   0.825   1.717  0.0626 -0.1541  0.6095
   74MOL   C43141457   4.855   0.771   1.620  0.3192  0.1017  0.0517
   74MOL   O43241458   4.748   0.723   1.684 -0.3508  0.2335  0.2993
   74MOL   C43341459   4.648   0.662   1.607 -0.1377  0.1924  0.0132
   74MOL   C43441460   4.543   0.760   1.563  0.3664 -0.0314  0.3057
   74MOL   O43541461   4.883   0.761   1.502  0.3759  0.0286 -0.4666
   74MOL   C43641462   5.076   0.889   1.659 -0.4866  0.3141  0.1479
   74MOL   C43741463   5.182   0.929   1.749 -0.3860  0.0738  0.2714
   74MOL   C43841464   5.300   0.992   1.703 -0.1576 -0.2252  0.1497
   74MOL   C43941465   5.411   1.021   1.791  0.0741  0.1447  0.3809
   74MOL   H44041466   5.266   0.928   2.081  1.9739  0.4813  0.6264
   74MOL   H44141467   5.036   0.848   2.045 -0.2145 -0.8908  0.6743
   74MOL   H44241468   4.859   0.779   1.905  0.1577 -0.0804  0.3055
   74MOL   H44341469   4.610   0.575   1.660  3.4579 -0.6811  1.2861
   74MOL   H44441470   4.688   0.619   1.515  1.4846 -2.0156  1.6910
   74MOL   H44541471   4.572   0.852   1.510 -0.9082  0.6636  0.7922
   74MOL   H44641472   4.483   0.713   1.485 -2.6862  1.7330  1.5146
   74MOL   H44741473   5.084   0.904   1.552  1.0312  0.6853  0.3062
   74MOL   H44841474   5.313   1.014   1.598  1.5366  2.1829  0.8269
   74MOL   H44941475   5.496   1.074   1.751 -0.3191  0.5644  0.0878
   74MOL   O45041476   4.517   0.978   1.731  0.4714  0.2503  0.3506
   74MOL   C45141477   4.440   0.883   1.744  0.4404 -0.9318 -0.3606
   74MOL   O45241478   4.448   0.775   1.670 -0.1428 -0.0616  0.0651
   74MOL   C45341479   4.326   0.870   1.840  1.4131  0.2312 -0.4309
   74MOL   C45441480   4.256   0.982   1.888  0.7544  0.6150 -0.3725
   74MOL   C45541481   4.139   0.962   1.974  0.0254 -0.1180  0.1125
   74MOL   C45641482   4.076   1.073   2.029  1.5513 -0.0343 -0.0771
   74MOL   C45741483   3.960   1.055   2.105  0.0877  0.7997 -0.0978
   74MOL   C45841484   3.902   0.928   2.119  0.0240 -0.5502  0.3063
   74MOL   C45941485   3.776   0.914   2.197  0.9483  0.2892 -0.3102
   74MOL   O46041486   3.750   0.785   2.230  0.0517 -0.3247 -0.1982
   74MOL   C46141487   3.620   0.740   2.258  0.0674 -0.2235  0.0649
   74MOL   C46241488   3.617   0.633   2.371 -0.0014  0.3176 -0.3531
   74MOL   O46341489   3.701   1.009   2.228 -0.2915  0.0254  0.5069
   74MOL   C46441490   3.968   0.814   2.063 -0.0996  0.1764 -0.6638
   74MOL   C46541491   4.090   0.833   1.995 -0.2810 -0.8191  0.1753
   74MOL   C46641492   4.170   0.725   1.953 -0.0373 -0.1095  0.2886
   74MOL   C46741493   4.278   0.745   1.873  0.2112 -0.0046 -0.2777
   74MOL   H46841494   4.290   1.082   1.867 -0.7083  1.5033  1.2992
   74MOL   H46941495   4.113   1.173   2.013  0.1504  0.6687  0.8705
   74MOL   H47041496   3.916   1.142   2.151  1.5242  2.2591 -1.4276
   74MOL   H47141497   3.570   0.720   2.164  0.9987  0.2323 -0.5357
   74MOL   H47241498   3.560   0.823   2.296 -1.5836 -0.7643 -1.3264
   74MOL   H47341499   3.700   0.651   2.439 -1.0067 -1.3921  1.3553
   74MOL   H47441500   3.529   0.652   2.431  0.1201 -2.0156  0.6064
   74MOL   H47541501   3.936   0.712   2.081  0.6006  0.1407  0.4372
   74MOL   H47641502   4.140   0.622   1.964 -0.3679  0.1814  2.2772
   74MOL   H47741503   4.337   0.662   1.837 -0.6587 -0.5062 -0.5720
   74MOL   O47841504   3.413   0.484   2.241  0.3042 -0.0091  0.1936
   74MOL   C47941505   3.524   0.441   2.264 -0.1196  0.1304 -0.4076
   74MOL   O48041506   3.630   0.500   2.331 -0.2405 -1.0140  0.0819
   74MOL   C48141507   3.558   0.305   2.213  0.3590 -0.0214  0.1449
   74MOL   C48241508   3.693   0.264   2.203 -0.0106  0.4260 -0.9902
   74MOL   C48341509   3.721   0.143   2.139  0.4184 -0.0404  0.2549
   74MOL   C48441510   3.853   0.102   2.118 -0.3572 -0.4650 -0.3091
   74MOL   C48541511   3.884   8.234   2.051  0.4832  0.0152  0.7384
   74MOL   C48641512   3.783   8.145   2.014  0.1828 -0.5543 -0.1205
   74MOL   C48741513   3.812   8.019   1.943 -0.5063 -0.1946  0.2312
   74MOL   O48841514   3.704   7.943   1.928 -0.5826  0.3207 -0.3175
   74MOL   C48941515   3.713   7.802   1.892  0.0437  0.2179 -0.3623
   74MOL   C49041516   3.583   7.771   1.818  0.2605  0.1265  0.5676
   74MOL   O49141517   3.929   7.996   1.911  0.7834 -0.1150  0.3485
   74MOL   C49241518   3.650   8.181   2.038  0.1147 -0.0339  0.6371
   74MOL   C49341519   3.614   0.056   2.095 -0.0439  0.2409  0.5819
   74MOL   C49441520   3.480   0.094   2.114  0.5651 -0.5892  0.3011
   74MOL   C49541521   3.452   0.218   2.178  0.6536 -1.1140 -0.6465
   74MOL   H49641522   3.782   0.316   2.235  0.5555 -1.1401  0.0271
   74MOL   H49741523   3.937   0.163   2.147 -1.1895  0.5440 -0.0256
   74MOL   H49841524   3.986   8.215   2.021  0.2112 -0.7659  0.2864
   74MOL   H49941525   3.723   7.747   1.985  2.1562  0.9988 -0.0966
   74MOL   H50041526   3.804   7.771   1.840  0.7284 -0.2329  1.0694
   74MOL   H50141527   3.547   7.670   1.835  1.7541 -0.2521  1.6153
   74MOL   H50241528   3.512   7.844   1.857  0.5328  0.6216  0.1472
   74MOL   H50341529   3.566   8.118   2.013  1.1010 -1.3992  0.7036
   74MOL   H50441530   3.394   0.030   2.104 -0.4773  0.8525 -0.0998
   74MOL   H50541531   3.351   0.245   2.204  0.9679 -0.8492  0.3189
   74MOL   O50641532   3.641   7.585   1.632 -0.1662 -0.5285  0.6272
   74MOL   C50741533   3.588   7.693   1.595  0.2477  0.2273  0.2267
   74MOL   O50841534   3.576   7.799   1.682 -0.1673  0.6376 -0.6369
   74MOL   C50941535   3.552   7.723   1.454  0.0041  0.2453 -0.1704
   74MOL   C51041536   3.525   7.853   1.403 -0.0601 -0.5126 -0.3391
   74MOL   C51141537   3.488   7.870   1.271 -0.0270 -0.2615  0.0792
   74MOL   C51241538   3.460   8.002   1.224 -0.0934 -0.2310  0.0575
   74MOL   C51341539   3.416   8.023   1.091 -0.2694  0.2256  0.1543
   74MOL   C51441540   3.400   7.908   1.006 -0.0139 -0.3597  0.5399
   74MOL   C51541541   3.359   7.927   0.863  0.0825 -0.0345  0.5808
   74MOL   O51641542   3.361   8.054   0.832  0.3959 -0.1344  0.4368
   74MOL   C51741543   3.327   8.103   0.701  0.0129  0.2117 -0.0842
   74MOL   C51841544   3.191   8.169   0.700  0.5309  0.5555  0.2638
   74MOL   O51941545   3.350   7.843   0.778  0.2527  0.1099  0.6839
   74MOL   C52041546   3.432   7.779   1.050 -0.1701  0.4213  0.7775
   74MOL   C52141547   3.477   7.761   1.181  0.1097 -0.3426  0.0651
   74MOL   C52241548   3.514   7.635   1.224 -0.1924 -0.2077 -0.0810
   74MOL   C52341549   3.555   7.617   1.361  0.5930 -0.0144 -0.3035
   74MOL   H52441550   3.519   7.941   1.465 -2.1916 -0.2640 -0.8523
   74MOL   H52541551   3.475   8.085   1.292  1.7575  0.1669 -0.8119
   74MOL   H52641552   3.404   8.123   1.053 -2.4429  0.2127  0.7449
   74MOL   H52741553   3.337   8.027   0.624  0.4296  0.4684 -0.2802
   74MOL   H52841554   3.405   8.169   0.664 -1.6104  2.5128  0.4984
   74MOL   H52941555   3.158   8.195   0.599  0.3312  0.4690  0.3072
   74MOL   H53041556   3.111   8.104   0.737 -2.5322  3.2399 -1.4031
   74MOL   H53141557   3.424   7.700   0.977  2.2413  0.6396  0.2191
   74MOL   H53241558   3.512   7.557   1.150  1.8336 -0.7831  0.4503
   74MOL   H53341559   3.567   7.516   1.398 -2.6593 -0.1125  0.6476
   74MOL   O53441560   3.239   0.171   0.625  0.1171 -0.3107  0.5660
   74MOL   C53541561   3.221   0.146   0.740 -0.8659 -0.7117  0.2503
   74MOL   O53641562   3.182   0.039   0.785 -0.2244  0.2366  0.0992
   74MOL   C53741563   3.246   0.247   0.853 -0.5373 -0.3890 -0.4111
   74MOL   C53841564   3.233   0.387   0.832  0.1497  0.6989  0.0066
   74MOL   C53941565   3.265   0.480   0.937  0.5633  0.6010  0.1757
   74MOL   C54041566   3.254   0.620   0.915 -0.4138  0.5974 -0.0383
   74MOL   C54141567   3.297   0.706   1.015 -0.0133 -0.6319  0.1926
   74MOL   C54241568   3.341   0.656   1.141  0.2050  0.3147 -0.0569
   74MOL   C54341569   3.386   0.743   1.255 -0.4973  0.2716  0.2326
   74MOL   O54441570   3.454   0.679   1.353 -0.3615  0.0295  0.4049
   74MOL   C54541571   3.544   0.755   1.437 -0.5369 -0.2830 -0.0844
   74MOL   C54641572   3.636   0.659   1.519  0.2676 -0.2248 -0.5355
   74MOL   O54741573   3.380   0.870   1.257  0.2075 -0.0806 -0.0587
   74MOL   C54841574   3.340   0.514   1.166 -0.3008  1.1789  0.2022
   74MOL   C54941575   3.306   0.427   1.064 -0.1451  0.1370 -0.4261
   74MOL   C55041576   3.324   0.288   1.082  0.2037 -0.1447  0.7354
   74MOL   C55141577   3.292   0.195   0.980 -0.0747  0.2649  0.2645
   74MOL   H55241578   3.205   0.429   0.736  3.2185  3.5553  0.2820
   74MOL   H55341579   3.237   0.665   0.818  0.1153  1.1438  0.1133
   74MOL   H55441580   3.284   0.811   0.998  0.9234 -0.8451 -2.0954
   74MOL   H55541581   3.494   0.821   1.507 -0.4951 -0.2974 -0.0406
   74MOL   H55641582   3.614   0.813   1.377  1.3762 -1.2367  1.1693
   74MOL   H55741583   3.599   0.599   1.602 -0.6985  1.9329  0.6261
   74MOL   H55841584   3.720   0.709   1.568  1.1361  0.9531 -3.1202
   74MOL   H55941585   3.377   0.475   1.259 -0.0720 -0.5455 -0.5998
   74MOL   H56041586   3.375   0.253   1.170  1.4674 -0.1847 -0.0043
   74MOL   H56141587   3.301   0.091   1.007  0.2745  0.2162 -0.0359
   74MOL   H56241588   3.684   0.587   1.452  2.4294  0.9615 -0.3076
   75MOL     O141589   5.511   6.715   0.465  0.1273 -0.6004  0.3092
   75MOL     C241590   5.452   6.667   0.558  0.6180  0.0869 -0.9358
   75MOL     O341591   5.334   6.699   0.602  0.0503 -0.0775 -0.4468
   75MOL     C441592   5.522   6.569   0.649 -0.2449 -0.0137  0.0060
   75MOL     C541593   5.480   6.549   0.785  0.4471  0.3881 -0.5364
   75MOL     C641594   5.550   6.461   0.872 -0.0834  1.0506 -0.0276
   75MOL     C741595   5.498   6.430   1.000  0.2247 -0.2527  0.0154
   75MOL     C841596   5.580   6.370   1.097 -0.5481 -0.1731  0.8792
   75MOL     C941597   5.710   6.323   1.063  0.2718 -0.6885  0.1806
   75MOL    C1041598   5.797   6.262   1.171  0.8597 -0.0443 -0.3915
   75MOL    O1141599   5.922   6.253   1.133 -0.2019 -0.3847  0.3189
   75MOL    C1241600   6.015   6.194   1.227  0.6283  0.0895 -0.4294
   75MOL    C1341601   6.027   6.041   1.184 -0.0404 -0.3134  0.2313
   75MOL    O1441602   5.760   6.221   1.280  0.7870 -0.3570  0.1186
   75MOL    C1541603   5.752   6.338   0.928 -0.1050  0.0852 -0.3043
   75MOL    C1641604   5.675   6.405   0.831  0.2573 -0.4791  0.3815
   75MOL    C1741605   5.714   6.425   0.700 -0.3242  0.7141  0.6063
   75MOL    C1841606   5.642   6.509   0.609 -0.2540 -0.2985  0.5644
   75MOL    H1941607   5.382   6.583   0.814 -0.3096 -3.0439  1.1803
   75MOL    H2041608   5.409   6.478   1.038  1.7501  1.2655  1.7573
   75MOL    H2141609   5.550   6.358   1.200 -3.4706 -0.5246  0.0251
   75MOL    H2241610   6.116   6.235   1.233  0.1923  1.1340 -0.2911
   75MOL    H2341611   5.968   6.193   1.326 -3.7130  0.1163 -2.4155
   75MOL    H2441612   6.061   5.979   1.266  1.3626 -0.7108 -0.6188
   75MOL    H2541613   5.925   6.010   1.161 -0.0047 -0.0774 -0.2588
   75MOL    H2641614   5.854   6.322   0.895  0.6188  2.2855  0.7829
   75MOL    H2741615   5.811   6.381   0.684 -0.8476 -0.6698  1.1626
   75MOL    H2841616   5.691   6.525   0.514  1.5017  0.5303  1.5782
   75MOL    H2941617   5.285   6.756   0.545 -1.7500  0.1273  1.2693
   75MOL    O3041618   6.119   6.207   0.954  0.0579 -0.2849 -0.5159
   75MOL    C3141619   6.149   6.090   0.971  0.2222  0.4590 -0.2551
   75MOL    O3241620   6.121   6.012   1.076 -0.3429 -0.1925  0.0584
   75MOL    C3341621   6.239   6.018   0.872  0.2717  0.1170 -0.3068
   75MOL    C3441622   6.268   6.078   0.747  0.5385 -0.2307  0.4834
   75MOL    C3541623   6.348   6.013   0.652 -0.4156 -0.0738  0.4517
   75MOL    C3641624   6.372   6.074   0.537 -0.1434 -0.1185  0.2863
   75MOL    C3741625   6.455   6.016   0.441  0.9419 -0.3278 -0.1749
   75MOL    C3841626   6.524   5.896   0.467  0.3371  0.5815  0.6800
   75MOL    C3941627   6.624   5.854   0.369 -0.5645 -0.2320  0.7127
   75MOL    O4041628   6.713   5.764   0.414  0.3946 -0.0146 -0.3809
   75MOL    C4141629   6.797   5.691   0.320  0.0961 -0.0054 -0.0857
   75MOL    C4241630   6.914   5.771   0.264 -0.6665  0.0847 -0.2230
   75MOL    O4341631   6.631   5.889   0.256 -0.3701  0.0156  0.0575
   75MOL    C4441632   6.508   5.835   0.593 -1.4456 -0.1149  0.6071
   75MOL    C4541633   6.419   5.896   0.681  0.1239 -0.6821  0.0577
   75MOL    C4641634   6.395   5.844   0.810  0.2840  0.1380  0.3631
   75MOL    C4741635   6.306   5.895   0.900 -0.2707 -0.5292  0.9891
   75MOL    H4841636   6.223   6.171   0.715 -1.3507 -1.5607 -0.9136
   75MOL    H4941637   6.323   6.168   0.513  0.7483 -0.1771 -1.9518
   75MOL    H5041638   6.455   6.057   0.341  2.5007 -1.1448 -0.5165
   75MOL    H5141639   6.736   5.648   0.241  0.4269  0.7505 -0.7606
   75MOL    H5241640   6.843   5.602   0.364 -0.1879  0.0689  0.3657
   75MOL    H5341641   6.929   5.753   0.157 -0.4836  0.3897 -0.2516
   75MOL    H5441642   6.915   5.879   0.247  0.4480 -0.1212 -1.6447
   75MOL    H5541643   6.561   5.744   0.618 -0.6966  0.0662 -0.2938
   75MOL    H5641644   6.453   5.757   0.838  1.0450 -0.3548 -2.5560
   75MOL    H5741645   6.290   5.852   0.997  1.7590 -0.0537  1.5553
   75MOL    O5841646   7.083   5.910   0.445  0.6941  0.2620 -0.3636
   75MOL    C5941647   7.117   5.804   0.389  0.2985 -0.1470  1.0328
   75MOL    O6041648   7.035   5.723   0.322  0.5023 -0.2139  0.2223
   75MOL    C6141649   7.252   5.748   0.404  0.6964 -0.5423 -0.4934
   75MOL    C6241650   7.275   5.612   0.384 -0.0118 -0.4502  0.8260
   75MOL    C6341651   7.402   5.560   0.412 -0.2558  0.1646 -0.4694
   75MOL    C6441652   7.434   5.425   0.389 -0.1849 -0.3650 -0.2408
   75MOL    C6541653   7.567   5.381   0.405  0.2201  0.3189  0.1512
   75MOL    C6641654   7.670   5.463   0.439  0.4397 -0.5039  0.9476
   75MOL    C6741655   7.811   5.423   0.440  0.6373 -0.3148  0.3927
   75MOL    O6841656   7.825   5.294   0.451 -0.0086  0.3874 -0.5519
   75MOL    C6941657   7.956   5.232   0.462 -0.0497 -0.1310 -0.3486
   75MOL    C7041658   7.935   5.091   0.526 -0.8297  1.0346 -0.8709
   75MOL    O7141659   7.908   5.503   0.424 -0.1237  0.4924  0.1546
   75MOL    C7241660   7.642   5.600   0.461 -0.0036 -0.7802 -0.0240
   75MOL    C7341661   7.505   5.648   0.453  0.1819  0.4967 -0.5318
   75MOL    C7441662   7.475   5.781   0.482 -0.0717 -0.0408  0.5576
   75MOL    C7541663   7.351   5.836   0.456  0.0483 -0.1411  0.2137
   75MOL    H7641664   7.201   5.549   0.337  2.5059 -1.6595 -1.6383
   75MOL    H7741665   7.350   5.362   0.362 -0.9335  1.2127 -1.6664
   75MOL    H7841666   7.575   5.276   0.383 -2.4160  0.0301  0.4279
   75MOL    H7941667   8.031   5.291   0.515  0.9995 -1.0523 -0.7794
   75MOL    H8041668   7.991   5.223   0.359  0.3868 -1.4051 -0.0929
   75MOL    H8141669   7.866   5.032   0.466 -0.9822 -0.2017  0.5129
   75MOL    H8241670   8.023   5.026   0.523 -1.8776 -0.3748 -1.5029
   75MOL    H8341671   7.723   5.669   0.480 -1.5616  0.8380  0.9089
   75MOL    H8441672   7.553   5.849   0.514 -1.2229  1.8052 -0.4678
   75MOL    H8541673   7.333   5.939   0.482  0.8580  0.2116 -0.5840
   75MOL    O8641674   8.077   5.236   0.728  0.4345  0.0753  0.4944
   75MOL    C8741675   7.974   5.175   0.749 -0.9399  0.1758 -0.3864
   75MOL    O8841676   7.902   5.097   0.663 -0.2160 -0.1687 -0.3106
   75MOL    C8941677   7.908   5.184   0.878  1.1949  0.2541 -0.2453
   75MOL    C9041678   7.964   5.257   0.980  0.1726  0.1937 -0.2534
   75MOL    C9141679   7.904   5.272   1.106  0.6658  0.3839 -0.0597
   75MOL    C9241680   7.948   5.379   1.196 -0.1882 -0.2855 -0.5872
   75MOL    C9341681   7.892   5.396   1.321 -0.1737 -0.6792 -0.4943
   75MOL    C9441682   7.795   5.306   1.365 -0.4284  0.2429  0.0317
   75MOL    C9541683   7.743   5.315   1.503  0.1088 -0.6523  0.1073
   75MOL    O9641684   7.828   5.364   1.588  0.0424  0.0554 -0.3149
   75MOL    C9741685   7.818   5.330   1.727 -0.0176 -0.4821  0.0937
   75MOL    C9841686   7.865   5.182   1.752  0.2350  0.6560  0.0608
   75MOL    O9941687   7.641   5.256   1.536  0.0508 -0.2858  0.4203
   75MOL   C10041688   7.743   5.207   1.273  0.6279 -0.2009 -0.3626
   75MOL   C10141689   7.792   5.195   1.145 -0.5579 -0.2328 -0.3163
   75MOL   C10241690   7.741   5.112   1.045 -0.3666  0.3495 -0.3915
   75MOL   C10341691   7.789   5.111   0.912 -0.5733 -0.2520  0.5061
   75MOL   H10441692   8.052   5.314   0.954  2.2294 -2.3943  0.7632
   75MOL   H10541693   8.032   5.444   1.172 -0.3381  0.7098  1.5269
   75MOL   H10641694   7.928   5.471   1.389 -2.5095 -0.0965  0.1421
   75MOL   H10741695   7.713   5.335   1.753 -0.7525 -1.1180 -2.5532
   75MOL   H10841696   7.888   5.401   1.772  1.0436 -0.1259 -2.0023
   75MOL   H10941697   7.784   5.112   1.772 -1.2820  2.0899 -0.8455
   75MOL   H11041698   7.927   5.154   1.667 -1.1371 -0.5356 -0.5649
   75MOL   H11141699   7.660   5.142   1.293  0.0011  0.6188 -0.2556
   75MOL   H11241700   7.658   5.048   1.072  0.0057  0.2263  0.4740
   75MOL   H11341701   7.742   5.044   0.842 -1.2524 -1.1077  1.7622
   75MOL   O11441702   8.139   5.218   1.745  0.4784 -0.2064 -0.1939
   75MOL   C11541703   8.081   5.227   1.854 -0.5244 -0.2196 -0.3433
   75MOL   O11641704   7.950   5.175   1.870 -0.2782 -0.3156 -0.1010
   75MOL   C11741705   8.152   5.262   1.987 -0.0545  0.4949  0.0056
   75MOL   C11841706   8.080   5.249   2.109  0.1893 -0.5411  0.7178
   75MOL   C11941707   8.141   5.283   2.228 -0.1146 -0.0762 -0.3703
   75MOL   C12041708   8.071   5.279   2.350  0.2080  0.0360  0.5916
   75MOL   C12141709   8.133   5.302   2.471  0.5514  0.2683  0.1526
   75MOL   C12241710   0.026   5.331   2.474  0.3821 -0.0704 -0.8071
   75MOL   C12341711   0.103   5.339   2.596 -0.3839  0.1643  0.2970
   75MOL   O12441712   0.034   5.275   2.695 -0.5093 -0.2768  0.0217
   75MOL   C12541713   0.097   5.248   2.819  0.5359  0.6543 -0.1707
   75MOL   C12641714   0.082   5.382   2.900  0.1733  0.2359  0.1340
   75MOL   O12741715   0.202   5.402   2.603  0.0114  0.1802  0.4450
   75MOL   C12841716   0.089   5.344   2.352  0.9639  0.0121 -0.1072
   75MOL   C12941717   0.026   5.325   2.228 -0.6047  0.0282 -0.5331
   75MOL   C13041718   0.100   5.334   2.111  0.1710 -0.6014  0.0015
   75MOL   C13141719   0.039   5.309   1.989  0.0505 -0.2643 -0.4053
   75MOL   H13241720   7.977   5.216   2.111 -0.3345  1.1006  1.4964
   75MOL   H13341721   7.966   5.256   2.350  0.0482  0.7715  0.3925
   75MOL   H13441722   8.080   5.289   2.564  0.8754  0.1253  0.3146
   75MOL   H13541723   0.202   5.219   2.811  0.4698  0.6053 -0.8920
   75MOL   H13641724   0.042   5.168   2.868  0.8289  1.0456  0.8166
   75MOL   H13741725   0.154   5.453   2.859 -0.2506  1.2955  1.2203
   75MOL   H13841726   8.236   5.426   2.872 -0.7297 -1.5464  0.3146
   75MOL   H13941727   0.194   5.369   2.348  0.8374  0.6177  0.2997
   75MOL   H14041728   0.206   5.354   2.112 -0.1003  0.8742  0.1245
   75MOL   H14141729   0.080   5.319   1.889 -0.3213 -0.9674 -0.6358
   75MOL   O14241730   0.319   5.328   3.006 -0.6373  0.2355  0.4008
   75MOL   C14341731   0.226   5.340   3.088  0.6399 -0.8794  0.2862
   75MOL   O14441732   0.102   5.359   3.038  0.3228 -0.1769  0.0878
   75MOL   C14541733   0.240   5.345   3.237  0.2713  0.2953 -0.0356
   75MOL   C14641734   0.358   5.289   3.292  0.5803  0.3806 -0.1624
   75MOL   C14741735   0.368   5.281   3.434 -0.0749 -0.3372  0.7920
   75MOL   C14841736   0.486   5.228   3.486  0.6448  0.1461 -0.0533
   75MOL   C14941737   0.503   5.217   3.624  0.1375 -0.3816 -0.1458
   75MOL   C15041738   0.400   5.261   3.710 -0.5221  0.0578  0.0928
   75MOL   C15141739   0.418   5.262   3.858  0.3640  0.0758  0.7146
   75MOL   O15241740   0.541   5.269   3.893  0.4838  0.1681 -0.3583
   75MOL   C15341741   0.573   5.279   4.029  0.6299 -0.3994 -0.2691
   75MOL   C15441742   0.614   5.147   4.092  0.0034 -0.5497 -0.0710
   75MOL   O15541743   0.321   5.261   3.939  0.0589  0.3630 -0.8067
   75MOL   C15641744   0.284   5.314   3.652  0.0062 -0.1731  0.0394
   75MOL   C15741745   0.266   5.332   3.516 -0.2221  0.1026 -0.7173
   75MOL   C15841746   0.155   5.396   3.459  0.3886  0.3074  0.1407
   75MOL   C15941747   0.137   5.392   3.320 -0.3425 -0.6441  0.6621
   75MOL   H16041748   0.430   5.245   3.225  1.9958 -0.0205  1.5985
   75MOL   H16141749   0.566   5.196   3.420 -0.3900 -0.5016 -1.0069
   75MOL   H16241750   0.599   5.189   3.664 -0.2482 -0.9924  0.3755
   75MOL   H16341751   0.494   5.314   4.095  0.3351 -1.4321 -0.0737
   75MOL   H16441752   0.657   5.348   4.036  1.1652 -0.9956 -0.7831
   75MOL   H16541753   0.531   5.077   4.090 -0.7316  0.3296 -0.4132
   75MOL   H16641754   0.688   5.093   4.032 -0.9949 -0.2969 -1.5731
   75MOL   H16741755   0.211   5.357   3.719  1.1424  0.3922  0.9283
   75MOL   H16841756   0.082   5.436   3.527 -2.0027  2.4420 -3.5209
   75MOL   H16941757   0.046   5.431   3.277  0.9535  1.7282 -0.0426
   75MOL   O17041758   0.477   5.172   4.334 -0.6956  0.3356  0.9045
   75MOL   C17141759   0.602   5.185   4.325  0.2812 -0.3848  0.1034
   75MOL   O17241760   0.674   5.179   4.215  0.8560  0.1865  0.6934
   75MOL   C17341761   0.688   5.213   4.447  0.1706  0.4489  0.5910
   75MOL   C17441762   0.631   5.256   4.568 -0.0243 -0.7654 -0.0438
   75MOL   C17541763   0.713   5.281   4.683  0.0620  0.7050  0.3768
   75MOL   C17641764   0.654   5.322   4.803  0.2133  0.1528 -0.0692
   75MOL   C17741765   0.738   5.365   4.910 -0.3708 -0.4154  0.0549
   75MOL   C17841766   0.877   5.347   4.906  0.6200 -0.4396 -0.2793
   75MOL   C17941767   0.957   5.371   5.026  0.1955  0.5047 -0.0773
   75MOL   O18041768   1.091   5.352   5.008  0.7104 -0.3096 -0.2697
   75MOL   C18141769   1.185   5.351   5.121  0.1296  0.7893  0.5196
   75MOL   C18241770   1.220   5.493   5.152 -0.2249 -0.3999  0.2524
   75MOL   O18341771   0.906   5.402   5.137 -0.0575  0.4998 -0.6940
   75MOL   C18441772   0.932   5.305   4.781 -0.6730 -0.1181 -0.6202
   75MOL   C18541773   0.851   5.280   4.665  0.4309  1.0005 -0.2978
   75MOL   C18641774   0.913   5.227   4.547 -0.1756  0.2534  0.7622
   75MOL   C18741775   0.830   5.201   4.439 -0.7533  1.0798  0.0711
   75MOL   H18841776   0.524   5.258   4.585 -0.3213 -3.2591 -1.3366
   75MOL   H18941777   0.547   5.325   4.808  0.2274 -0.7074  1.0382
   75MOL   H19041778   0.691   5.415   4.994  0.7842 -1.3418  1.2710
   75MOL   H19141779   1.272   5.297   5.084 -1.0033 -2.4416  2.3354
   75MOL   H19241780   1.145   5.296   5.207  0.1607  1.3931  0.9200
   75MOL   H19341781   1.187   5.565   5.078 -0.3634  0.8354  1.4949
   75MOL   H19441782   1.171   5.525   5.244  0.8094 -1.6473  1.2671
   75MOL   H19541783   1.039   5.305   4.772 -0.5315  1.2549  0.7964
   75MOL   H19641784   1.021   5.223   4.548 -0.1883 -0.2548  0.0827
   75MOL   H19741785   0.884   5.160   4.354  1.3252  2.1194  0.8518
   75MOL   O19841786   1.339   5.731   5.233  0.5957 -0.1244 -0.1744
   75MOL   C19941787   1.405   5.629   5.207 -0.6621  0.4391 -1.3476
   75MOL   O20041788   1.355   5.510   5.165 -0.3021  0.0280 -0.4152
   75MOL   C20141789   1.550   5.628   5.187 -0.0370 -0.1590  0.2994
   75MOL   C20241790   1.622   5.509   5.142  0.2256 -0.4298  0.1512
   75MOL   C20341791   1.762   5.519   5.120  0.1281 -0.1736 -0.4891
   75MOL   C20441792   1.835   5.401   5.085  0.6604 -0.6714 -0.6866
   75MOL   C20541793   1.967   5.409   5.040  0.1522 -0.2427  0.2307
   75MOL   C20641794   2.042   5.533   5.051  0.5956  0.2246  0.0797
   75MOL   C20741795   2.175   5.546   4.993  0.1193 -0.9233 -0.4973
   75MOL   O20841796   2.229   5.430   4.976 -0.3837 -0.7774 -0.9633
   75MOL   C20941797   2.365   5.419   4.943 -1.1572 -0.3486 -0.7413
   75MOL   C21041798   2.406   5.274   4.950  0.2832  0.1745 -0.0195
   75MOL   O21141799   2.224   5.654   4.962 -0.8620  0.5086 -0.2257
   75MOL   C21241800   1.975   5.652   5.105 -0.0277  0.1806  0.9233
   75MOL   C21341801   1.832   5.641   5.137 -0.5284  0.8234 -0.0719
   75MOL   C21441802   1.765   5.752   5.190 -0.1165  0.2733 -0.2139
   75MOL   C21541803   1.624   5.749   5.212  0.3516  0.0708 -0.4962
   75MOL   H21641804   1.573   5.414   5.133  0.8344 -0.6478 -0.9181
   75MOL   H21741805   1.775   5.312   5.091 -0.4786  0.1803  0.9600
   75MOL   H21841806   2.012   5.319   5.002  0.0222 -0.5573  0.8214
   75MOL   H21941807   2.418   5.483   5.014  0.2863  0.6278 -2.6680
   75MOL   H22041808   2.377   5.460   4.843  1.3690 -0.2857 -0.4365
   75MOL   H22141809   2.514   5.259   4.946 -0.0495 -2.4666  0.0381
   75MOL   H22241810   2.361   5.221   5.034 -1.6116  0.6417 -0.7334
   75MOL   H22341811   2.030   5.745   5.096 -0.0860  0.0605 -0.9638
   75MOL   H22441812   1.809   5.849   5.208 -1.5867  0.9051  0.0984
   75MOL   H22541813   1.578   5.843   5.237 -0.0188  0.3355 -2.0998
   75MOL   O22641814   2.516   5.282   4.702 -0.5627  0.4879 -0.0820
   75MOL   C22741815   2.405   5.227   4.716  0.0299  0.3733 -0.1887
   75MOL   O22841816   2.348   5.212   4.834  0.9135  0.1586 -0.4422
   75MOL   C22941817   2.333   5.160   4.605 -0.0078  0.2303 -0.5397
   75MOL   C23041818   2.402   5.154   4.485  0.4362  0.8694 -0.4271
   75MOL   C23141819   2.349   5.092   4.377  0.4481 -0.4144 -0.5727
   75MOL   C23241820   2.432   5.076   4.262 -0.4495 -0.5318 -0.0627
   75MOL   C23341821   2.376   5.017   4.149  0.1037  1.0571  0.0820
   75MOL   C23441822   2.249   4.965   4.148 -0.0889 -0.1053  0.5157
   75MOL   C23541823   2.181   4.906   4.028  0.0327  0.3288 -0.1235
   75MOL   O23641824   2.248   4.923   3.913  0.0573 -0.4591  0.2035
   75MOL   C23741825   2.199   4.859   3.796 -0.1517 -1.0996 -0.7725
   75MOL   C23841826   2.275   4.917   3.675 -0.6223  0.4388  0.4777
   75MOL   O23941827   2.080   4.841   4.035 -0.1711  0.0862 -0.0370
   75MOL   C24041828   2.173   4.977   4.268  0.2580 -0.2736  0.3901
   75MOL   C24141829   2.220   5.038   4.382  0.4765 -0.3444 -0.7832
   75MOL   C24241830   2.143   5.036   4.505 -0.2854 -0.5878  0.5623
   75MOL   C24341831   2.203   5.108   4.616  0.0314 -0.4048  0.3365
   75MOL   H24441832   2.497   5.205   4.476  0.5631  0.5357 -0.9807
   75MOL   H24541833   2.530   5.119   4.256 -1.0650  0.8312 -0.5262
   75MOL   H24641834   2.423   5.024   4.052 -2.1866  2.7551 -0.9494
   75MOL   H24741835   2.091   4.871   3.790 -0.4140 -2.6860  0.3612
   75MOL   H24841836   2.213   4.751   3.802  1.7044 -0.8687 -0.5973
   75MOL   H24941837   2.319   5.013   3.704 -0.4519  0.4889  0.0598
   75MOL   H25041838   2.353   4.848   3.645 -2.3848 -1.0763 -0.7280
   75MOL   H25141839   2.070   4.944   4.271 -0.4027  1.7234  0.8925
   75MOL   H25241840   2.039   5.010   4.497 -0.1670 -0.8981 -0.0252
   75MOL   H25341841   2.145   5.137   4.703  0.5960  1.1318  0.2242
   75MOL   O25441842   2.272   4.752   3.446 -0.2106 -0.2597  0.1934
   75MOL   C25541843   2.195   4.850   3.448  0.4615  0.2284  0.1057
   75MOL   O25641844   2.193   4.942   3.556  0.6011  0.7060  0.5782
   75MOL   C25741845   2.106   4.880   3.334 -0.2167 -0.4583  0.0887
   75MOL   C25841846   2.060   5.010   3.317 -0.1545 -0.3441  0.1300
   75MOL   C25941847   1.969   5.045   3.212 -0.1519 -0.3438 -0.1639
   75MOL   C26041848   1.928   5.176   3.198 -0.6075 -0.0931 -0.1980
   75MOL   C26141849   1.844   5.214   3.087 -0.2285  0.3829  0.2253
   75MOL   C26241850   1.810   5.121   2.992 -0.5452 -0.1372 -0.0966
   75MOL   C26341851   1.729   5.165   2.871  0.8220 -0.5186  0.5037
   75MOL   O26441852   1.665   5.054   2.812 -0.4028 -0.0044  0.3653
   75MOL   C26541853   1.559   5.079   2.720 -0.3668 -0.3834  0.1951
   75MOL   C26641854   1.429   5.095   2.794  0.2174 -0.4495  0.0573
   75MOL   O26741855   1.703   5.285   2.839  0.5471 -0.0152  0.1992
   75MOL   C26841856   1.856   4.987   3.007 -0.1077  0.6775  0.7312
   75MOL   C26941857   1.944   4.950   3.115 -0.0680  0.1548  0.4868
   75MOL   C27041858   1.996   4.817   3.129  1.0694 -0.6467  0.1359
   75MOL   C27141859   2.075   4.785   3.238  0.0156  0.0870 -0.7666
   75MOL   H27241860   2.097   5.080   3.391  0.2544 -2.6555  2.1941
   75MOL   H27341861   1.962   5.248   3.271 -2.5995 -1.1598  1.8467
   75MOL   H27441862   1.815   5.315   3.062  1.4605  1.0833  0.9984
   75MOL   H27541863   1.559   5.002   2.643 -2.1752  1.4581 -1.7205
   75MOL   H27641864   1.579   5.159   2.649 -2.4275  0.0731  0.0950
   75MOL   H27741865   1.437   5.161   2.880  0.8878  0.5511 -0.7775
   75MOL   H27841866   1.349   5.142   2.738 -0.0907  0.2405  1.0741
   75MOL   H27941867   1.836   4.914   2.931 -2.7860 -0.1164  2.1384
   75MOL   H28041868   1.987   4.747   3.048 -0.8881 -0.7081  0.4008
   75MOL   H28141869   2.109   4.683   3.246 -1.5642 -0.3937  0.1001
   75MOL   O28241870   1.186   4.955   2.741  0.3511 -0.0425  0.3738
   75MOL   C28341871   1.277   4.901   2.803 -0.3658 -0.3058  0.6023
   75MOL   O28441872   1.394   4.961   2.836  0.0871 -0.0799  0.6974
   75MOL   C28541873   1.258   4.768   2.878 -0.1208  0.4839 -0.1897
   75MOL   C28641874   1.374   4.703   2.942  0.3811 -0.2922 -0.0938
   75MOL   C28741875   1.360   4.578   3.007  0.7064 -0.7504 -0.0888
   75MOL   C28841876   1.469   4.510   3.065  0.3531 -0.2263  0.4519
   75MOL   C28941877   1.455   4.383   3.116  1.0632  0.3806 -0.0473
   75MOL   C29041878   1.331   4.320   3.110  0.2725  0.3660 -0.1872
   75MOL   C29141879   1.312   4.182   3.167  0.1422 -0.6976  0.3577
   75MOL   O29241880   1.200   4.123   3.126  0.3086 -0.3923  0.2147
   75MOL   C29341881   1.212   3.983   3.091 -0.5551 -0.0374 -0.0758
   75MOL   C29441882   1.247   3.970   2.946  0.0929  0.4443  0.4371
   75MOL   O29541883   1.395   4.125   3.239 -0.5705 -0.5813 -0.5596
   75MOL   C29641884   1.221   4.384   3.046  0.0090 -0.3486  0.8599
   75MOL   C29741885   1.237   4.513   2.997  0.4056 -0.9100 -0.6000
   75MOL   C29841886   1.125   4.581   2.941  0.3803 -0.1089  0.7308
   75MOL   C29941887   1.130   4.708   2.879  0.3689  0.5999  0.0583
   75MOL   H30041888   1.471   4.750   2.948  0.1473  0.0315  1.6505
   75MOL   H30141889   1.567   4.555   3.074  0.7819 -1.2263  0.9647
   75MOL   H30241890   1.529   4.321   3.165  0.2548  0.3768  1.2051
   75MOL   H30341891   1.122   3.925   3.111 -0.0605 -0.5514  0.7286
   75MOL   H30441892   1.287   3.935   3.154  0.0110  2.7069  1.4420
   75MOL   H30541893   1.166   4.014   2.888 -0.6501  0.4796  1.4886
   75MOL   H30641894   1.337   4.028   2.922  1.0684 -0.8220  0.9552
   75MOL   H30741895   1.122   4.342   3.042 -0.8384  1.6457 -0.2482
   75MOL   H30841896   1.035   4.523   2.929  0.4360  0.1206 -0.8781
   75MOL   H30941897   1.046   4.762   2.837 -0.0150 -1.3748 -1.7534
   75MOL   O31041898   1.110   3.816   2.781  0.1456 -0.6272 -0.3554
   75MOL   C31141899   1.218   3.777   2.818  0.2596 -0.6131  0.0197
   75MOL   O31241900   1.284   3.838   2.914  0.0154 -0.4447  0.0436
   75MOL   C31341901   1.292   3.658   2.760  0.0364 -0.1292  0.0238
   75MOL   C31441902   1.411   3.613   2.817 -0.5566 -0.1736 -0.1875
   75MOL   C31541903   1.487   3.515   2.755 -0.4365 -0.2252 -0.2814
   75MOL   C31641904   1.619   3.482   2.802 -0.1322 -0.7027  0.5460
   75MOL   C31741905   1.695   3.388   2.732  0.1402 -0.5775  0.2215
   75MOL   C31841906   1.641   3.309   2.629 -0.1644 -0.5879 -0.1042
   75MOL   C31941907   1.723   3.203   2.569  0.2220  0.3219 -1.2511
   75MOL   O32041908   1.690   3.172   2.445  0.3224  0.0160 -0.2198
   75MOL   C32141909   1.733   3.055   2.379  0.2888 -0.6126 -0.7126
   75MOL   C32241910   1.882   3.062   2.324 -0.5676 -0.0683  0.0445
   75MOL   O32341911   1.805   3.144   2.633  0.5649  0.3760  0.0193
   75MOL   C32441912   1.509   3.339   2.593  0.6244  0.3340 -0.4320
   75MOL   C32541913   1.433   3.443   2.649 -0.2712 -0.2072  0.3960
   75MOL   C32641914   1.313   3.483   2.587  0.2573 -0.0836 -0.2109
   75MOL   C32741915   1.245   3.594   2.646 -0.2467  0.1319 -0.1893
   75MOL   H32841916   1.449   3.659   2.907  0.3255  1.3936 -1.3453
   75MOL   H32941917   1.670   3.532   2.883  0.0275  0.9711 -0.5666
   75MOL   H33041918   1.794   3.368   2.772 -1.3257 -0.3012  4.2335
   75MOL   H33141919   1.666   3.019   2.301  0.8898 -1.1271 -0.9938
   75MOL   H33241920   1.738   2.980   2.458 -1.3091  1.0130  0.9910
   75MOL   H33341921   1.942   3.075   2.414 -0.4346  4.7936 -0.5809
   75MOL   H33441922   1.913   2.967   2.281 -0.5110  0.0602 -0.1969
   75MOL   H33541923   1.473   3.278   2.512 -1.8956  0.4818  0.5443
   75MOL   H33641924   1.264   3.429   2.507  0.1196 -0.5550  0.1887
   75MOL   H33741925   1.152   3.627   2.601 -0.7372 -2.3817 -1.1272
   75MOL   O33841926   1.865   3.053   2.049  0.0495  0.7852  0.1682
   75MOL   C33941927   1.883   3.164   2.101 -0.1059  0.0178  0.0858
   75MOL   O34041928   1.890   3.179   2.235 -0.4405 -1.0830 -0.3606
   75MOL   C34141929   1.894   3.295   2.033 -0.0899 -0.3165 -0.1534
   75MOL   C34241930   1.824   3.311   1.908 -0.0084  0.1287 -0.0636
   75MOL   C34341931   1.815   3.432   1.842 -0.2822  1.1200  0.8080
   75MOL   C34441932   1.746   3.450   1.723  0.3383 -0.4007  0.2782
   75MOL   C34541933   1.711   3.579   1.675 -0.7165  0.0966 -0.2350
   75MOL   C34641934   1.773   3.693   1.742 -0.2489  0.1103  1.3474
   75MOL   C34741935   1.748   3.830   1.695  0.2470  0.1548  0.1302
   75MOL   O34841936   1.791   3.931   1.770 -0.6916 -0.1505  0.4661
   75MOL   C34941937   1.783   4.063   1.730 -0.0265  0.6510 -0.9209
   75MOL   C35041938   1.900   4.089   1.633  0.0349 -0.1363  0.5629
   75MOL   O35141939   1.696   3.847   1.586  0.3142 -0.4268  0.3725
   75MOL   C35241940   1.863   3.668   1.849  0.2297 -0.4282  0.4290
   75MOL   C35341941   1.881   3.544   1.898 -0.3193 -0.5002  0.5641
   75MOL   C35441942   1.962   3.528   2.011  0.3625 -0.7386 -0.6844
   75MOL   C35541943   1.967   3.409   2.083 -1.0328  0.0992 -1.1884
   75MOL   H35641944   1.780   3.223   1.863 -0.7773  1.3387 -1.6966
   75MOL   H35741945   1.715   3.362   1.669  0.6792 -1.0868  1.1817
   75MOL   H35841946   1.651   3.591   1.587 -3.2668  0.0653  1.4580
   75MOL   H35941947   1.777   4.122   1.821  0.9477 -1.4818  0.5779
   75MOL   H36041948   1.688   4.061   1.676 -1.2006 -1.1912  1.1526
   75MOL   H36141949   1.943   3.995   1.598  2.2925  0.1205  2.4585
   75MOL   H36241950   1.879   4.156   1.549 -0.7474 -1.1545 -0.0671
   75MOL   H36341951   1.904   3.758   1.893 -0.7292  1.6977 -2.8719
   75MOL   H36441952   2.026   3.610   2.040  1.0254 -1.2168 -0.7854
   75MOL   H36541953   2.014   3.395   2.179 -1.6972 -2.8364 -1.2239
   75MOL   O36641954   2.160   4.134   1.574 -0.3613 -0.2037 -0.2773
   75MOL   C36741955   2.129   4.153   1.692  0.0450  0.5923 -0.4053
   75MOL   O36841956   1.999   4.138   1.728  0.2287 -0.4776 -0.0535
   75MOL   C36941957   2.216   4.204   1.809  0.1619  0.2480  0.2908
   75MOL   C37041958   2.349   4.251   1.778  0.1819  1.0190 -0.1711
   75MOL   C37141959   2.429   4.320   1.870 -0.5513  0.6164  0.6738
   75MOL   C37241960   2.554   4.376   1.837 -0.2868  0.4850 -0.0060
   75MOL   C37341961   2.624   4.445   1.937 -0.2488  0.3761 -0.0223
   75MOL   C37441962   2.580   4.451   2.076  0.5641  0.4569 -0.2798
   75MOL   C37541963   2.673   4.503   2.183  0.6484  0.1539 -0.8182
   75MOL   O37641964   2.607   4.518   2.304  0.2031 -0.2330  0.4337
   75MOL   C37741965   2.664   4.591   2.408  0.2067  0.3935 -0.2009
   75MOL   C37841966   2.628   4.738   2.394 -0.1065 -0.1478 -0.1059
   75MOL   O37941967   2.790   4.524   2.171  0.3615  0.2128  0.3965
   75MOL   C38041968   2.450   4.396   2.107  0.1155  0.2936  1.0225
   75MOL   C38141969   2.374   4.337   2.003  0.2160  0.2213  0.7268
   75MOL   C38241970   2.248   4.281   2.041 -0.2311  0.0549 -0.1393
   75MOL   C38341971   2.166   4.224   1.940 -0.6297  0.3849 -0.6389
   75MOL   H38441972   2.394   4.239   1.681  1.0014 -0.9534  0.4345
   75MOL   H38541973   2.602   4.351   1.743  0.5791 -4.1088  1.5543
   75MOL   H38641974   2.716   4.495   1.911  0.5722 -0.5425  1.0403
   75MOL   H38741975   2.770   4.563   2.408  0.4237  1.1165  2.0593
   75MOL   H38841976   2.628   4.551   2.502 -0.9647  0.6061 -0.5485
   75MOL   H38941977   2.522   4.762   2.395 -0.0373  0.4454 -2.5073
   75MOL   H39041978   2.666   4.802   2.474 -1.0572  0.1514  0.1102
   75MOL   H39141979   2.409   4.391   2.207 -0.5068 -0.1946  0.7460
   75MOL   H39241980   2.207   4.297   2.139 -0.0980 -2.4700  0.3773
   75MOL   H39341981   2.065   4.206   1.974 -0.5384  1.1432  0.0666
   75MOL   O39441982   2.896   4.821   2.367  0.5215  0.2754 -0.4267
   75MOL   C39541983   2.820   4.826   2.272 -0.8344 -0.1659 -0.3653
   75MOL   O39641984   2.697   4.777   2.273  0.4444 -0.3345 -0.3100
   75MOL   C39741985   2.867   4.870   2.140 -0.0568  0.2905  0.5405
   75MOL   C39841986   2.805   4.805   2.026  0.6929 -0.8705  0.3887
   75MOL   C39941987   2.849   4.836   1.898 -0.6215  0.0190  0.1689
   75MOL   C40041988   2.800   4.774   1.783 -0.3894 -0.2961 -0.1831
   75MOL   C40141989   2.859   4.811   1.657 -0.5592 -0.9928  0.5575
   75MOL   C40241990   2.965   4.904   1.640 -0.6532 -0.2231  0.9597
   75MOL   C40341991   3.012   4.945   1.504 -0.1397  0.1942  0.1873
   75MOL   O40441992   2.921   4.915   1.406  0.1419  0.3122  0.2834
   75MOL   C40541993   2.937   4.968   1.273 -0.0852 -0.0797  0.5629
   75MOL   C40641994   2.804   4.929   1.204  0.0209 -0.4116  1.1697
   75MOL   O40741995   3.119   4.997   1.485 -0.5189  0.2008  0.0497
   75MOL   C40841996   3.013   4.960   1.763 -0.3258 -0.2338 -0.9768
   75MOL   C40941997   2.959   4.929   1.886 -0.1888  0.6159 -0.2533
   75MOL   C41041998   3.012   4.997   2.000 -0.1218 -0.1745 -0.4569
   75MOL   C41141999   2.968   4.962   2.126 -0.4289 -0.2436 -0.0643
   75MOL   H41242000   2.725   4.732   2.028  0.2682 -0.4683 -0.9630
   75MOL   H41342001   2.727   4.695   1.787 -0.2649 -0.4077 -0.0990
   75MOL   H41442002   2.823   4.764   1.567  1.2015  0.5325 -1.0103
   75MOL   H41542003   3.009   4.908   1.218 -3.0689 -0.5220 -3.0560
   75MOL   H41642004   2.968   5.071   1.259  1.7325 -0.6998 -0.1101
   75MOL   H41742005   2.822   4.920   1.097  3.2750 -1.2555  1.7395
   75MOL   H41842006   2.766   4.836   1.246 -1.2755 -0.3451  0.1613
   75MOL   H41942007   3.102   5.021   1.763  0.5141 -1.4487 -0.6884
   75MOL   H42042008   3.099   5.060   1.987  1.1539 -1.9429 -0.7706
   75MOL   H42142009   3.015   5.000   2.216 -0.5231 -2.0722  0.7890
   75MOL   O42242010   2.631   4.939   1.419 -0.0650  0.0956  0.0054
   75MOL   C42342011   2.631   5.032   1.335  0.5659 -0.0900  0.1223
   75MOL   O42442012   2.717   5.045   1.231 -0.5943  0.2465  0.0935
   75MOL   C42542013   2.537   5.143   1.343 -0.4140 -0.2290  0.8728
   75MOL   C42642014   2.538   5.249   1.251  0.1159 -0.2827  0.5998
   75MOL   C42742015   2.447   5.361   1.265  0.2126  0.3502  0.1094
   75MOL   C42842016   2.449   5.463   1.168  0.5087  0.1677  0.0410
   75MOL   C42942017   2.355   5.572   1.179 -0.7958 -0.2145 -0.2601
   75MOL   C43042018   2.260   5.571   1.284 -0.0611  0.0421 -0.5591
   75MOL   C43142019   2.168   5.682   1.301  0.1376  0.2312 -0.2371
   75MOL   O43242020   2.167   5.769   1.202 -0.2219 -0.0455  0.0560
   75MOL   C43342021   2.080   5.878   1.207  1.0146 -0.0213  0.1948
   75MOL   C43442022   2.043   5.913   1.061  0.6898  0.2882 -0.4741
   75MOL   O43542023   2.096   5.699   1.403 -0.0282  0.0946 -0.2129
   75MOL   C43642024   2.261   5.471   1.382 -0.4743  0.2110 -0.6982
   75MOL   C43742025   2.353   5.364   1.369  0.0969 -0.4111  1.1643
   75MOL   C43842026   2.351   5.253   1.458  0.8620 -0.1174  0.3253
   75MOL   C43942027   2.435   5.143   1.439 -0.2224  0.3804 -0.3548
   75MOL   H44042028   2.605   5.258   1.167 -0.9542  1.6353 -0.0764
   75MOL   H44142029   2.517   5.473   1.085 -1.2667  0.5920 -1.3954
   75MOL   H44242030   2.349   5.649   1.103  0.1393 -0.1337 -0.2535
   75MOL   H44342031   2.127   5.962   1.259  1.6944  0.5185 -1.2647
   75MOL   H44442032   1.988   5.856   1.260 -0.1182  0.9953 -1.3015
   75MOL   H44542033   1.967   5.991   1.066  0.9048  0.3370  3.2201
   75MOL   H44642034   2.139   5.945   1.020  0.8115 -0.2785 -0.6367
   75MOL   H44742035   2.192   5.473   1.465  1.6113  1.6649  1.0752
   75MOL   H44842036   2.290   5.249   1.547 -1.2316 -0.4914 -1.0684
   75MOL   H44942037   2.429   5.068   1.516  1.4263  1.1976  0.5884
   75MOL   O45042038   2.162   5.799   0.828  0.4750  0.0245 -0.2909
   75MOL   C45142039   2.070   5.742   0.885 -0.0093 -0.6819  0.0756
   75MOL   O45242040   2.002   5.797   0.992  0.1195 -0.3664  0.3352
   75MOL   C45342041   2.001   5.617   0.835  0.0689  0.5665  0.3903
   75MOL   C45442042   1.874   5.578   0.890 -0.1269 -0.0150  0.2954
   75MOL   C45542043   1.809   5.458   0.849  0.1471  1.2447 -0.7924
   75MOL   C45642044   1.681   5.421   0.892 -0.1081 -0.2967  0.0423
   75MOL   C45742045   1.611   5.312   0.838  0.1503  0.0059 -0.5518
   75MOL   C45842046   1.682   5.225   0.750 -0.7018 -0.3304 -0.6393
   75MOL   C45942047   1.609   5.119   0.687  0.7423  0.2581 -0.7669
   75MOL   O46042048   1.685   5.014   0.660 -0.2163  0.4672  0.1760
   75MOL   C46142049   1.624   4.886   0.642  0.5540 -0.0868 -0.3030
   75MOL   C46242050   1.592   4.862   0.490  0.1278  0.6901 -0.1437
   75MOL   O46342051   1.489   5.116   0.682  0.4315  0.2695  0.1116
   75MOL   C46442052   1.813   5.249   0.706 -0.1120 -0.0015 -0.1456
   75MOL   C46542053   1.868   5.370   0.752 -0.2608 -0.3506 -0.1557
   75MOL   C46642054   1.992   5.413   0.701  0.9882 -0.2572  0.1408
   75MOL   C46742055   2.057   5.531   0.739 -0.8111  0.4292  1.0595
   75MOL   H46842056   1.827   5.639   0.965 -0.2768  1.2939 -0.8517
   75MOL   H46942057   1.629   5.486   0.961 -0.1333 -1.6139  1.2876
   75MOL   H47042058   1.511   5.292   0.872  0.7536  0.6574  1.6790
   75MOL   H47142059   1.536   4.886   0.706  0.7613  0.3350 -0.0216
   75MOL   H47242060   1.700   4.816   0.678 -0.2195 -0.0899  1.3991
   75MOL   H47342061   1.495   4.904   0.462  0.8885  0.4763 -3.1978
   75MOL   H47442062   1.665   4.919   0.433  1.0677  0.4631  0.8186
   75MOL   H47542063   1.864   5.185   0.636  0.4962  0.6190 -0.2696
   75MOL   H47642064   2.045   5.357   0.624  0.5579 -0.5803  0.0793
   75MOL   H47742065   2.157   5.551   0.702 -1.2887 -0.8550 -0.9978
   75MOL   O47842066   1.611   4.732   0.232 -0.3742 -0.0845  0.3149
   75MOL   C47942067   1.631   4.679   0.338  0.1328 -0.2133 -0.4267
   75MOL   O48042068   1.611   4.723   0.467  0.5521 -0.2169  0.3771
   75MOL   C48142069   1.685   4.535   0.350 -0.0146  0.2696 -0.2150
   75MOL   C48242070   1.741   4.468   0.237  0.3500 -0.8730  0.5450
   75MOL   C48342071   1.783   4.334   0.241 -0.3353  0.4938 -0.2945
   75MOL   C48442072   1.821   4.266   0.122  0.5572 -0.9931  0.4717
   75MOL   C48542073   1.864   4.127   0.127 -0.5689 -0.6169 -0.8839
   75MOL   C48642074   1.880   4.061   0.255 -0.1471  0.1111 -0.0180
   75MOL   C48742075   1.942   3.924   0.266  0.1420  0.3698 -1.3141
   75MOL   O48842076   1.951   3.891   0.390 -0.1979 -0.1176 -0.3778
   75MOL   C48942077   1.988   3.754   0.425  0.1962  0.2014  0.0516
   75MOL   C49042078   2.001   3.757   0.578  0.4871 -0.2326  0.3897
   75MOL   O49142079   1.991   3.864   0.166 -0.5474 -0.0490 -0.0216
   75MOL   C49242080   1.824   4.129   0.372 -0.8346  0.1053  0.3044
   75MOL   C49342081   1.774   4.264   0.365 -0.1828  0.8324  0.1329
   75MOL   C49442082   1.719   4.327   0.478  0.1217 -0.8203  0.0186
   75MOL   C49542083   1.679   4.463   0.474  0.2112  0.2002 -0.2564
   75MOL   H49642084   1.749   4.517   0.141  3.3488 -1.9057  0.1979
   75MOL   H49742085   1.814   4.312   0.024  3.4482 -0.7972  0.3112
   75MOL   H49842086   1.893   4.073   0.038 -0.9158 -0.0749 -1.3262
   75MOL   H49942087   2.093   3.745   0.396  0.3983  3.0936 -0.2107
   75MOL   H50042088   1.914   3.682   0.391  0.1615  0.8569 -1.2688
   75MOL   H50142089   2.031   3.658   0.611 -1.6009 -0.6383  1.1877
   75MOL   H50242090   2.067   3.839   0.607  0.2768 -0.4432  1.4632
   75MOL   H50342091   1.807   4.079   0.466  0.1490 -1.9364 -0.5754
   75MOL   H50442092   1.700   4.274   0.570 -1.5474 -0.5520 -0.1513
   75MOL   H50542093   1.645   4.506   0.567 -3.1649  0.0441 -1.3380
   75MOL   O50642094   1.919   4.001   0.676  0.1739  0.7001  0.6131
   75MOL   C50742095   1.841   3.905   0.668 -0.0527 -0.7835 -0.5520
   75MOL   O50842096   1.877   3.775   0.636  0.2777  0.2978  0.1299
   75MOL   C50942097   1.695   3.915   0.702 -0.9554 -0.4151  0.0442
   75MOL   C51042098   1.606   3.808   0.698  0.1773  0.2254  0.1122
   75MOL   C51142099   1.471   3.834   0.728 -0.4060 -0.1629 -0.7886
   75MOL   C51242100   1.385   3.724   0.720  0.5755 -0.2630 -0.5746
   75MOL   C51342101   1.250   3.736   0.747  0.0830  0.4496  0.4057
   75MOL   C51442102   1.198   3.860   0.786  0.2077 -0.1048  0.2490
   75MOL   C51542103   1.054   3.883   0.814  0.6192  0.4876 -0.4718
   75MOL   O51642104   1.000   3.772   0.858  0.3602 -0.7466  0.5337
   75MOL   C51742105   0.858   3.765   0.883  0.0885 -0.0382 -0.5693
   75MOL   C51842106   0.779   3.782   0.756 -0.0726  0.2128  0.0955
   75MOL   O51942107   0.993   3.991   0.794 -0.0339 -0.3539 -0.7073
   75MOL   C52042108   1.282   3.977   0.791 -0.1562 -0.8118  0.2059
   75MOL   C52142109   1.418   3.963   0.760  0.0047  0.4590  0.4760
   75MOL   C52242110   1.508   4.070   0.752  0.4450 -0.1283  0.1833
   75MOL   C52342111   1.641   4.045   0.720  0.1279 -0.6418  0.1907
   75MOL   H52442112   1.642   3.712   0.666  0.7755 -0.1082  1.7033
   75MOL   H52542113   1.420   3.626   0.691 -0.3513 -0.2502 -1.8177
   75MOL   H52642114   1.186   3.649   0.749 -0.2608  0.6862 -0.0946
   75MOL   H52742115   0.836   3.831   0.967  1.6019 -3.2049  2.4147
   75MOL   H52842116   0.832   3.666   0.918  1.7715 -0.3276 -0.0628
   75MOL   H52942117   0.676   3.779   0.792  0.2388 -1.1672  0.9081
   75MOL   H53042118   0.779   3.882   0.713 -1.0407  0.0789 -0.2398
   75MOL   H53142119   1.241   4.073   0.817 -0.7707 -1.2739  0.9514
   75MOL   H53242120   1.465   4.168   0.760 -0.4098 -0.3832 -1.2245
   75MOL   H53342121   1.698   4.137   0.714 -1.2213  0.1181 -1.7947
   75MOL   O53442122   0.681   3.528   0.749 -0.2534 -0.5027 -0.3137
   75MOL   C53542123   0.752   3.569   0.656 -0.1774  0.5642 -0.3727
   75MOL   O53642124   0.815   3.690   0.653  0.0599  0.8893 -0.5315
   75MOL   C53742125   0.782   3.487   0.532 -0.2989  0.0426 -0.4965
   75MOL   C53842126   0.741   3.349   0.525 -0.2681 -0.3696  0.0193
   75MOL   C53942127   0.791   3.267   0.423 -0.8644 -0.0742  0.4288
   75MOL   C54042128   0.762   3.132   0.424 -0.1825 -0.4296  0.1730
   75MOL   C54142129   0.820   3.053   0.322 -0.4693 -0.3861 -0.2682
   75MOL   C54242130   0.900   3.104   0.217 -0.2542  0.4822 -0.9221
   75MOL   C54342131   0.951   3.022   0.106 -0.1111  0.3936 -0.3548
   75MOL   O54442132   0.904   2.895   0.116 -0.2992 -0.6756  0.0779
   75MOL   C54542133   0.952   2.787   0.032  0.3014  0.0316  0.3292
   75MOL   C54642134   0.865   2.664   0.047 -0.1924 -0.5911 -0.2590
   75MOL   O54742135   1.046   3.058   0.035 -0.5315  0.2752  0.2372
   75MOL   C54842136   0.936   3.240   0.231 -0.1228 -0.4757 -0.3161
   75MOL   C54942137   0.874   3.326   0.323  0.4975 -0.1383  0.1503
   75MOL   C55042138   0.903   3.464   0.319 -0.1974 -0.4633 -0.1282
   75MOL   C55142139   0.855   3.547   0.427 -0.7236 -0.1406  0.7162
   75MOL   H55242140   0.700   3.314   0.619 -0.7535 -2.6211 -0.9906
   75MOL   H55342141   0.695   3.084   0.495 -0.6111  1.8745  1.3755
   75MOL   H55442142   0.790   2.950   0.308 -0.0888 -0.1588 -3.0285
   75MOL   H55542143   1.057   2.763   0.047  0.5912  0.9470 -0.1965
   75MOL   H55642144   0.942   2.819   8.177  1.6060  0.5031  0.3433
   75MOL   H55742145   0.771   2.696   0.002 -0.1369 -2.1372 -1.4874
   75MOL   H55842146   0.862   2.630   0.150 -1.5488  2.4619  0.7816
   75MOL   H55942147   1.005   3.273   0.154  0.4526 -2.2086 -0.5596
   75MOL   H56042148   0.967   3.504   0.243 -0.9608  0.3519 -0.3543
   75MOL   H56142149   0.899   3.645   0.438 -1.4396  0.0129  2.3011
   75MOL   H56242150   0.897   2.580   8.236  1.2836 -0.5411  0.4412
   76MOL     O142151   6.155   0.925   3.528 -0.7640 -0.1153  0.0683
   76MOL     C242152   6.084   0.845   3.586 -0.7713  0.8402 -1.1248
   76MOL     O342153   5.962   0.815   3.539  0.2465  0.0416  0.5415
   76MOL     C442154   6.129   0.759   3.694 -0.3572 -0.5824 -0.6088
   76MOL     C542155   6.045   0.656   3.745 -0.3749  0.3956  0.0344
   76MOL     C642156   6.097   0.571   3.848  0.0075  0.0085  0.3630
   76MOL     C742157   6.011   0.478   3.912 -0.1268  0.3237 -0.0467
   76MOL     C842158   6.056   0.402   4.022 -0.0742  0.0888  0.4967
   76MOL     C942159   6.191   0.409   4.062  0.2185  0.4422  0.4380
   76MOL    C1042160   6.245   0.316   4.173  0.0268  0.1635 -0.3035
   76MOL    O1142161   6.373   0.356   4.206 -0.2338  0.3460 -0.4835
   76MOL    C1242162   6.435   0.305   4.323  0.2699  0.5653  0.5239
   76MOL    C1342163   6.389   0.382   4.449 -0.2228 -0.4112  0.3692
   76MOL    O1442164   6.196   0.215   4.215  0.5563  0.4931 -0.0402
   76MOL    C1542165   6.276   0.509   3.999  0.6752  0.1049  0.1499
   76MOL    C1642166   6.226   0.587   3.894  0.1357  0.0085  0.0398
   76MOL    C1742167   6.309   0.683   3.843 -0.1386 -0.1077  0.5705
   76MOL    C1842168   6.258   0.775   3.749 -0.2885  0.1560 -0.2247
   76MOL    H1942169   5.944   0.639   3.710  0.1844  1.7660 -2.3584
   76MOL    H2042170   5.905   0.478   3.892 -0.2431  3.7519  0.2108
   76MOL    H2142171   5.983   0.335   4.066 -1.4071  0.8948 -0.4383
   76MOL    H2242172   6.400   0.205   4.346 -1.0854  1.1711  1.1446
   76MOL    H2342173   6.544   0.303   4.319  0.1962 -0.0454 -1.3667
   76MOL    H2442174   6.283   0.404   4.455 -0.4791 -1.4583 -0.3631
   76MOL    H2542175   6.408   0.328   4.542 -0.3747 -0.9499  0.0873
   76MOL    H2642176   6.374   0.525   4.042  0.4522  1.8302  0.0780
   76MOL    H2742177   6.408   0.687   3.884  0.7201  0.1129 -1.4850
   76MOL    H2842178   6.325   0.851   3.712  1.7316  0.3988  3.6664
   76MOL    H2942179   5.952   0.855   3.454  0.3673  2.8622  1.7950
   76MOL    O3042180   6.651   0.416   4.500 -0.0056  0.3840  0.3683
   76MOL    C3142181   6.579   0.515   4.483 -0.8068 -0.4440 -0.3814
   76MOL    O3242182   6.452   0.511   4.445 -0.6250 -0.1508 -0.6091
   76MOL    C3342183   6.635   0.652   4.515 -0.3488  0.4542 -0.1574
   76MOL    C3442184   6.774   0.665   4.557  0.1279  0.3140  0.0090
   76MOL    C3542185   6.835   0.788   4.573  0.6862 -0.1516  0.2317
   76MOL    C3642186   6.968   0.796   4.601 -1.0023 -0.0081  0.2769
   76MOL    C3742187   7.027   0.926   4.625  0.2256 -0.1993 -0.1224
   76MOL    C3842188   6.947   1.041   4.619  0.3516  0.2982 -1.1149
   76MOL    C3942189   7.012   1.179   4.642  1.2345  0.0439  0.2130
   76MOL    O4042190   7.112   1.181   4.726 -0.8089 -0.2437 -0.1977
   76MOL    C4142191   7.183   1.304   4.734 -0.0236  0.1274 -0.3751
   76MOL    C4242192   7.286   1.320   4.619 -0.3362 -0.6479  0.3000
   76MOL    O4342193   6.963   1.277   4.594  0.6578  0.2245  0.1193
   76MOL    C4442194   6.812   1.034   4.579 -0.2447  0.7134  0.2720
   76MOL    C4542195   6.758   0.904   4.559 -0.9644 -0.5901 -0.2267
   76MOL    C4642196   6.627   0.894   4.528 -0.3088  0.5435 -0.6252
   76MOL    C4742197   6.559   0.768   4.526 -0.3972  1.3019  0.5820
   76MOL    H4842198   6.838   0.579   4.573  0.5508  0.1775 -2.2084
   76MOL    H4942199   7.033   0.711   4.606 -1.6084 -0.5055 -0.2275
   76MOL    H5042200   7.130   0.936   4.653  0.3206  0.6412 -0.7310
   76MOL    H5142201   7.233   1.307   4.831 -2.1196 -1.2659  0.7623
   76MOL    H5242202   7.110   1.385   4.744  0.4001  0.3510  1.0036
   76MOL    H5342203   7.253   1.286   4.521  0.2705  0.8325 -0.4372
   76MOL    H5442204   7.307   1.427   4.612  0.9468 -0.8905  0.2040
   76MOL    H5542205   6.761   1.128   4.564  3.3981  2.5845 -0.7762
   76MOL    H5642206   6.568   0.983   4.516 -0.1689  0.6077 -0.8396
   76MOL    H5742207   6.452   0.766   4.510 -0.1791 -0.5936 -0.7836
   76MOL    O5842208   7.497   1.307   4.461  0.0275 -0.0800 -0.2427
   76MOL    C5942209   7.509   1.254   4.568  0.3430 -0.3261 -0.6874
   76MOL    O6042210   7.411   1.252   4.657  0.3969  0.5460 -0.0284
   76MOL    C6142211   7.634   1.185   4.626 -0.0224 -0.4125  0.0322
   76MOL    C6242212   7.738   1.164   4.537 -0.7082  0.4763 -0.1755
   76MOL    C6342213   7.862   1.103   4.575  0.1422 -0.6142  0.5358
   76MOL    C6442214   7.965   1.079   4.486  0.3915  0.1332  0.4846
   76MOL    C6542215   8.091   1.029   4.525  0.1692 -0.5370  0.0621
   76MOL    C6642216   8.103   0.988   4.660  0.1027 -0.9744 -0.4264
   76MOL    C6742217   8.235   0.933   4.695 -0.0284 -0.5432 -1.0024
   76MOL    O6842218   8.246   0.921   4.826  0.0510 -0.0051  0.0087
   76MOL    C6942219   0.116   0.899   4.897  0.3565  0.4590  0.2344
   76MOL    C7042220   0.195   1.025   4.888  0.0367  0.3253  0.1687
   76MOL    O7142221   0.073   0.911   4.614  0.6112 -0.8908 -0.0742
   76MOL    C7242222   8.000   0.995   4.750 -0.6972 -0.8087 -0.2774
   76MOL    C7342223   7.879   1.061   4.712 -0.2866 -0.6210  0.0281
   76MOL    C7442224   7.769   1.081   4.801 -0.6429 -0.3866  0.5481
   76MOL    C7542225   7.653   1.153   4.759  0.8443  0.1604  0.3085
   76MOL    H7642226   7.725   1.198   4.435  0.1335 -0.0145 -0.4582
   76MOL    H7742227   7.959   1.120   4.386 -0.8636  0.2000  0.5786
   76MOL    H7842228   8.178   1.027   4.461 -0.0128 -0.7713 -0.1758
   76MOL    H7942229   0.155   0.805   4.857 -0.7094 -0.8996  2.3044
   76MOL    H8042230   0.106   0.877   5.003 -0.9534  1.7060  0.3813
   76MOL    H8142231   0.291   0.997   4.931  1.6029  0.2363 -3.2615
   76MOL    H8242232   0.214   1.049   4.784 -2.6010  1.0933 -0.1790
   76MOL    H8342233   8.004   0.944   4.845  2.0078 -1.0241 -0.4791
   76MOL    H8442234   7.765   1.044   4.902 -4.3285 -0.1069  0.5853
   76MOL    H8542235   7.585   1.190   4.834  1.2161  1.3555  0.0756
   76MOL    O8642236   0.072   1.229   4.766  0.3472  0.2045  0.0737
   76MOL    C8742237   0.075   1.228   4.888  0.5467  0.0402 -0.1027
   76MOL    O8842238   0.136   1.137   4.957 -0.2661 -0.0423  0.8479
   76MOL    C8942239   0.023   1.338   4.971 -0.1535 -0.1618 -0.0215
   76MOL    C9042240   0.077   1.363   5.103  0.6352  0.8070  0.4151
   76MOL    C9142241   0.035   1.465   5.191  0.2345  0.0844  0.2238
   76MOL    C9242242   0.100   1.480   5.315 -0.3963 -0.3314  0.2109
   76MOL    C9342243   0.046   1.586   5.396 -0.6572  0.2163 -0.2366
   76MOL    C9442244   8.183   1.663   5.353 -1.0703  0.9074  0.2768
   76MOL    C9542245   8.116   1.757   5.449 -0.4703  0.5312  0.3196
   76MOL    O9642246   8.185   1.792   5.567  0.6386  0.8236 -0.4706
   76MOL    C9742247   8.121   1.863   5.672 -0.2262 -0.1756  0.0165
   76MOL    C9842248   8.064   1.767   5.776 -0.1934  0.1141 -0.0307
   76MOL    O9942249   7.997   1.787   5.428 -0.0455 -0.4190 -0.2629
   76MOL   C10042250   8.138   1.653   5.223  0.9082 -0.2879  0.0468
   76MOL   C10142251   8.184   1.549   5.141 -0.5468 -0.3897  0.2809
   76MOL   C10242252   8.127   1.530   5.013  0.8587 -0.5042  0.2938
   76MOL   C10342253   8.172   1.424   4.929 -0.0292 -0.1306  0.6970
   76MOL   H10442254   0.154   1.302   5.146 -0.6074 -0.0675  1.4521
   76MOL   H10542255   0.176   1.411   5.348  0.5446 -0.5356 -2.2578
   76MOL   H10642256   0.088   1.610   5.492 -1.6763  2.8476 -0.4129
   76MOL   H10742257   8.043   1.929   5.635 -0.6111 -0.0964  0.9434
   76MOL   H10842258   8.191   1.930   5.723  0.6526 -0.8066 -0.3362
   76MOL   H10942259   7.957   1.751   5.761 -0.4321  1.5847 -0.0766
   76MOL   H11042260   8.105   1.667   5.767 -4.1482 -1.4528 -1.9503
   76MOL   H11142261   8.053   1.714   5.198 -0.5072 -2.0298  0.5524
   76MOL   H11242262   8.037   1.586   4.993  1.1058  0.2565  1.2277
   76MOL   H11342263   8.123   1.409   4.834  0.9077 -1.0851  0.3640
   76MOL   O11442264   0.044   1.748   5.926  0.1300  0.3909  0.2124
   76MOL   C11542265   8.199   1.818   5.967  0.0288  0.2100  0.1863
   76MOL   O11642266   8.077   1.819   5.905 -0.1806 -0.3979 -0.1970
   76MOL   C11742267   8.209   1.915   6.081 -1.0904  0.4334  0.8070
   76MOL   C11842268   8.097   1.992   6.109  0.6750 -0.1885 -0.0878
   76MOL   C11942269   8.104   2.074   6.222 -0.8123 -0.7539  0.4460
   76MOL   C12042270   7.990   2.145   6.260 -0.4373 -0.6207  0.0080
   76MOL   C12142271   7.980   2.201   6.385  0.2896  0.0873 -0.8024
   76MOL   C12242272   8.094   2.205   6.470  0.5269  0.1997  0.4888
   76MOL   C12342273   8.079   2.263   6.606 -0.0988  0.7026  0.7386
   76MOL   O12442274   7.954   2.280   6.658  0.3204 -0.1315  0.2587
   76MOL   C12542275   7.947   2.304   6.792 -0.3122  0.3683  0.3529
   76MOL   C12642276   7.996   2.442   6.837  1.0227  0.3209  0.2627
   76MOL   O12742277   8.183   2.287   6.675  0.0624 -0.4049 -0.4878
   76MOL   C12842278   8.215   2.151   6.423  0.2306 -0.0432 -0.1382
   76MOL   C12942279   8.216   2.069   6.312  0.3736 -0.0451  0.2151
   76MOL   C13042280   0.079   1.985   6.281  0.5306 -0.2829 -0.1953
   76MOL   C13142281   0.068   1.904   6.169 -0.3547 -0.5126 -0.6981
   76MOL   H13242282   8.014   2.005   6.041 -0.0379 -1.3187  0.5498
   76MOL   H13342283   7.902   2.135   6.199 -1.5363 -1.4082  1.6763
   76MOL   H13442284   7.888   2.246   6.417  0.3316 -1.3080  1.4563
   76MOL   H13542285   8.010   2.228   6.838 -0.7077  1.2697  2.4537
   76MOL   H13642286   7.849   2.281   6.833 -0.0767 -1.6836 -0.2133
   76MOL   H13742287   7.993   2.442   6.946  2.5904  3.2881  0.3299
   76MOL   H13842288   8.094   2.479   6.808  0.0679  1.7956 -1.1552
   76MOL   H13942289   0.055   2.160   6.482  0.6154 -0.0669 -0.7092
   76MOL   H14042290   0.151   1.963   6.358  0.3188 -0.4324 -0.0396
   76MOL   H14142291   0.148   1.834   6.149  0.3140 -0.1966  0.7661
   76MOL   O14242292   7.870   2.660   6.972  0.2683  0.5584 -0.2050
   76MOL   C14342293   7.844   2.634   6.853 -0.1408  0.0593  0.4607
   76MOL   O14442294   7.904   2.533   6.781  0.1690 -0.0778  0.7021
   76MOL   C14542295   7.760   2.722   6.760  0.1529  0.3769 -0.8281
   76MOL   C14642296   7.701   2.838   6.812 -0.3185 -0.0837  0.0738
   76MOL   C14742297   7.626   2.923   6.729 -0.0894  0.3515  0.5683
   76MOL   C14842298   7.552   3.033   6.776 -0.2572  0.1445 -0.0381
   76MOL   C14942299   7.464   3.097   6.690 -0.2227  0.0972  0.1694
   76MOL   C15042300   7.450   3.063   6.551  0.0365  0.2352  0.2094
   76MOL   C15142301   7.360   3.123   6.454  0.0368  0.0905 -0.4006
   76MOL   O15242302   7.316   3.241   6.495  0.0941 -0.3540 -0.3757
   76MOL   C15342303   7.244   3.327   6.405 -0.6535  0.2431  0.4805
   76MOL   C15442304   7.100   3.282   6.382 -0.0363  0.5623  0.5316
   76MOL   O15542305   7.330   3.068   6.352 -0.2898 -0.4578 -0.4609
   76MOL   C15642306   7.530   2.955   6.508 -0.4375 -0.3686 -0.6597
   76MOL   C15742307   7.612   2.883   6.595 -0.4226 -0.5807 -0.0054
   76MOL   C15842308   7.667   2.761   6.546 -0.5090  0.0997 -0.1732
   76MOL   C15942309   7.742   2.679   6.627 -0.5148 -0.0098  0.1599
   76MOL   H16042310   7.711   2.858   6.917 -2.6234 -1.3719  0.5651
   76MOL   H16142311   7.555   3.069   6.878 -0.9385 -0.1707  0.0917
   76MOL   H16242312   7.413   3.184   6.729 -0.1995 -0.3177  1.1545
   76MOL   H16342313   7.294   3.337   6.309 -0.1313 -1.3260  0.5819
   76MOL   H16442314   7.242   3.422   6.459  0.7539  0.2613  0.5232
   76MOL   H16542315   7.083   3.201   6.310 -1.5767  1.4298 -0.1199
   76MOL   H16642316   7.070   3.239   6.477 -2.9677  1.9348  0.2904
   76MOL   H16742317   7.531   2.926   6.404 -0.1790  1.6940 -1.2525
   76MOL   H16842318   7.657   2.733   6.442 -0.0979 -0.1505 -0.1471
   76MOL   H16942319   7.782   2.589   6.584  0.7992  2.2210 -3.5281
   76MOL   O17042320   7.036   3.352   6.128 -0.3473 -0.3329  0.1326
   76MOL   C17142321   7.007   3.428   6.222  0.3309 -0.2825 -0.3493
   76MOL   O17242322   7.022   3.391   6.354  0.1959  0.4159 -0.2928
   76MOL   C17342323   6.932   3.561   6.211  0.0634  0.2323 -0.3975
   76MOL   C17442324   6.953   3.654   6.312  0.1163 -0.1494  0.1261
   76MOL   C17542325   6.868   3.765   6.323 -0.0457  0.1092 -0.3212
   76MOL   C17642326   6.875   3.840   6.435 -0.1443 -0.6480 -0.2401
   76MOL   C17742327   6.793   3.957   6.451 -0.3377  0.2543 -0.4340
   76MOL   C17842328   6.696   3.984   6.350  0.5675 -0.4886  0.2189
   76MOL   C17942329   6.616   4.114   6.364  0.1312  0.4846  0.3570
   76MOL   O18042330   6.521   4.136   6.271 -0.7208  0.6601  0.0565
   76MOL   C18142331   6.450   4.252   6.277 -0.4274  0.0349  0.1822
   76MOL   C18242332   6.522   4.362   6.193  0.4062  0.3376 -0.2484
   76MOL   O18342333   6.644   4.195   6.453 -0.0982 -0.4522  0.4843
   76MOL   C18442334   6.686   3.899   6.238 -0.5363  0.1548 -0.0179
   76MOL   C18542335   6.774   3.792   6.222  0.1359  0.4746  0.2649
   76MOL   C18642336   6.774   3.709   6.107 -0.0039 -0.3815  0.5869
   76MOL   C18742337   6.855   3.594   6.095 -0.2343 -0.0369 -0.4434
   76MOL   H18842338   7.016   3.630   6.396  0.4008  1.3675  0.3671
   76MOL   H18942339   6.945   3.808   6.510  0.4647 -0.7647 -0.8513
   76MOL   H19042340   6.793   4.024   6.535 -1.4233  0.4972 -0.6163
   76MOL   H19142341   6.434   4.290   6.377  0.8936 -0.9134  0.7782
   76MOL   H19242342   6.358   4.227   6.224 -1.1279  0.8428  1.0064
   76MOL   H19342343   6.585   4.421   6.259  1.0318 -1.5642  0.8965
   76MOL   H19442344   6.596   4.315   6.127  0.9120  1.9328 -0.8477
   76MOL   H19542345   6.611   3.925   6.166  0.8975 -0.2358 -1.6729
   76MOL   H19642346   6.705   3.728   6.027  0.3524  0.8561  0.5514
   76MOL   H19742347   6.840   3.518   6.020 -0.7937 -0.3206 -0.0540
   76MOL   O19842348   6.469   4.644   6.188 -0.1965 -0.2836  1.0750
   76MOL   C19942349   6.401   4.570   6.112 -0.1852  0.4815 -0.0561
   76MOL   O20042350   6.427   4.432   6.116  0.0848  0.2083 -0.4856
   76MOL   C20142351   6.306   4.617   6.007  0.7531 -0.4969  0.0822
   76MOL   C20242352   6.315   4.742   5.936  0.2327  0.1007  0.3141
   76MOL   C20342353   6.215   4.784   5.841 -0.1108  0.1445 -0.6456
   76MOL   C20442354   6.227   4.897   5.759 -0.0381 -0.6662  0.8543
   76MOL   C20542355   6.132   4.926   5.663  0.3143 -0.4662  0.1030
   76MOL   C20642356   6.024   4.843   5.638  1.0347 -0.0353 -0.2285
   76MOL   C20742357   5.920   4.867   5.534  0.9927  0.2710  0.0997
   76MOL   O20842358   5.924   4.994   5.480  0.1462 -0.3668  0.4984
   76MOL   C20942359   5.810   5.035   5.399 -0.3494  0.5996  0.4155
   76MOL   C21042360   5.763   4.937   5.286  0.2971 -1.0648  0.2120
   76MOL   O21142361   5.845   4.774   5.497  0.4895  0.2920  0.7472
   76MOL   C21242362   6.010   4.726   5.711 -0.5457  0.2079  0.2760
   76MOL   C21342363   6.108   4.693   5.813 -0.0976  0.2800 -0.0851
   76MOL   C21442364   6.098   4.569   5.886  0.0029  0.2441  0.5838
   76MOL   C21542365   6.198   4.533   5.976 -0.0021  0.3937 -0.1772
   76MOL   H21642366   6.395   4.810   5.961  0.2046 -0.8438  3.2305
   76MOL   H21742367   6.310   4.964   5.779  0.7518 -0.9056 -1.4919
   76MOL   H21842368   6.149   5.010   5.598 -2.7481 -0.3518 -0.6320
   76MOL   H21942369   5.833   5.133   5.358 -0.3611 -0.7919 -3.0821
   76MOL   H22042370   5.732   5.064   5.470 -0.2143  0.2214  0.7222
   76MOL   H22142371   5.798   4.977   5.191  2.2686 -0.5906  1.1266
   76MOL   H22242372   5.806   4.837   5.286  0.7622 -0.8678 -0.6618
   76MOL   H22342373   5.929   4.656   5.699  0.4686 -0.7395 -1.2968
   76MOL   H22442374   6.013   4.508   5.858  0.0860  0.7622 -0.8087
   76MOL   H22542375   6.198   4.438   6.027 -1.6153  1.2017  1.3920
   76MOL   O22642376   5.592   5.142   5.217 -0.6119 -0.0424  0.3442
   76MOL   C22742377   5.549   5.031   5.244 -0.4586 -0.0820  1.3227
   76MOL   O22842378   5.625   4.932   5.290  0.4129  0.6810  0.0465
   76MOL   C22942379   5.405   4.996   5.246 -0.2524 -0.3675  1.1406
   76MOL   C23042380   5.310   5.083   5.193  0.5895 -0.1027 -0.0076
   76MOL   C23142381   5.172   5.050   5.185  0.0284 -0.5434 -0.1205
   76MOL   C23242382   5.080   5.150   5.149 -0.1757  0.7669  0.1039
   76MOL   C23342383   4.944   5.121   5.153  0.0089 -0.3658 -0.5818
   76MOL   C23442384   4.900   4.998   5.195 -0.2541  0.9122  0.4699
   76MOL   C23542385   4.750   4.978   5.211 -0.3927  0.1756 -0.5255
   76MOL   O23642386   4.683   5.096   5.240  0.4861 -0.1320 -0.7541
   76MOL   C23742387   4.545   5.091   5.280  1.0375 -0.0441  0.1480
   76MOL   C23842388   4.528   5.147   5.416  0.2940 -1.0814 -0.5776
   76MOL   O23942389   4.697   4.867   5.213  0.4984 -0.5931 -0.1478
   76MOL   C24042390   4.986   4.896   5.235  0.1630  0.1404  0.1084
   76MOL   C24142391   5.129   4.924   5.232  0.5991  0.8326  0.6097
   76MOL   C24242392   5.225   4.830   5.282  1.0388  0.0695  0.0348
   76MOL   C24342393   5.355   4.864   5.279 -0.7167  0.4176 -0.1165
   76MOL   H24442394   5.352   5.173   5.152  0.9071  0.5542  1.7308
   76MOL   H24542395   5.102   5.252   5.120  0.3673  0.8851  0.9120
   76MOL   H24642396   4.866   5.192   5.129 -1.2301 -1.6094 -0.2943
   76MOL   H24742397   4.516   4.986   5.280  1.1712 -0.0947 -0.9575
   76MOL   H24842398   4.473   5.138   5.212  0.1649 -1.5525 -0.0100
   76MOL   H24942399   4.444   5.105   5.470 -1.1402  1.9554 -0.3618
   76MOL   H25042400   4.611   5.112   5.478  1.2287 -1.0831 -1.8072
   76MOL   H25142401   4.949   4.801   5.273 -0.7716 -0.4549 -2.2334
   76MOL   H25242402   5.197   4.733   5.319 -2.8911  0.4429 -1.7502
   76MOL   H25342403   5.425   4.790   5.312 -1.2540 -0.6236 -1.2765
   76MOL   O25442404   4.284   5.265   5.458 -0.0848  0.3965  0.0085
   76MOL   C25542405   4.381   5.334   5.435  0.4745 -0.1478  1.7740
   76MOL   O25642406   4.506   5.289   5.418 -0.5305 -0.0703  0.0767
   76MOL   C25742407   4.374   5.485   5.417  0.4064  1.0556 -0.5052
   76MOL   C25842408   4.481   5.562   5.368 -0.5983  0.0808 -0.0560
   76MOL   C25942409   4.474   5.704   5.365 -0.4757  0.4950  0.0228
   76MOL   C26042410   4.584   5.774   5.308  0.2240  0.1567  0.0611
   76MOL   C26142411   4.572   5.914   5.294  0.2992 -0.1887 -0.0239
   76MOL   C26242412   4.459   5.981   5.350 -0.7509 -0.0358 -0.2158
   76MOL   C26342413   4.456   6.127   5.341  0.2101 -0.1984 -0.1374
   76MOL   O26442414   4.578   6.187   5.330 -0.2780 -0.4306  0.1884
   76MOL   C26542415   4.582   6.330   5.302  0.2792 -0.0884 -0.1291
   76MOL   C26642416   4.560   6.361   5.149  0.7467 -0.0733 -0.1776
   76MOL   O26742417   4.352   6.186   5.366 -0.0820 -0.6703  0.4654
   76MOL   C26842418   4.351   5.907   5.400 -0.1753  0.1295 -0.4689
   76MOL   C26942419   4.355   5.766   5.409  0.1297  0.4552  0.0166
   76MOL   C27042420   4.243   5.691   5.457  0.1197 -0.1617  0.1021
   76MOL   C27142421   4.255   5.552   5.459  0.0021 -0.1441 -0.1790
   76MOL   H27242422   4.573   5.509   5.349 -0.3603  1.3561 -2.6407
   76MOL   H27342423   4.669   5.722   5.267  1.1971  1.7318  0.0533
   76MOL   H27442424   4.638   5.970   5.230 -3.3156  3.8257 -0.4900
   76MOL   H27542425   4.671   6.375   5.344 -1.2735  1.1619  1.9269
   76MOL   H27642426   4.501   6.377   5.359  0.8391 -0.4847  1.0153
   76MOL   H27742427   4.472   6.317   5.103  1.1691 -2.2545  1.0453
   76MOL   H27842428   4.544   6.469   5.150 -0.1287 -0.2048  0.5267
   76MOL   H27942429   4.267   5.959   5.443 -0.5323 -0.0275 -0.9723
   76MOL   H28042430   4.158   5.740   5.503 -0.0858 -1.1550  0.8088
   76MOL   H28142431   4.170   5.492   5.488  0.2390 -1.2047 -1.6446
   76MOL   O28242432   4.628   6.134   4.992 -0.0719 -0.9497 -0.0533
   76MOL   C28342433   4.707   6.226   5.018 -0.5267 -0.2770 -0.0869
   76MOL   O28442434   4.678   6.339   5.083 -0.0516  0.2386 -0.2906
   76MOL   C28542435   4.850   6.227   4.987  0.3459  0.8608  0.5391
   76MOL   C28642436   4.944   6.321   5.038 -0.2962  1.1091  0.2591
   76MOL   C28742437   5.081   6.309   5.012  0.9611  0.2772  0.1371
   76MOL   C28842438   5.176   6.400   5.067  0.2174 -0.2218 -0.1311
   76MOL   C28942439   5.312   6.379   5.040 -0.5063  0.1306  0.4233
   76MOL   C29042440   5.356   6.276   4.963 -0.2133 -0.2869 -0.1931
   76MOL   C29142441   5.504   6.247   4.946  0.0576 -0.2303  0.5617
   76MOL   O29242442   5.581   6.311   5.041 -0.3976  0.0728  0.1360
   76MOL   C29342443   5.724   6.308   5.034  0.3691 -0.8972  0.4455
   76MOL   C29442444   5.783   6.439   4.973 -0.2716 -0.5620 -0.1970
   76MOL   O29542445   5.556   6.181   4.858  0.2620 -0.0368  0.0307
   76MOL   C29642446   5.264   6.190   4.904  0.4924  0.8334 -0.6702
   76MOL   C29742447   5.127   6.200   4.934 -0.1985  0.8416 -0.0260
   76MOL   C29842448   5.037   6.111   4.878  0.1537 -0.1691 -0.2033
   76MOL   C29942449   4.899   6.122   4.907 -0.1546 -0.4488 -0.4529
   76MOL   H30042450   4.905   6.390   5.111 -1.9225  0.0307  0.4242
   76MOL   H30142451   5.146   6.471   5.143 -2.4383 -0.7348 -0.6395
   76MOL   H30242452   5.385   6.440   5.092 -0.0956  2.0658 -2.3101
   76MOL   H30342453   5.764   6.213   4.999 -1.9948 -1.7748  0.0384
   76MOL   H30442454   5.756   6.306   5.138 -0.4939  2.2285  0.8296
   76MOL   H30542455   5.731   6.525   5.015 -0.4761 -2.2371  3.1401
   76MOL   H30642456   5.887   6.446   5.004 -0.7735  1.8152  1.0187
   76MOL   H30742457   5.298   6.111   4.839  0.2934  0.1310  0.0690
   76MOL   H30842458   5.071   6.045   4.799 -2.1248 -0.4466 -0.9689
   76MOL   H30942459   4.833   6.056   4.854  0.5654 -0.9429 -0.7438
   76MOL   O31042460   5.884   6.615   4.802 -0.3036 -0.0635  0.5720
   76MOL   C31142461   5.818   6.525   4.753 -0.1177 -0.1443 -0.3412
   76MOL   O31242462   5.758   6.435   4.832 -0.1516  0.0763 -0.4630
   76MOL   C31342463   5.799   6.508   4.604 -0.1116 -0.2058 -0.3609
   76MOL   C31442464   5.882   6.588   4.524 -0.5049 -0.5803  0.3717
   76MOL   C31542465   5.883   6.562   4.385  0.4140  0.3924  0.3596
   76MOL   C31642466   5.979   6.626   4.304  0.3739 -0.3624 -0.6668
   76MOL   C31742467   5.979   6.599   4.167  0.6971  0.4571  0.1182
   76MOL   C31842468   5.892   6.499   4.109 -0.0058  0.0060 -0.0802
   76MOL   C31942469   5.888   6.462   3.965  0.2567 -0.2006 -0.6059
   76MOL   O32042470   5.954   6.554   3.894 -0.6588  1.1311 -0.1694
   76MOL   C32142471   5.981   6.535   3.756  0.0473  0.1229 -0.9826
   76MOL   C32242472   6.117   6.603   3.721 -0.6351 -0.1624  0.0317
   76MOL   O32342473   5.827   6.363   3.922  0.3221 -0.4218  0.0647
   76MOL   C32442474   5.810   6.427   4.196 -0.0808  0.0591  0.4016
   76MOL   C32542475   5.800   6.461   4.334 -0.0416 -0.4689  0.3781
   76MOL   C32642476   5.713   6.390   4.413  0.4509 -0.1669 -0.1797
   76MOL   C32742477   5.712   6.411   4.548  0.5749  0.6423 -0.0702
   76MOL   H32842478   5.951   6.660   4.566  0.2714  0.0323 -1.8499
   76MOL   H32942479   6.042   6.703   4.346  0.1330 -0.2863 -0.4431
   76MOL   H33042480   6.049   6.641   4.096 -0.7907  0.5604 -1.3012
   76MOL   H33142481   5.921   6.607   3.699  1.2698  2.4354  0.5681
   76MOL   H33242482   5.972   6.432   3.723  0.6544  0.4004 -2.0601
   76MOL   H33342483   6.141   6.602   3.615 -0.9630 -0.3752 -0.0436
   76MOL   H33442484   6.101   6.708   3.747 -1.0751 -0.1770 -0.1677
   76MOL   H33542485   5.753   6.339   4.170 -0.6831  0.8245 -0.9377
   76MOL   H33642486   5.649   6.315   4.369 -2.5290  0.5298  2.7027
   76MOL   H33742487   5.653   6.349   4.615 -0.9871  1.8238 -0.3206
   76MOL   O33842488   6.211   6.341   3.702  0.5256 -0.3439 -0.8878
   76MOL   C33942489   6.267   6.422   3.781  0.8281  0.0064 -0.2818
   76MOL   O34042490   6.225   6.556   3.797 -0.1392  0.2551 -0.5608
   76MOL   C34142491   6.376   6.385   3.876  0.3375  0.3617 -0.5727
   76MOL   C34242492   6.387   6.438   4.012 -0.0123  0.2191  0.7978
   76MOL   C34342493   6.479   6.382   4.101  0.3056  0.0805 -0.1271
   76MOL   C34442494   6.487   6.438   4.232  0.1465 -0.0211  0.1524
   76MOL   C34542495   6.562   6.365   4.326 -0.2517 -0.2833  0.6745
   76MOL   C34642496   6.650   6.259   4.291 -0.3626 -0.1401  0.3136
   76MOL   C34742497   6.730   6.193   4.396  0.6320 -0.6812 -0.4756
   76MOL   O34842498   6.678   6.226   4.519 -0.0344  0.2096 -0.2653
   76MOL   C34942499   6.717   6.151   4.635  0.1146  0.1483 -0.3170
   76MOL   C35042500   6.674   6.002   4.645  1.0217  0.1975 -0.0623
   76MOL   O35142501   6.819   6.106   4.376 -0.3714  0.0019  0.0010
   76MOL   C35242502   6.665   6.229   4.155 -0.1263 -0.3797  0.1637
   76MOL   C35342503   6.573   6.280   4.058  0.3137  0.7982 -0.4627
   76MOL   C35442504   6.568   6.244   3.922  1.0971 -0.2548 -1.0703
   76MOL   C35542505   6.468   6.286   3.834 -0.5256  0.0124  0.1886
   76MOL   H35642506   6.325   6.521   4.042  1.8709  2.0380 -0.2172
   76MOL   H35742507   6.424   6.520   4.261 -0.0566 -0.3647  0.6865
   76MOL   H35842508   6.558   6.410   4.424 -1.5006 -0.0413  0.5242
   76MOL   H35942509   6.683   6.209   4.721 -1.4816  1.3935 -1.7377
   76MOL   H36042510   6.825   6.153   4.645  0.1327 -2.1020  0.3760
   76MOL   H36142511   6.661   5.960   4.545  1.0198 -0.6450  0.2941
   76MOL   H36242512   6.741   5.945   4.709  0.2198 -1.5952 -0.7806
   76MOL   H36342513   6.728   6.146   4.130 -0.1913 -0.2157 -0.5389
   76MOL   H36442514   6.646   6.177   3.890 -0.8938 -3.5820  0.7678
   76MOL   H36542515   6.472   6.254   3.731 -1.7524  1.2237 -0.2453
   76MOL   O36642516   6.438   5.994   4.509  0.3105  0.2778  0.4591
   76MOL   C36742517   6.436   5.978   4.632  0.5549  0.1145 -0.0934
   76MOL   O36842518   6.543   5.992   4.706 -0.2688  0.3912  0.4519
   76MOL   C36942519   6.317   5.913   4.705 -0.3930 -0.2690  0.2918
   76MOL   C37042520   6.321   5.898   4.847  0.7678  0.2127 -0.8899
   76MOL   C37142521   6.210   5.847   4.923 -0.0620 -0.0870 -0.1712
   76MOL   C37242522   6.214   5.840   5.064  0.2345 -0.1415 -0.0985
   76MOL   C37342523   6.099   5.784   5.126 -0.3937  0.2388 -0.1134
   76MOL   C37442524   6.000   5.720   5.055 -0.0384  0.1565  0.0512
   76MOL   C37542525   5.903   5.624   5.123  1.0142  0.6500 -0.1380
   76MOL   O37642526   5.921   5.620   5.256  0.1935  0.6975 -0.1756
   76MOL   C37742527   5.813   5.572   5.339 -0.0025 -0.1398 -1.3448
   76MOL   C37842528   5.706   5.688   5.366  0.2982 -0.4326  0.2208
   76MOL   O37942529   5.809   5.571   5.064  0.3347  0.0656  0.4793
   76MOL   C38042530   5.994   5.734   4.917  0.5674 -0.6575  0.4933
   76MOL   C38142531   6.098   5.800   4.847 -0.2695 -0.2110  0.0052
   76MOL   C38242532   6.095   5.808   4.706  0.6036  0.0978  1.1553
   76MOL   C38342533   6.201   5.868   4.639  0.4245 -0.7975  0.2934
   76MOL   H38442534   6.406   5.928   4.906 -1.4919  1.5797  1.7547
   76MOL   H38542535   6.294   5.878   5.126  0.9708 -2.4121  0.3947
   76MOL   H38642536   6.100   5.779   5.234  1.5292  1.2609 -0.0665
   76MOL   H38742537   5.851   5.550   5.439 -0.0250  1.0829 -1.0482
   76MOL   H38842538   5.755   5.487   5.305 -2.5044  0.1148  1.9902
   76MOL   H38942539   5.748   5.787   5.353 -2.4275  0.6786 -0.4477
   76MOL   H39042540   5.623   5.689   5.295 -0.0959  0.6525  0.7014
   76MOL   H39142541   5.916   5.678   4.867  1.6756 -2.4477  0.7294
   76MOL   H39242542   6.004   5.779   4.657  0.2256  3.1476 -0.0267
   76MOL   H39342543   6.187   5.878   4.532  0.6594  1.7572  0.4722
   76MOL   O39442544   5.842   5.737   5.617  1.1541  0.2627 -0.0276
   76MOL   C39542545   5.722   5.699   5.614  0.0289 -0.4462  0.6019
   76MOL   O39642546   5.659   5.666   5.495  0.6142 -0.8219  0.5301
   76MOL   C39742547   5.637   5.680   5.732  0.1983  0.2855 -0.0738
   76MOL   C39842548   5.502   5.640   5.728  0.2894 -0.5200 -0.0289
   76MOL   C39942549   5.428   5.612   5.847 -0.1598  0.2226  0.1985
   76MOL   C40042550   5.290   5.570   5.851  0.5630  0.2383  0.2172
   76MOL   C40142551   5.223   5.534   5.974 -0.3981 -0.1240  0.3895
   76MOL   C40242552   5.289   5.557   6.096  0.2891 -0.3264  0.4094
   76MOL   C40342553   5.223   5.528   6.223  0.2001 -0.4662 -0.6057
   76MOL   O40442554   5.105   5.467   6.211 -0.3323  1.0008 -0.1137
   76MOL   C40542555   5.030   5.435   6.327 -0.1570  0.1372 -0.6715
   76MOL   C40642556   5.051   5.283   6.368  0.5970 -0.5039  0.2068
   76MOL   O40742557   5.269   5.564   6.329  0.1636  0.4602  0.3087
   76MOL   C40842558   5.418   5.608   6.097 -0.0446 -0.1697 -0.2761
   76MOL   C40942559   5.493   5.627   5.970  0.2423  0.3217  0.2274
   76MOL   C41042560   5.624   5.676   5.977  0.0260  1.0036  0.0671
   76MOL   C41142561   5.695   5.705   5.857 -0.0106 -0.6219  0.1100
   76MOL   H41242562   5.453   5.619   5.634  0.0131  0.2929 -0.0736
   76MOL   H41342563   5.239   5.551   5.758 -1.0949 -3.3620  1.7999
   76MOL   H41442564   5.124   5.491   5.965 -0.6157  0.6144 -0.9578
   76MOL   H41542565   4.924   5.458   6.313 -1.0716 -0.9593  3.5876
   76MOL   H41642566   5.053   5.497   6.414  2.5679  0.5679 -1.6596
   76MOL   H41742567   4.986   5.261   6.453 -0.7606  0.0495 -0.6764
   76MOL   H41842568   5.011   5.224   6.286 -0.5990 -1.7777  1.6511
   76MOL   H41942569   5.481   5.630   6.182  0.8282  0.3954 -1.0577
   76MOL   H42042570   5.682   5.688   6.066  0.9703 -2.2122 -0.0421
   76MOL   H42142571   5.798   5.736   5.862 -0.7203  1.6139  1.6717
   76MOL   O42242572   5.191   5.351   6.618  0.0685  0.4691 -0.5045
   76MOL   C42342573   5.248   5.311   6.517  0.3257  0.0068 -0.7151
   76MOL   O42442574   5.188   5.257   6.405 -0.2205 -0.1317  0.1490
   76MOL   C42542575   5.390   5.332   6.497 -0.0295  0.4037  0.0931
   76MOL   C42642576   5.464   5.414   6.584  0.2943 -0.2999  0.4425
   76MOL   C42742577   5.597   5.454   6.539  0.6112 -0.3248 -0.5354
   76MOL   C42842578   5.674   5.546   6.620 -0.2217  0.9541 -0.4239
   76MOL   C42942579   5.796   5.598   6.574 -0.2144  0.2425  0.8804
   76MOL   C43042580   5.855   5.544   6.457  0.0886  0.6376  0.3428
   76MOL   C43142581   5.985   5.601   6.400  0.6643 -0.3746  0.3496
   76MOL   O43242582   6.008   5.542   6.271  0.2181 -0.3639 -0.4132
   76MOL   C43342583   6.118   5.598   6.196 -0.4520  0.4666  0.1554
   76MOL   C43442584   6.081   5.732   6.138  0.9534  0.5223 -0.5846
   76MOL   O43542585   6.071   5.671   6.464  0.0743  0.5337  0.1535
   76MOL   C43642586   5.783   5.445   6.383  0.0242  0.0509 -0.4184
   76MOL   C43742587   5.654   5.403   6.420  0.7313 -0.1614 -0.2984
   76MOL   C43842588   5.586   5.302   6.350  0.9019 -0.0122  0.2428
   76MOL   C43942589   5.451   5.277   6.377 -0.4308  0.7752 -0.2990
   76MOL   H44042590   5.423   5.454   6.676  2.7481  0.1467  1.3812
   76MOL   H44142591   5.637   5.590   6.711  1.1367  1.3387 -0.0426
   76MOL   H44242592   5.845   5.670   6.638 -2.1500  2.2619  0.1327
   76MOL   H44342593   6.138   5.520   6.123 -1.5974  0.3223 -0.0155
   76MOL   H44442594   6.212   5.597   6.251 -0.4675  1.1887  0.1976
   76MOL   H44542595   5.987   5.708   6.088  0.9384  0.3241 -0.4601
   76MOL   H44642596   6.064   5.806   6.217  1.7780 -1.5363  1.5726
   76MOL   H44742597   5.831   5.403   6.295 -0.7478 -1.4575 -0.1435
   76MOL   H44842598   5.633   5.249   6.269  0.3732 -0.1462  0.0244
   76MOL   H44942599   5.392   5.219   6.306 -0.4022  2.5834 -1.8332
   76MOL   O45042600   6.073   5.639   5.883  0.0122  0.3081  0.0774
   76MOL   C45142601   6.156   5.725   5.912 -0.7158  0.1230 -0.9423
   76MOL   O45242602   6.159   5.779   6.036  0.3717  0.2536 -0.0395
   76MOL   C45342603   6.256   5.782   5.823  0.4951  0.3773 -0.2765
   76MOL   C45442604   6.260   5.732   5.689 -0.4970 -0.2745 -0.5857
   76MOL   C45542605   6.348   5.784   5.594 -1.0852 -0.4013  0.2158
   76MOL   C45642606   6.360   5.722   5.469  0.4600 -0.1652  0.0459
   76MOL   C45742607   6.453   5.777   5.375  0.0088  0.0388  0.0698
   76MOL   C45842608   6.544   5.883   5.416 -0.4637 -0.0814 -0.5075
   76MOL   C45942609   6.647   5.935   5.322 -0.3351  0.1834 -0.2006
   76MOL   O46042610   6.615   5.907   5.193 -0.1839 -0.2386 -0.1072
   76MOL   C46142611   6.702   5.942   5.076  0.1127 -0.2471  0.1802
   76MOL   C46242612   6.678   6.085   5.020 -0.1971  0.6563  0.6976
   76MOL   O46342613   6.745   6.006   5.355  0.2211 -0.0074  0.4741
   76MOL   C46442614   6.527   5.941   5.545 -0.1429  0.4482 -0.1844
   76MOL   C46542615   6.430   5.894   5.629 -0.7006 -0.0358 -0.1710
   76MOL   C46642616   6.423   5.940   5.762  0.4327 -0.6290 -0.5987
   76MOL   C46742617   6.337   5.887   5.861  0.0951 -0.6112 -0.1951
   76MOL   H46842618   6.203   5.642   5.670 -1.6673  0.7598 -2.1048
   76MOL   H46942619   6.305   5.632   5.445  0.7128 -0.8737  2.0083
   76MOL   H47042620   6.464   5.733   5.277  0.1892  1.3991 -0.5403
   76MOL   H47142621   6.686   5.872   4.994 -0.7736  0.3328 -0.1504
   76MOL   H47242622   6.807   5.944   5.103  0.3646  0.8625 -0.8516
   76MOL   H47342623   6.742   6.089   4.932  1.9253  1.3056  2.2153
   76MOL   H47442624   6.573   6.100   4.994 -0.3635 -1.4940  0.0693
   76MOL   H47542625   6.605   6.008   5.576  1.7182 -2.2800  1.1541
   76MOL   H47642626   6.491   6.016   5.796 -0.2906  0.2290 -1.0484
   76MOL   H47742627   6.353   5.910   5.966 -0.0947 -0.3566 -0.2219
   76MOL   O47842628   6.716   6.350   4.963 -0.3798 -0.1532  0.2925
   76MOL   C47942629   6.747   6.308   5.074  0.1004  0.0508  0.7455
   76MOL   O48042630   6.735   6.182   5.108  0.2925 -0.3144  0.3260
   76MOL   C48142631   6.814   6.387   5.181 -0.3832 -0.4666 -0.0708
   76MOL   C48242632   6.810   6.349   5.318  0.3413 -0.0075 -0.6950
   76MOL   C48342633   6.866   6.440   5.411  0.1145 -0.2750 -0.7174
   76MOL   C48442634   6.871   6.408   5.547  0.0658 -0.4605  0.2049
   76MOL   C48542635   6.903   6.513   5.645  0.1669  0.7166  0.2936
   76MOL   C48642636   6.944   6.637   5.603 -0.9208 -0.0359 -0.2010
   76MOL   C48742637   6.991   6.735   5.699  0.3772  0.5073  0.1945
   76MOL   O48842638   6.958   6.699   5.825 -0.3123 -0.3945 -0.4403
   76MOL   C48942639   6.975   6.790   5.927 -0.7694  0.3856 -0.5474
   76MOL   C49042640   7.073   6.750   6.036  0.2442 -0.0666  0.2177
   76MOL   O49142641   7.053   6.835   5.672 -0.2450 -0.0338  0.4160
   76MOL   C49242642   6.961   6.658   5.460  0.6385  0.6375  0.4921
   76MOL   C49342643   6.913   6.563   5.366  0.4564  0.0361  0.6606
   76MOL   C49442644   6.920   6.599   5.229 -0.7474 -0.3221  0.0866
   76MOL   C49542645   6.873   6.507   5.139 -0.0156  0.0965 -0.0548
   76MOL   H49642646   6.777   6.249   5.342  1.8327 -0.0978  1.0464
   76MOL   H49742647   6.839   6.311   5.583  2.0219 -0.8716  0.8928
   76MOL   H49842648   6.911   6.486   5.749  0.9552 -0.9101 -0.1654
   76MOL   H49942649   6.878   6.804   5.974 -0.2191  1.4117  0.3173
   76MOL   H50042650   7.010   6.886   5.889  3.3083 -1.2505 -1.2138
   76MOL   H50142651   7.038   6.790   6.131  0.4966  0.2700  0.1695
   76MOL   H50242652   7.093   6.644   6.045 -1.0030 -0.2278  1.2456
   76MOL   H50342653   7.013   6.745   5.423 -2.6559  1.2116 -2.9864
   76MOL   H50442654   6.952   6.698   5.200 -3.7766  0.0764 -2.1765
   76MOL   H50542655   6.879   6.537   5.036 -0.7596  0.9254  0.1357
   76MOL   O50642656   7.294   6.679   6.184  0.5678 -0.1822  0.4030
   76MOL   C50742657   7.302   6.764   6.099  0.5519  0.6139 -0.8542
   76MOL   O50842658   7.201   6.810   6.025 -1.0888 -0.8014 -0.5139
   76MOL   C50942659   7.425   6.835   6.073  0.1474 -0.5050 -0.0324
   76MOL   C51042660   7.436   6.942   5.983 -0.2728 -0.6068  0.0075
   76MOL   C51142661   7.556   7.012   5.966 -0.8086 -0.1448  0.2246
   76MOL   C51242662   7.553   7.121   5.880  0.0586 -0.7212  1.2504
   76MOL   C51342663   7.673   7.191   5.863  0.7060 -0.3528  0.4847
   76MOL   C51442664   7.792   7.150   5.928 -0.9092 -0.1259  0.0959
   76MOL   C51542665   7.912   7.231   5.896  0.0295  0.1243  0.2772
   76MOL   O51642666   8.018   7.188   5.971  0.0577 -0.3185  0.4712
   76MOL   C51742667   8.129   7.274   5.973 -0.0616  0.4519 -0.4849
   76MOL   C51842668   8.222   7.237   5.863  0.1891 -0.2272 -0.1217
   76MOL   O51942669   7.909   7.324   5.819  0.5971 -0.5683 -0.3994
   76MOL   C52042670   7.791   7.042   6.015 -1.0976 -0.4587  0.0751
   76MOL   C52142671   7.670   6.976   6.038  0.0142 -0.2465 -0.2758
   76MOL   C52242672   7.667   6.870   6.130  0.3665 -0.5893 -0.4057
   76MOL   C52342673   7.548   6.794   6.141  0.7579  0.4627  0.1983
   76MOL   H52442674   7.355   6.983   5.925 -0.0886  1.3445  1.0983
   76MOL   H52542675   7.463   7.137   5.823  1.9635  0.8313 -1.3796
   76MOL   H52642676   7.678   7.275   5.795 -0.7377  1.8504  3.0006
   76MOL   H52742677   8.173   7.264   6.072  1.8680 -2.4029 -1.5336
   76MOL   H52842678   8.105   7.380   5.968  0.8776  0.6295 -1.5953
   76MOL   H52942679   0.037   7.154   5.895  0.5473 -0.4170 -1.3072
   76MOL   H53042680   8.165   7.209   5.775 -0.4728  0.9721 -0.0685
   76MOL   H53142681   7.882   7.010   6.065 -0.5488 -0.1800 -0.7308
   76MOL   H53242682   7.746   6.856   6.203 -0.7800  2.7037  1.5634
   76MOL   H53342683   7.547   6.708   6.207  0.2152  0.9655  0.8476
   76MOL   O53442684   8.190   7.443   5.678  0.0086  0.1938 -0.4704
   76MOL   C53542685   0.045   7.434   5.740 -0.1743 -0.5596 -0.0194
   76MOL   O53642686   0.060   7.348   5.841 -0.2103  0.1604 -0.4453
   76MOL   C53742687   0.151   7.538   5.733  0.4291  0.2202  0.1008
   76MOL   C53842688   0.153   7.627   5.626 -0.4134 -0.0930  0.2395
   76MOL   C53942689   0.247   7.730   5.613  0.0413 -0.0343 -0.0942
   76MOL   C54042690   0.243   7.825   5.504  0.1172 -0.2966 -0.3904
   76MOL   C54142691   0.351   7.907   5.476  0.1231  0.2670  0.0788
   76MOL   C54242692   0.454   7.917   5.571 -0.0657  0.2333 -0.2167
   76MOL   C54342693   0.564   8.012   5.543 -0.4361 -0.2166 -0.0615
   76MOL   O54442694   0.666   7.998   5.631 -0.5349 -0.0172 -0.1822
   76MOL   C54542695   0.784   8.082   5.639  0.6085  0.0722 -0.2463
   76MOL   C54642696   0.758   8.221   5.687  0.4749 -0.0198  0.0068
   76MOL   O54742697   0.559   8.096   5.453  0.4366 -0.2909  0.0940
   76MOL   C54842698   0.453   7.838   5.687 -0.6468 -0.6200  0.0613
   76MOL   C54942699   0.349   7.740   5.709  0.7120  0.3076  0.9597
   76MOL   C55042700   0.364   7.643   5.809  0.2963  0.5741 -0.6208
   76MOL   C55142701   0.255   7.547   5.825 -0.1927  0.8047 -0.1902
   76MOL   H55242702   0.076   7.620   5.550  0.9666  0.4063 -1.2459
   76MOL   H55342703   0.169   7.811   5.426 -0.1212 -0.3341 -0.1592
   76MOL   H55442704   0.351   7.955   5.379 -1.6624  0.0152 -0.0589
   76MOL   H55542705   0.835   8.078   5.543 -0.4234  1.2993 -0.8585
   76MOL   H55642706   0.847   8.033   5.713 -0.5775 -3.0966 -1.2590
   76MOL   H55742707   0.840   0.033   5.726 -0.0329  0.0280  1.0136
   76MOL   H55842708   0.686   8.225   5.768  0.7471 -3.4451  0.5107
   76MOL   H55942709   0.538   7.844   5.754  0.8241 -0.3395 -1.7836
   76MOL   H56042710   0.449   7.636   5.875  1.7145  1.3971 -2.3199
   76MOL   H56142711   0.269   7.479   5.908 -1.5473  1.8407  0.9073
   76MOL   H56242712   0.701   0.031   5.615 -1.1070  0.2320  1.4446
   77MOL     O142713   2.633   2.060   1.148  0.7666 -0.0206 -0.0771
   77MOL     C242714   2.574   2.148   1.094  0.3351  0.0759 -0.0491
   77MOL     O342715   2.523   2.131   0.971  0.6858  0.2586  0.4316
   77MOL     C442716   2.561   2.285   1.152  0.5230 -0.0567 -0.2098
   77MOL     C542717   2.611   2.313   1.280  0.1554 -0.6493 -1.0085
   77MOL     C642718   2.604   2.448   1.324  0.0517 -0.1694 -0.2425
   77MOL     C742719   2.651   2.486   1.453 -0.0523 -0.6036  0.4921
   77MOL     C842720   2.637   2.621   1.492 -0.2052  0.3960 -0.7895
   77MOL     C942721   2.581   2.715   1.406 -0.5817  0.0979  0.0039
   77MOL    C1042722   2.602   2.858   1.460 -0.1588  0.2481  0.1224
   77MOL    O1142723   2.537   2.948   1.376 -0.4496  0.2522  0.0007
   77MOL    C1242724   2.540   3.084   1.402  0.0822  0.0782 -0.1213
   77MOL    C1342725   2.662   3.145   1.340 -0.2326 -0.2385 -1.0323
   77MOL    O1442726   2.674   2.892   1.546  0.2601 -0.0700 -0.1370
   77MOL    C1542727   2.519   2.684   1.287 -0.3409  0.1203 -0.6092
   77MOL    C1642728   2.532   2.549   1.245 -0.4401  0.0416  0.0621
   77MOL    C1742729   2.477   2.513   1.123 -0.0624 -0.0399  0.2697
   77MOL    C1842730   2.495   2.382   1.074 -0.1754  0.2262 -0.4672
   77MOL    H1942731   2.663   2.243   1.344  0.9977  1.4037  0.5844
   77MOL    H2042732   2.697   2.410   1.514  1.1956  0.0414  0.3878
   77MOL    H2142733   2.667   2.651   1.592 -1.2943 -1.6190  0.1997
   77MOL    H2242734   2.455   3.124   1.348  0.3591  0.6674 -0.1228
   77MOL    H2342735   2.533   3.102   1.509  2.1926  1.5170 -0.1880
   77MOL    H2442736   2.645   3.251   1.322 -0.8101 -0.2492 -0.5849
   77MOL    H2542737   2.751   3.130   1.402 -1.1916 -0.2791  0.3593
   77MOL    H2642738   2.479   2.761   1.222 -0.1754 -0.0524 -0.9180
   77MOL    H2742739   2.414   2.572   1.059 -1.2280 -0.8828  0.6264
   77MOL    H2842740   2.450   2.356   0.979 -0.1235  1.5069 -0.8590
   77MOL    H2942741   2.507   2.043   0.941 -0.0354  1.1227 -1.8262
   77MOL    O3042742   2.827   3.248   1.121  0.3544  0.2848  0.1320
   77MOL    C3142743   2.771   3.139   1.118  0.4088  0.1643 -0.2768
   77MOL    O3242744   2.690   3.089   1.214  0.2123 -0.0876 -0.4967
   77MOL    C3342745   2.799   3.038   1.007 -0.3659 -0.6215 -0.1801
   77MOL    C3442746   2.761   2.907   1.018 -0.1357 -0.1660  0.1761
   77MOL    C3542747   2.800   2.811   0.915  0.3099 -0.4417  0.3812
   77MOL    C3642748   2.784   2.673   0.943  0.1650 -0.7343 -0.7892
   77MOL    C3742749   2.826   2.578   0.851  0.1694  0.5358 -0.3159
   77MOL    C3842750   2.895   2.617   0.732  0.3687 -0.5147  0.9883
   77MOL    C3942751   2.950   2.513   0.639  0.4065 -0.6636 -0.0300
   77MOL    O4042752   3.039   2.570   0.549  0.4797  0.0534  0.1216
   77MOL    C4142753   3.132   2.487   0.478  0.6681 -0.4700 -0.0636
   77MOL    C4242754   3.229   2.420   0.570  0.6637  0.4069  0.5404
   77MOL    O4342755   2.920   2.396   0.643  0.1296  0.4737 -0.6823
   77MOL    C4442756   2.913   2.759   0.709  0.1284 -0.3554  0.8154
   77MOL    C4542757   2.879   2.855   0.800  0.3888  0.5843 -0.4310
   77MOL    C4642758   2.922   2.990   0.797  0.6394  0.4401  0.3077
   77MOL    C4742759   2.879   3.078   0.893  0.1275 -0.5289 -0.3897
   77MOL    H4842760   2.703   2.875   1.103 -3.0246 -1.3940 -2.1530
   77MOL    H4942761   2.750   2.636   1.039  1.3423  1.5933  0.5745
   77MOL    H5042762   2.812   2.474   0.876 -1.6288  0.9945  0.6745
   77MOL    H5142763   3.194   2.543   0.408  0.6435 -3.3905 -2.5359
   77MOL    H5242764   3.076   2.418   0.414  3.0534  0.1819 -2.9770
   77MOL    H5342765   3.329   2.458   0.548  0.2785  2.2446  1.8050
   77MOL    H5442766   3.206   2.455   0.671  0.0494 -0.8754  0.8484
   77MOL    H5542767   2.960   2.790   0.617  1.9448 -1.9215  1.1824
   77MOL    H5642768   2.958   3.036   0.706  1.3771  0.0166  0.3871
   77MOL    H5742769   2.909   3.181   0.882 -1.0314 -0.1456  0.0390
   77MOL    O5842770   3.368   2.215   0.705 -0.0234 -0.0285 -0.3261
   77MOL    C5942771   3.282   2.185   0.621  0.0341 -0.0200 -0.4116
   77MOL    O6042772   3.215   2.279   0.554  0.7996 -0.2987 -0.0566
   77MOL    C6142773   3.259   2.047   0.576  0.5449 -0.5993  0.3841
   77MOL    C6242774   3.141   2.011   0.502 -0.7824 -0.1176  0.5552
   77MOL    C6342775   3.138   1.872   0.454 -0.2763 -0.0330  0.5681
   77MOL    C6442776   3.038   1.832   0.357 -0.0601 -0.3092  0.1054
   77MOL    C6542777   3.025   1.700   0.321 -0.0329  0.7672 -0.0923
   77MOL    C6642778   3.117   1.601   0.362 -0.3361 -0.1299 -0.7979
   77MOL    C6742779   3.095   1.455   0.325  0.0275  0.4085 -0.2044
   77MOL    O6842780   3.199   1.374   0.371 -0.8620 -0.0525  0.2809
   77MOL    C6942781   3.180   1.237   0.349  0.4735  0.0794 -0.8894
   77MOL    C7042782   3.297   1.158   0.417 -0.8306  0.6340 -1.4959
   77MOL    O7142783   3.003   1.413   0.259 -0.4918  0.4774  0.2619
   77MOL    C7242784   3.223   1.643   0.443  0.6744 -0.5657 -0.0145
   77MOL    C7342785   3.232   1.771   0.491  0.8581 -0.2311 -0.3283
   77MOL    C7442786   3.333   1.808   0.582 -0.2152 -0.1739  0.3526
   77MOL    C7542787   3.347   1.946   0.617  0.4057 -0.2086 -0.1631
   77MOL    H7642788   3.061   2.078   0.474 -1.8775 -0.5490  2.4991
   77MOL    H7742789   2.974   1.909   0.317  1.3730  0.3213 -1.0029
   77MOL    H7842790   2.946   1.657   0.262 -0.1314 -1.1880  1.4019
   77MOL    H7942791   3.173   1.217   0.242  0.4253  0.0755 -0.8857
   77MOL    H8042792   3.083   1.219   0.394 -0.5324 -0.1268 -3.0575
   77MOL    H8142793   3.292   1.050   0.404 -2.4226  0.4598  0.3038
   77MOL    H8242794   3.394   1.174   0.370 -0.2662 -0.2736 -0.6449
   77MOL    H8342795   3.293   1.568   0.478  2.5311  1.3460  0.4945
   77MOL    H8442796   3.407   1.736   0.612  1.2398  1.2182  0.1651
   77MOL    H8542797   3.430   1.973   0.681  0.4502 -0.6980 -0.0081
   77MOL    O8642798   3.338   1.012   0.660  0.2130  0.2037  0.6582
   77MOL    C8742799   3.302   1.130   0.657  0.0956 -0.0859 -0.6114
   77MOL    O8842800   3.281   1.208   0.551  0.7401 -0.2457  0.8106
   77MOL    C8942801   3.282   1.206   0.781 -0.9762  0.1267 -0.4789
   77MOL    C9042802   3.264   1.134   0.901 -0.5627  0.3035 -0.6524
   77MOL    C9142803   3.243   1.201   1.025 -0.2043  0.2504  0.8196
   77MOL    C9242804   3.217   1.128   1.141 -0.7371 -0.1769  1.1502
   77MOL    C9342805   3.194   1.203   1.259  0.6869 -0.1847 -0.1067
   77MOL    C9442806   3.198   1.346   1.263 -1.2793 -0.4065 -0.0859
   77MOL    C9542807   3.180   1.429   1.382  0.2537 -0.4255  0.2146
   77MOL    O9642808   3.208   1.363   1.498  0.1085 -0.4615  0.2572
   77MOL    C9742809   3.212   1.434   1.623  0.0990 -0.0525  0.8664
   77MOL    C9842810   3.084   1.482   1.676  0.3027 -0.1122 -0.2147
   77MOL    O9942811   3.156   1.551   1.383 -0.1028  0.2354  0.0628
   77MOL   C10042812   3.223   1.407   1.144  0.1223  0.3221 -0.4601
   77MOL   C10142813   3.243   1.341   1.025  0.1261  0.6957  0.3745
   77MOL   C10242814   3.267   1.410   0.908  0.6121 -0.1838  0.7776
   77MOL   C10342815   3.278   1.348   0.784 -0.3931  1.1498 -0.6730
   77MOL   H10442816   3.267   1.026   0.906  2.7088  0.3948  0.6131
   77MOL   H10542817   3.203   1.021   1.137  0.5618 -0.3639  1.0965
   77MOL   H10642818   3.167   1.150   1.349  3.6138 -2.2314 -0.3570
   77MOL   H10742819   3.276   1.520   1.602  0.6840 -1.0304 -1.5104
   77MOL   H10842820   3.265   1.377   1.699 -1.7367 -1.8412  0.8347
   77MOL   H10942821   3.091   1.567   1.743 -1.3349 -0.3334  0.2480
   77MOL   H11042822   3.026   1.525   1.594 -0.5062 -0.1311  0.3495
   77MOL   H11142823   3.228   1.515   1.149 -1.0722  0.3857 -0.6537
   77MOL   H11242824   3.271   1.518   0.910  1.7957 -0.2343  2.2942
   77MOL   H11342825   3.292   1.414   0.700  3.2757  1.5618  0.1638
   77MOL   O11442826   3.036   1.428   1.948 -0.2472 -0.9953  0.3884
   77MOL   C11542827   2.988   1.363   1.856  0.3004 -0.8193  0.0824
   77MOL   O11642828   3.004   1.378   1.726 -0.4713  0.2244  0.0468
   77MOL   C11742829   2.891   1.251   1.883  0.3379 -0.1382  0.1852
   77MOL   C11842830   2.853   1.231   2.018 -0.8495 -0.9273  0.1244
   77MOL   C11942831   2.751   1.147   2.051  0.2621 -0.0414 -0.1644
   77MOL   C12042832   2.706   1.132   2.184 -0.2092 -0.2607  0.5708
   77MOL   C12142833   2.583   1.070   2.210  0.2237  0.4931 -0.0149
   77MOL   C12242834   2.524   0.996   2.105 -0.6598 -0.2229  0.3086
   77MOL   C12342835   2.406   0.911   2.119 -0.2943  0.6642  0.3662
   77MOL   O12442836   2.355   0.931   2.244  0.2653  0.1798 -0.0114
   77MOL   C12542837   2.220   0.881   2.270  0.5507 -0.2071 -0.1668
   77MOL   C12642838   2.142   0.968   2.369 -0.2873 -0.3246 -0.5683
   77MOL   O12742839   2.361   0.834   2.030  0.1384  0.0978 -0.1267
   77MOL   C12842840   2.572   1.010   1.971  0.8494 -0.0690 -0.3966
   77MOL   C12942841   2.682   1.084   1.945 -0.4464  0.9544  0.4272
   77MOL   C13042842   2.723   1.096   1.809 -0.2980  0.1951 -0.1262
   77MOL   C13142843   2.836   1.173   1.783 -0.1189 -0.3292 -0.2062
   77MOL   H13242844   2.900   1.289   2.096 -2.2506  1.2553 -0.5782
   77MOL   H13342845   2.758   1.171   2.270  2.5836  0.0426 -1.2140
   77MOL   H13442846   2.541   1.061   2.310 -0.9704 -0.6298 -0.6051
   77MOL   H13542847   2.231   0.785   2.320 -0.0113  0.1379  0.6274
   77MOL   H13642848   2.173   0.849   2.177 -0.4998  0.4936  0.1258
   77MOL   H13742849   2.081   0.913   2.440  1.1419  1.5102  2.1844
   77MOL   H13842850   2.217   1.018   2.431 -0.0339  1.0598 -1.9642
   77MOL   H13942851   2.521   0.961   1.890  2.1067  0.3587 -1.4507
   77MOL   H14042852   2.675   1.042   1.728  1.5935  0.7663 -1.6869
   77MOL   H14142853   2.866   1.179   1.680 -0.2802 -0.9454 -0.2907
   77MOL   O14242854   1.946   1.108   2.486 -0.5399 -0.1675 -0.0810
   77MOL   C14342855   1.972   1.140   2.373 -0.2800  0.1424 -0.2750
   77MOL   O14442856   2.070   1.075   2.302  0.0191 -0.1156 -0.0996
   77MOL   C14542857   1.922   1.268   2.307 -0.4308  0.1175  0.3942
   77MOL   C14642858   1.965   1.300   2.173  0.3525  0.2521 -0.0163
   77MOL   C14742859   1.913   1.416   2.115 -0.3779  0.4717 -0.0090
   77MOL   C14842860   1.957   1.455   1.988  0.3393 -0.1816  1.0006
   77MOL   C14942861   1.894   1.565   1.925 -0.6611  0.0223  0.1674
   77MOL   C15042862   1.796   1.645   1.989 -0.1574 -0.1821  0.5465
   77MOL   C15142863   1.733   1.762   1.932  0.9861  1.0296 -0.3242
   77MOL   O15242864   1.745   1.764   1.805  0.2119 -0.5748 -0.1864
   77MOL   C15342865   1.718   1.883   1.741  0.2843  0.4959  0.2819
   77MOL   C15442866   1.842   1.975   1.727 -0.5865 -0.2465 -0.2561
   77MOL   O15542867   1.682   1.855   2.002  0.3662  0.1344 -0.1242
   77MOL   C15642868   1.763   1.612   2.124 -0.0691  0.4751 -0.2796
   77MOL   C15742869   1.817   1.496   2.181 -0.2208  0.1882  0.2526
   77MOL   C15842870   1.766   1.456   2.304  0.3219  0.4258 -0.0772
   77MOL   C15942871   1.826   1.349   2.372  0.1075 -0.1724  0.0518
   77MOL   H16042872   2.042   1.240   2.128  1.2473  1.1936  0.2302
   77MOL   H16142873   2.028   1.396   1.932 -1.2620 -0.3432 -0.8927
   77MOL   H16242874   1.923   1.583   1.823  1.5745 -2.8832  0.2372
   77MOL   H16342875   1.639   1.937   1.793  0.1745  1.1287 -0.5328
   77MOL   H16442876   1.671   1.871   1.644  1.3412  0.1046 -0.1875
   77MOL   H16542877   1.931   1.913   1.728 -0.3286  0.1264  2.2530
   77MOL   H16642878   1.841   2.016   1.626 -0.7329 -0.1649 -0.2219
   77MOL   H16742879   1.674   1.657   2.166  1.5284  2.6275  0.9422
   77MOL   H16842880   1.686   1.502   2.361  0.3694  0.1483  0.2150
   77MOL   H16942881   1.780   1.317   2.464 -0.5878 -0.0938 -0.2669
   77MOL   O17042882   2.004   1.998   1.942  0.0145 -0.1339 -0.2252
   77MOL   C17142883   1.920   2.086   1.922 -0.0124  0.8283  0.8292
   77MOL   O17242884   1.836   2.089   1.812  0.3306 -0.0294 -0.1224
   77MOL   C17342885   1.894   2.201   2.003  0.1089  0.1158 -0.3617
   77MOL   C17442886   1.996   2.241   2.085  0.2136  0.3757  1.2662
   77MOL   C17542887   1.974   2.339   2.183 -0.6802 -0.6098 -1.1314
   77MOL   C17642888   2.091   2.375   2.260  0.1348  0.0645  0.6633
   77MOL   C17742889   2.079   2.485   2.342  0.8365  0.2136  0.2314
   77MOL   C17842890   1.955   2.551   2.360 -0.1310  0.9509  0.0846
   77MOL   C17942891   1.930   2.655   2.463  0.0659 -0.5917 -0.9311
   77MOL   O18042892   2.028   2.664   2.550  0.4793  0.5681 -0.3907
   77MOL   C18142893   2.032   2.753   2.659 -0.0237  0.3320 -0.5142
   77MOL   C18242894   2.086   2.882   2.606  0.3890  0.0944  0.5646
   77MOL   O18342895   1.834   2.726   2.477 -0.0462  0.0522  0.0112
   77MOL   C18442896   1.841   2.506   2.289 -0.4324 -0.2585  0.7988
   77MOL   C18542897   1.848   2.398   2.197 -0.4887 -0.0360  0.1301
   77MOL   C18642898   1.747   2.361   2.103  0.0229  0.3902  0.4503
   77MOL   C18742899   1.766   2.261   2.010  0.6591  0.2631 -0.0166
   77MOL   H18842900   2.093   2.195   2.083 -1.3325 -2.9822 -1.7713
   77MOL   H18942901   2.185   2.325   2.242  0.2800 -0.1142  1.9094
   77MOL   H19042902   2.168   2.523   2.390 -0.3962  0.2300  2.5873
   77MOL   H19142903   2.097   2.709   2.734 -0.5209 -0.8522 -0.7687
   77MOL   H19242904   1.933   2.771   2.702  1.3413  1.3232  2.3252
   77MOL   H19342905   2.037   2.910   2.513 -1.9290 -2.0945  1.0537
   77MOL   H19442906   2.063   2.971   2.665  0.4223  0.0513  0.6419
   77MOL   H19542907   1.745   2.554   2.299  0.0727  1.5183 -2.3894
   77MOL   H19642908   1.655   2.416   2.087 -0.8281 -1.5998 -1.7154
   77MOL   H19742909   1.694   2.231   1.935  0.7470  1.3529 -0.5580
   77MOL   O19842910   2.285   2.890   2.785 -0.4575 -0.2227  0.1732
   77MOL   C19942911   2.316   2.866   2.667 -0.0216 -0.1502 -0.3111
   77MOL   O20042912   2.223   2.862   2.573  0.4816 -0.0038 -0.2023
   77MOL   C20142913   2.451   2.819   2.620 -0.2138 -0.0851  0.2502
   77MOL   C20242914   2.561   2.803   2.711 -0.3113 -0.0882 -0.4935
   77MOL   C20342915   2.682   2.758   2.660  0.6994  0.6375 -0.6303
   77MOL   C20442916   2.784   2.730   2.751 -0.0507 -0.2312  0.4091
   77MOL   C20542917   2.903   2.678   2.701  0.5402  0.4645  0.8535
   77MOL   C20642918   2.922   2.660   2.565 -0.4925  0.3623  0.7030
   77MOL   C20742919   3.053   2.591   2.530  0.2673 -0.0047  0.4142
   77MOL   O20842920   3.088   2.599   2.398 -0.4256  0.7078 -0.2989
   77MOL   C20942921   3.172   2.501   2.341  0.0695 -0.3605  0.7153
   77MOL   C21042922   3.317   2.554   2.327  0.3667 -0.6384 -0.7758
   77MOL   O21142923   3.109   2.512   2.601  0.4146 -0.2865  0.4055
   77MOL   C21242924   2.824   2.699   2.470 -0.1111  0.2387 -0.4833
   77MOL   C21342925   2.699   2.737   2.522  0.0368 -0.8613 -0.0287
   77MOL   C21442926   2.590   2.745   2.432  0.2759 -0.0370  0.4592
   77MOL   C21542927   2.467   2.788   2.481  0.5332  0.2506  0.3628
   77MOL   H21642928   2.538   2.808   2.816  1.0230 -2.3380 -0.0689
   77MOL   H21742929   2.782   2.739   2.858  0.2671 -2.0007  0.5778
   77MOL   H21842930   2.963   2.645   2.784  0.7427  1.0342  0.9321
   77MOL   H21942931   3.127   2.470   2.247 -1.0173  2.2712  0.3233
   77MOL   H22042932   3.175   2.417   2.410  0.1592 -0.6715  0.3364
   77MOL   H22142933   3.378   2.482   2.272  0.8288  0.3482 -1.5794
   77MOL   H22242934   3.321   2.642   2.262  0.9441  0.6252  0.9423
   77MOL   H22342935   2.847   2.695   2.364  2.5999  2.0488 -0.0200
   77MOL   H22442936   2.599   2.726   2.326 -1.5835  1.2625  0.0441
   77MOL   H22542937   2.386   2.804   2.412  0.1101 -1.3151  0.4838
   77MOL   O22642938   3.589   2.562   2.371 -0.1517 -0.3606 -0.2460
   77MOL   C22742939   3.515   2.590   2.469 -0.2843 -0.4114 -0.0848
   77MOL   O22842940   3.379   2.580   2.456 -0.2320  0.5390  0.8678
   77MOL   C22942941   3.567   2.629   2.603 -0.2918 -0.1542  0.0718
   77MOL   C23042942   3.478   2.672   2.707 -0.6327  1.2173  0.4143
   77MOL   C23142943   3.529   2.725   2.827  0.1674  0.4064  0.3247
   77MOL   C23242944   3.436   2.761   2.930 -0.4174 -0.1458  0.1794
   77MOL   C23342945   3.494   2.817   3.048  0.5129 -0.4081  0.0692
   77MOL   C23442946   3.633   2.830   3.071 -0.1210 -0.2051  0.2723
   77MOL   C23542947   3.684   2.908   3.189  0.2516  0.3074 -0.4171
   77MOL   O23642948   3.609   2.899   3.293 -0.3116 -0.1768  0.6856
   77MOL   C23742949   3.622   2.974   3.411 -0.4905  0.2331  0.3346
   77MOL   C23842950   3.537   2.914   3.521 -0.3022 -0.4663  1.1032
   77MOL   O23942951   3.791   2.969   3.186  0.9951 -0.5494  0.0833
   77MOL   C24042952   3.720   2.784   2.968  0.3059 -0.1671  0.3814
   77MOL   C24142953   3.667   2.727   2.848 -0.4698  0.0662  0.1490
   77MOL   C24242954   3.752   2.685   2.745 -0.3374  0.4630  0.1909
   77MOL   C24342955   3.704   2.642   2.623  0.3932  0.3261  0.2434
   77MOL   H24442956   3.374   2.671   2.680 -0.3982  1.4511 -0.5045
   77MOL   H24542957   3.331   2.750   2.909 -0.2658 -1.8363  0.2582
   77MOL   H24642958   3.422   2.846   3.124  0.7230 -1.8966  0.8677
   77MOL   H24742959   3.595   3.079   3.394  0.0056  0.1678 -0.9397
   77MOL   H24842960   3.725   2.961   3.445  0.4423 -0.1095 -2.4944
   77MOL   H24942961   3.444   2.870   3.484 -0.0337  0.9037 -1.3233
   77MOL   H25042962   3.588   2.836   3.578  1.2134 -1.1004 -1.0598
   77MOL   H25142963   3.825   2.806   2.975 -0.0201  1.0684  1.4400
   77MOL   H25242964   3.860   2.681   2.752 -0.3307 -1.8141 -0.8811
   77MOL   H25342965   3.769   2.621   2.539 -0.5665 -1.2140 -0.1265
   77MOL   O25442966   3.693   3.049   3.720  0.4786  0.4100 -0.5478
   77MOL   C25542967   3.571   3.068   3.713 -0.2026  0.1384  0.0562
   77MOL   O25642968   3.496   3.015   3.612  0.6857  0.9807 -0.4073
   77MOL   C25742969   3.499   3.151   3.812  0.2102  0.4086  0.4012
   77MOL   C25842970   3.360   3.176   3.805 -0.7642 -0.5272 -0.3448
   77MOL   C25942971   3.308   3.273   3.892  0.6955 -0.1925  0.2818
   77MOL   C26042972   3.178   3.315   3.878 -0.0125 -0.5520 -0.7423
   77MOL   C26142973   3.138   3.434   3.947  0.6201 -0.0387 -0.0197
   77MOL   C26242974   3.216   3.493   4.046 -0.2930  0.0744  0.5119
   77MOL   C26342975   3.170   3.609   4.124  0.0088 -0.8969 -0.4375
   77MOL   O26442976   3.234   3.624   4.243 -0.0828  0.3994  0.3704
   77MOL   C26542977   3.213   3.739   4.323 -0.5910 -0.2531 -0.3686
   77MOL   C26642978   3.285   3.863   4.278  0.0904  0.0414  0.3614
   77MOL   O26742979   3.097   3.694   4.078 -0.1398 -0.4050  0.0416
   77MOL   C26842980   3.346   3.445   4.063  0.1867  0.1359 -1.2588
   77MOL   C26942981   3.389   3.344   3.983 -0.7188  0.2343 -0.2430
   77MOL   C27042982   3.523   3.307   4.000 -0.8120 -0.6315 -0.3991
   77MOL   C27142983   3.581   3.212   3.916  0.2087 -0.4905 -0.2248
   77MOL   H27242984   3.294   3.125   3.736 -1.7323 -0.1965  0.3170
   77MOL   H27342985   3.116   3.266   3.804  1.1429 -1.3402 -1.2068
   77MOL   H27442986   3.042   3.479   3.930  1.2502  0.8729 -1.2035
   77MOL   H27542987   3.235   3.707   4.425 -1.7078 -2.5974 -0.8410
   77MOL   H27642988   3.106   3.758   4.325 -0.4932  0.2666  0.5182
   77MOL   H27742989   3.265   3.878   4.172  0.9927  0.0520  0.1909
   77MOL   H27842990   3.269   3.950   4.342 -0.9905  0.2247 -0.1466
   77MOL   H27942991   3.404   3.493   4.140 -1.8574 -0.2749  0.5937
   77MOL   H28042992   3.592   3.349   4.072  1.3559 -2.9917 -1.0277
   77MOL   H28142993   3.688   3.202   3.927 -0.0355 -1.6997  1.1968
   77MOL   O28242994   3.444   3.788   4.070 -0.0455  0.0813 -0.6717
   77MOL   C28342995   3.482   3.785   4.191  0.9950  0.1748  0.0700
   77MOL   O28442996   3.415   3.843   4.288 -0.2776  0.7981 -0.3603
   77MOL   C28542997   3.600   3.711   4.236 -0.5579 -0.1196 -1.0253
   77MOL   C28642998   3.675   3.645   4.140  0.4902 -0.3586  0.1306
   77MOL   C28742999   3.769   3.552   4.177  0.4154 -0.2723  0.2941
   77MOL   C28843000   3.846   3.479   4.079 -0.2067  0.7285 -0.2035
   77MOL   C28943001   3.939   3.384   4.116 -0.1833  0.4602  0.6537
   77MOL   C29043002   3.962   3.357   4.249 -0.7048 -1.0118 -0.4156
   77MOL   C29143003   4.060   3.256   4.300 -0.0688  0.1833  0.1075
   77MOL   O29243004   4.143   3.209   4.199 -0.0422  0.3056  0.0256
   77MOL   C29343005   4.230   3.099   4.217  0.5314  0.2966 -0.3483
   77MOL   C29443006   4.355   3.130   4.302 -0.1400 -0.9139 -0.2438
   77MOL   O29543007   4.069   3.209   4.411 -0.1184 -0.0144 -0.8429
   77MOL   C29643008   3.895   3.433   4.349 -0.0935 -0.6658  0.5498
   77MOL   C29743009   3.795   3.530   4.316  0.1917  0.2070 -0.0687
   77MOL   C29843010   3.732   3.606   4.415 -1.0098 -0.2320  0.0685
   77MOL   C29943011   3.636   3.704   4.373 -0.1623  0.0734  0.9515
   77MOL   H30043012   3.652   3.641   4.034 -0.8884 -4.5810  0.4966
   77MOL   H30143013   3.819   3.488   3.975  0.4691  0.8257 -0.3740
   77MOL   H30243014   3.994   3.328   4.041  1.7682  0.9254  1.7155
   77MOL   H30343015   4.264   3.072   4.117 -1.3914  0.5782 -1.1103
   77MOL   H30443016   4.163   3.021   4.255  0.1833 -0.1966 -1.9353
   77MOL   H30543017   4.328   3.180   4.395  1.2380 -0.0086 -0.3181
   77MOL   H30643018   4.390   3.034   4.340  2.7900  0.5017  0.8209
   77MOL   H30743019   3.923   3.426   4.453 -1.9625  1.5187  1.2315
   77MOL   H30843020   3.763   3.587   4.516  1.5782  1.7667 -0.2854
   77MOL   H30943021   3.587   3.760   4.451 -1.0036  1.4106 -0.5075
   77MOL   O31043022   4.525   3.025   4.122  0.2502  0.3686  0.5544
   77MOL   C31143023   4.541   3.147   4.152  0.0055 -0.2344  0.6188
   77MOL   O31243024   4.455   3.208   4.238  0.0288  0.1223  0.7534
   77MOL   C31343025   4.648   3.231   4.104 -0.3068 -0.3181 -0.5140
   77MOL   C31443026   4.701   3.208   3.978 -0.2964  0.4691 -0.6259
   77MOL   C31543027   4.808   3.282   3.926  0.1825 -0.4976  0.1265
   77MOL   C31643028   4.846   3.255   3.794 -0.1081  0.4086  0.1664
   77MOL   C31743029   4.950   3.330   3.736  0.0123 -0.8065 -0.4328
   77MOL   C31843030   5.027   3.416   3.816 -0.0839 -0.5163 -0.1570
   77MOL   C31943031   5.143   3.491   3.762 -0.4263  0.8861  0.0596
   77MOL   O32043032   5.160   3.476   3.631  0.3252 -0.3063 -0.1471
   77MOL   C32143033   5.284   3.521   3.576  0.0558 -0.1172 -0.3997
   77MOL   C32243034   5.389   3.419   3.617 -0.0612  0.7317 -0.1035
   77MOL   O32343035   5.213   3.569   3.831 -0.3554 -0.1811 -0.4372
   77MOL   C32443036   4.990   3.438   3.952  0.8143 -0.0671  0.2285
   77MOL   C32543037   4.876   3.374   4.007  0.0614  0.9207  0.2176
   77MOL   C32643038   4.823   3.400   4.143 -0.4303  0.1531  0.9445
   77MOL   C32743039   4.709   3.334   4.185 -0.1771 -0.0181 -0.5771
   77MOL   H32843040   4.652   3.136   3.914  1.3160 -0.9598 -0.3162
   77MOL   H32943041   4.788   3.189   3.731  1.0754  0.1732 -0.6934
   77MOL   H33043042   4.978   3.315   3.633  0.7335 -0.7273 -0.2514
   77MOL   H33143043   5.299   3.618   3.623  0.2957 -0.4038  0.1201
   77MOL   H33243044   5.281   3.538   3.468 -1.3300 -1.9584 -0.6760
   77MOL   H33343045   5.489   3.463   3.607  0.2404  0.1661  0.3582
   77MOL   H33443046   5.377   3.393   3.723 -2.0909  1.1874 -0.2113
   77MOL   H33543047   5.037   3.516   4.009 -2.0185  2.9019 -1.3216
   77MOL   H33643048   4.878   3.468   4.208 -0.4974  0.7899  0.3410
   77MOL   H33743049   4.676   3.361   4.285  0.1642 -2.8823  0.3733
   77MOL   O33843050   5.561   3.341   3.411 -0.1694 -0.1648  0.7988
   77MOL   C33943051   5.464   3.272   3.439  1.6880 -1.0661  0.0611
   77MOL   O34043052   5.372   3.305   3.535 -0.4289 -0.2174  0.4742
   77MOL   C34143053   5.427   3.150   3.365  0.8550  0.2498  0.6898
   77MOL   C34243054   5.503   3.122   3.247  0.1610 -0.6097 -0.1810
   77MOL   C34343055   5.488   2.999   3.186  0.2345 -0.6077 -0.0821
   77MOL   C34443056   5.569   2.962   3.077  0.0869  0.4995 -0.0716
   77MOL   C34543057   5.553   2.834   3.021 -0.2231 -0.6485 -0.2254
   77MOL   C34643058   5.446   2.750   3.057  0.8248  0.6998 -0.0185
   77MOL   C34743059   5.413   2.631   2.973 -0.3455 -0.3667  0.5678
   77MOL   O34843060   5.342   2.538   3.038  0.4109  0.6322  0.6979
   77MOL   C34943061   5.303   2.420   2.974  0.1930 -0.0178  0.7336
   77MOL   C35043062   5.161   2.404   3.012  0.2792 -0.3577  0.5420
   77MOL   O35143063   5.442   2.628   2.857  0.7467  0.0210 -0.3783
   77MOL   C35243064   5.362   2.787   3.161 -0.0576 -0.3463 -0.6083
   77MOL   C35343065   5.388   2.910   3.227 -0.2356  0.2356 -0.8783
   77MOL   C35443066   5.315   2.944   3.341  0.4593 -0.5648  0.1516
   77MOL   C35543067   5.334   3.060   3.407  0.0304  0.0514 -1.1816
   77MOL   H35643068   5.567   3.198   3.206 -0.1513 -0.3445 -0.1787
   77MOL   H35743069   5.643   3.028   3.036  0.7736  0.4148  1.0056
   77MOL   H35843070   5.608   2.802   2.934 -1.4143  0.0958 -1.2714
   77MOL   H35943071   5.357   2.336   3.019  0.5934  0.6363  1.4898
   77MOL   H36043072   5.319   2.419   2.866  0.6273 -0.6647  0.7998
   77MOL   H36143073   5.151   2.299   3.036  1.1297 -0.9291 -1.4832
   77MOL   H36243074   5.142   2.459   3.105  2.4430  0.8531  0.2969
   77MOL   H36343075   5.278   2.729   3.195  1.0925 -0.8283  1.5143
   77MOL   H36443076   5.229   2.887   3.372 -0.5965 -0.4243 -2.3514
   77MOL   H36543077   5.256   3.077   3.479  1.0074 -1.1351  0.1765
   77MOL   O36643078   5.085   2.666   2.941 -0.7270  0.0029  0.2364
   77MOL   C36743079   5.037   2.572   2.877 -0.0041 -0.1804 -0.6958
   77MOL   O36843080   5.073   2.443   2.902 -0.3011 -0.7642  0.0853
   77MOL   C36943081   4.927   2.587   2.785 -0.1066 -0.3364 -0.0987
   77MOL   C37043082   4.875   2.474   2.717  0.5411  0.5613 -1.0074
   77MOL   C37143083   4.805   2.497   2.599  0.0726  0.5248  0.2084
   77MOL   C37243084   4.772   2.389   2.515 -0.1727 -0.0181 -0.1760
   77MOL   C37343085   4.698   2.413   2.397  0.1899 -0.2972  0.6506
   77MOL   C37443086   4.656   2.541   2.356  0.0799  0.3921  0.2283
   77MOL   C37543087   4.578   2.572   2.231 -0.0265 -0.4072 -0.2825
   77MOL   O37643088   4.537   2.456   2.175 -0.0049  0.0850  0.1945
   77MOL   C37743089   4.451   2.470   2.067  0.1680  0.1632 -0.7379
   77MOL   C37843090   4.310   2.461   2.108  0.4613 -0.5514 -0.0883
   77MOL   O37943091   4.550   2.686   2.183  0.0704  0.4704  0.5536
   77MOL   C38043092   4.693   2.650   2.438  0.3626  0.6025 -0.6214
   77MOL   C38143093   4.771   2.624   2.557  0.2203 -0.3913  0.4124
   77MOL   C38243094   4.811   2.736   2.633 -0.4264 -0.3254  0.7251
   77MOL   C38343095   4.891   2.718   2.743 -0.3808  0.3820 -0.4022
   77MOL   H38443096   4.902   2.374   2.746 -1.7423  0.2544  0.1455
   77MOL   H38543097   4.793   2.291   2.554  0.3298  0.2171  0.1575
   77MOL   H38643098   4.681   2.332   2.327 -0.5083  0.5574 -0.1839
   77MOL   H38743099   4.475   2.390   1.997 -1.0206 -1.2835  0.4585
   77MOL   H38843100   4.472   2.563   2.015 -0.1258  0.3347 -0.5492
   77MOL   H38943101   4.285   2.368   2.158  1.8078 -0.4794  0.7316
   77MOL   H39043102   4.271   2.535   2.177 -0.7085 -2.3023  1.1673
   77MOL   H39143103   4.661   2.751   2.416 -1.7477  0.5858  2.0800
   77MOL   H39243104   4.783   2.836   2.603 -1.2262 -1.1698 -1.4239
   77MOL   H39343105   4.934   2.801   2.797  1.9440 -1.0367 -0.0025
   77MOL   O39443106   4.242   2.266   1.924  0.2417 -0.0690  0.1822
   77MOL   C39543107   4.181   2.372   1.920  0.2982  0.0900 -0.3621
   77MOL   O39643108   4.205   2.475   2.002 -0.1571  0.3745  0.6140
   77MOL   C39743109   4.080   2.400   1.812 -0.4419 -0.0890  0.2387
   77MOL   C39843110   3.985   2.499   1.811 -0.4841  0.4163  0.0728
   77MOL   C39943111   3.899   2.510   1.703  0.8558  0.7907  0.3326
   77MOL   C40043112   3.801   2.617   1.699 -0.0484  0.2628 -0.4277
   77MOL   C40143113   3.729   2.639   1.579  0.1333  0.6687 -1.3575
   77MOL   C40243114   3.751   2.564   1.464  0.1148  0.0879  0.2104
   77MOL   C40343115   3.690   2.608   1.334  0.1162  0.5266  0.2292
   77MOL   O40443116   3.690   2.518   1.234  0.2062  0.1703  0.0217
   77MOL   C40543117   3.665   2.560   1.104 -0.5942  0.3825  0.2312
   77MOL   C40643118   3.623   2.441   1.028  0.5545  0.5935 -0.2314
   77MOL   O40743119   3.641   2.722   1.316 -0.3199  0.6163  0.4209
   77MOL   C40843120   3.837   2.449   1.472  0.0567  0.0250  0.8305
   77MOL   C40943121   3.903   2.422   1.593 -0.2034 -0.6712  0.3456
   77MOL   C41043122   3.987   2.310   1.603  0.8075  0.3043 -0.8462
   77MOL   C41143123   4.082   2.305   1.706  0.0353  0.6583  0.5877
   77MOL   H41243124   3.973   2.574   1.888  0.4559  1.2910 -0.6266
   77MOL   H41343125   3.794   2.675   1.789 -0.9361 -2.5165  1.3654
   77MOL   H41443126   3.646   2.708   1.592 -0.6825 -0.3888 -0.8781
   77MOL   H41543127   3.741   2.622   1.055 -0.4417  0.3029  0.3645
   77MOL   H41643128   3.579   2.626   1.111  0.7508  2.1609  0.5015
   77MOL   H41743129   3.620   2.468   0.923  1.0109 -1.0117 -0.6659
   77MOL   H41843130   3.691   2.357   1.045 -1.9172 -1.3376  0.4252
   77MOL   H41943131   3.851   2.387   1.385 -0.6377 -0.7475  1.2630
   77MOL   H42043132   3.982   2.227   1.534  2.1835 -1.8639  1.5812
   77MOL   H42143133   4.158   2.229   1.705  0.8497  1.4569  1.1228
   77MOL   O42243134   3.372   2.477   0.900  0.5101  0.8844  0.0069
   77MOL   C42343135   3.383   2.417   1.006  0.6593 -0.0874 -0.1426
   77MOL   O42443136   3.498   2.388   1.067 -0.6733  0.1689 -0.2635
   77MOL   C42543137   3.265   2.359   1.085 -0.6950  0.2962  0.0942
   77MOL   C42643138   3.280   2.299   1.211  0.0364  0.0879 -0.1286
   77MOL   C42743139   3.171   2.244   1.278 -0.3204  0.0016 -0.3854
   77MOL   C42843140   3.182   2.196   1.409 -0.4557 -0.6174  0.3581
   77MOL   C42943141   3.071   2.149   1.480 -0.1032  1.3132 -0.3674
   77MOL   C43043142   2.945   2.138   1.419  0.1862  0.0730  0.7122
   77MOL   C43143143   2.827   2.093   1.499 -0.1017  0.3263  0.4066
   77MOL   O43243144   2.826   2.144   1.624 -0.0367  0.2721  0.3575
   77MOL   C43343145   2.719   2.117   1.712  0.3457  0.8058 -0.5765
   77MOL   C43443146   2.651   2.254   1.753 -0.0020  0.5738  1.1602
   77MOL   O43543147   2.736   2.019   1.452 -0.2587  0.1620 -0.1265
   77MOL   C43643148   2.932   2.183   1.284 -0.0883 -0.4435  0.2350
   77MOL   C43743149   3.046   2.241   1.218  0.6417 -0.1080  0.0764
   77MOL   C43843150   3.030   2.299   1.094 -0.0701 -0.0252 -0.6211
   77MOL   C43943151   3.141   2.358   1.021  0.2620 -0.0802 -0.0824
   77MOL   H44043152   3.375   2.293   1.262 -1.1090 -0.2612  2.0612
   77MOL   H44143153   3.276   2.208   1.462  0.3083 -0.2889 -1.0389
   77MOL   H44243154   3.082   2.122   1.584 -1.0187  0.6056 -0.4404
   77MOL   H44343155   2.749   2.062   1.801 -2.0304 -0.7714 -0.6794
   77MOL   H44443156   2.643   2.055   1.664 -0.5161 -1.3458  3.4081
   77MOL   H44543157   2.716   2.338   1.731  0.1597  0.0201 -0.5760
   77MOL   H44643158   2.564   2.282   1.693  1.2864  0.7383 -0.6733
   77MOL   H44743159   2.835   2.196   1.238 -0.4260  1.9275  1.5707
   77MOL   H44843160   2.932   2.320   1.052 -0.0020 -0.3878 -0.9581
   77MOL   H44943161   3.118   2.394   0.922 -1.9850 -1.4826 -0.0884
   77MOL   O45043162   2.824   2.235   1.973  0.0315  0.1307  0.4013
   77MOL   C45143163   2.707   2.271   1.989  0.4825 -0.1370 -0.7668
   77MOL   O45243164   2.609   2.267   1.889 -0.0199  0.6792 -0.0820
   77MOL   C45343165   2.652   2.324   2.117  0.5267  0.5597 -0.0204
   77MOL   C45443166   2.738   2.314   2.227  0.3638  0.3787  1.0838
   77MOL   C45543167   2.688   2.346   2.355  0.1652  0.5707  0.1040
   77MOL   C45643168   2.767   2.312   2.468 -0.3587 -0.6752 -0.0047
   77MOL   C45743169   2.714   2.352   2.594  0.3353  0.2899 -0.4959
   77MOL   C45843170   2.588   2.411   2.608 -0.1594 -0.1489  0.4936
   77MOL   C45943171   2.534   2.439   2.745  0.9459 -0.0854 -0.3710
   77MOL   O46043172   2.613   2.394   2.845 -0.6635 -0.1256 -0.1184
   77MOL   C46143173   2.582   2.403   2.980 -0.3478 -0.1142  0.5659
   77MOL   C46243174   2.657   2.521   3.047 -0.1262 -0.4868  0.2777
   77MOL   O46343175   2.419   2.484   2.763  0.3901 -0.4204  0.1330
   77MOL   C46443176   2.514   2.435   2.494  0.7806 -0.4958 -0.2884
   77MOL   C46543177   2.559   2.404   2.365  0.6163  0.7392 -0.2047
   77MOL   C46643178   2.472   2.426   2.250  0.0008  0.1075 -1.1718
   77MOL   C46743179   2.525   2.382   2.128  0.3816 -0.1964  0.5094
   77MOL   H46843180   2.838   2.273   2.223  0.4030  0.5453  0.3238
   77MOL   H46943181   2.867   2.271   2.457  0.2650  1.0580 -1.0702
   77MOL   H47043182   2.776   2.335   2.681 -0.7045 -0.7334  0.0540
   77MOL   H47143183   2.622   2.310   3.021 -1.1804 -0.0618  1.5438
   77MOL   H47243184   2.475   2.412   3.001 -0.8257 -0.9338 -1.4131
   77MOL   H47343185   2.754   2.525   2.998 -0.4965  0.5546 -0.3932
   77MOL   H47443186   2.613   2.615   3.013  1.6745 -0.3973 -1.9282
   77MOL   H47543187   2.421   2.486   2.512  1.1472  0.4365 -1.0028
   77MOL   H47643188   2.371   2.456   2.271  0.0835  0.0390 -0.6601
   77MOL   H47743189   2.452   2.399   2.049  0.6804  1.4548  0.5672
   77MOL   O47843190   2.442   2.507   3.211 -0.2366 -0.0367 -0.2900
   77MOL   C47943191   2.559   2.509   3.257  0.2830 -0.2793 -0.1446
   77MOL   O48043192   2.665   2.514   3.184  0.3328 -0.2998 -0.2453
   77MOL   C48143193   2.586   2.498   3.410 -0.6656  0.0931 -0.3487
   77MOL   C48243194   2.715   2.523   3.465 -0.7160 -0.0746  0.1323
   77MOL   C48343195   2.732   2.520   3.605  0.1859  0.3377 -0.2066
   77MOL   C48443196   2.857   2.545   3.665 -0.8436  0.3058  0.3323
   77MOL   C48543197   2.871   2.562   3.806  0.2339  0.2409  0.3288
   77MOL   C48643198   2.761   2.543   3.891  0.4113  0.5803 -0.6853
   77MOL   C48743199   2.770   2.552   4.040  0.2642  0.0951 -0.3659
   77MOL   O48843200   2.903   2.540   4.086  0.4210 -0.1428  0.3847
   77MOL   C48943201   2.922   2.585   4.216 -0.9161 -0.0461  0.1812
   77MOL   C49043202   2.907   2.470   4.323  0.2376  0.4698  0.0120
   77MOL   O49143203   2.666   2.579   4.100 -0.2839  0.6844 -0.2240
   77MOL   C49243204   2.637   2.516   3.830  0.1987  0.3761 -0.1320
   77MOL   C49343205   2.621   2.503   3.692 -0.4821 -0.2076 -0.3749
   77MOL   C49443206   2.493   2.485   3.638 -0.3003  0.4793  0.1227
   77MOL   C49543207   2.478   2.476   3.500  0.6855  0.0523  0.9242
   77MOL   H49643208   2.800   2.540   3.401 -0.3729 -0.0762  0.5836
   77MOL   H49743209   2.945   2.553   3.602 -0.3524  0.0080  0.9641
   77MOL   H49843210   2.968   2.577   3.850  0.5873  0.3784 -0.4916
   77MOL   H49943211   2.856   2.669   4.239 -2.2029 -0.8644 -0.4863
   77MOL   H50043212   3.018   2.636   4.220 -0.6062 -0.7013  1.5262
   77MOL   H50143213   2.918   2.515   4.422  0.4896  3.2256 -1.2314
   77MOL   H50243214   2.804   2.434   4.319  0.2370  0.6113 -1.3020
   77MOL   H50343215   2.559   2.482   3.897  1.0514 -0.0090  0.6797
   77MOL   H50443216   2.402   2.476   3.696  0.7969 -2.4487  1.4906
   77MOL   H50543217   2.380   2.452   3.461  1.7641 -0.6215 -1.4597
   77MOL   O50643218   3.117   2.417   4.495 -0.3822 -0.1264  0.6909
   77MOL   C50743219   3.108   2.350   4.396  0.0095  0.0074  0.1157
   77MOL   O50843220   3.009   2.367   4.302  0.1773 -0.1276  0.2040
   77MOL   C50943221   3.183   2.219   4.377  0.2447  0.1638 -0.0581
   77MOL   C51043222   3.179   2.159   4.249 -1.1770 -0.2155  0.7452
   77MOL   C51143223   3.230   2.028   4.234 -0.5173 -0.7304  0.3077
   77MOL   C51243224   3.217   1.960   4.111 -0.9361 -0.5460  0.1507
   77MOL   C51343225   3.278   1.835   4.088 -0.1690  1.0117 -0.2316
   77MOL   C51443226   3.350   1.772   4.199  0.9584 -0.1616  0.0182
   77MOL   C51543227   3.418   1.632   4.185  0.3498 -0.4405  0.5686
   77MOL   O51643228   3.430   1.599   4.058  0.1970 -0.1937 -0.4375
   77MOL   C51743229   3.530   1.492   4.032  0.4603  0.5537  0.4052
   77MOL   C51843230   3.459   1.355   4.041 -0.3509 -0.1153 -0.1610
   77MOL   O51943231   3.446   1.561   4.278  0.4887  0.0814  0.2817
   77MOL   C52043232   3.366   1.843   4.319  0.5499 -0.8629  0.3056
   77MOL   C52143233   3.301   1.968   4.344  0.2199  0.5198 -0.0741
   77MOL   C52243234   3.308   2.035   4.469  0.0343  0.0393 -0.4079
   77MOL   C52343235   3.242   2.158   4.488  0.4096  0.8709 -0.1745
   77MOL   H52443236   3.134   2.215   4.168  2.2260  0.5404 -0.7431
   77MOL   H52543237   3.160   2.001   4.029 -0.9995 -2.6724 -0.8899
   77MOL   H52643238   3.274   1.784   3.994 -0.8146 -0.7788  0.7476
   77MOL   H52743239   3.612   1.518   4.099  2.1816 -0.2224 -1.3624
   77MOL   H52843240   3.566   1.506   3.930 -1.6094 -0.6280 -0.5189
   77MOL   H52943241   3.427   1.327   4.141  1.7743 -1.2345  0.2489
   77MOL   H53043242   3.379   1.333   3.970 -1.7545  2.2901  0.6339
   77MOL   H53143243   3.430   1.809   4.399  1.9464 -2.1047 -1.2883
   77MOL   H53243244   3.351   1.993   4.559 -0.2314 -0.0927 -0.3419
   77MOL   H53343245   3.249   2.208   4.583 -0.3224  0.9751 -0.1701
   77MOL   O53443246   3.658   1.247   4.212 -0.7569  0.5187 -0.4696
   77MOL   C53543247   3.647   1.202   4.095  0.3057 -0.9277  0.4031
   77MOL   O53643248   3.552   1.251   4.007 -0.6792 -0.1383  0.2195
   77MOL   C53743249   3.725   1.086   4.043 -0.0080  0.5458  0.0276
   77MOL   C53843250   3.812   1.026   4.134 -0.9189 -0.0601  0.1965
   77MOL   C53943251   3.883   0.908   4.093 -0.3826  0.1580 -0.8148
   77MOL   C54043252   3.969   0.845   4.187  0.1536 -0.4550  0.8505
   77MOL   C54143253   4.033   0.726   4.151  0.0816 -0.3025  0.3220
   77MOL   C54243254   4.011   0.669   4.019 -0.1615  0.6230 -0.1896
   77MOL   C54343255   4.072   0.530   3.996 -0.2657 -0.2024  0.5688
   77MOL   O54443256   4.068   0.481   3.870 -0.0257 -0.0646  0.4204
   77MOL   C54543257   4.139   0.362   3.840 -0.3910 -0.6181  0.0522
   77MOL   C54643258   4.115   0.308   3.697 -0.1806  0.0059 -0.4975
   77MOL   O54743259   4.123   0.476   4.092 -0.1651 -0.2511 -0.0940
   77MOL   C54843260   3.935   0.738   3.923 -0.8006  0.2643 -0.0589
   77MOL   C54943261   3.863   0.852   3.964 -0.1570 -0.6256 -0.1828
   77MOL   C55043262   3.787   0.924   3.874  0.4068  0.0471  0.2925
   77MOL   C55143263   3.718   1.036   3.908  0.5568 -0.6759  0.3854
   77MOL   H55243264   3.826   1.063   4.234 -1.1773 -0.9831  0.5779
   77MOL   H55343265   3.965   0.879   4.290 -1.8996 -1.9594  1.3180
   77MOL   H55443266   4.097   0.678   4.223  0.9054 -2.3219 -1.7042
   77MOL   H55543267   4.103   0.284   3.907  2.4876 -1.8434  0.2563
   77MOL   H55643268   4.248   0.370   3.846 -0.4264 -0.3694  0.3846
   77MOL   H55743269   4.011   0.331   3.672  0.2673  0.7995 -1.6853
   77MOL   H55843270   4.151   0.205   3.689  2.7669  0.7732  1.9527
   77MOL   H55943271   3.927   0.697   3.824  0.7211 -0.1922 -0.0111
   77MOL   H56043272   3.781   0.895   3.770 -2.6553  2.1574 -0.2099
   77MOL   H56143273   3.648   1.091   3.847  2.1420 -0.4324 -1.2854
   77MOL   H56243274   4.170   0.363   3.621 -1.7813  2.6391  0.1978
   78MOL     O143275   3.359   2.541   3.950 -0.8284 -0.0970 -0.2455
   78MOL     C243276   3.291   2.531   3.847 -0.3646  0.1198 -0.2933
   78MOL     O343277   3.248   2.642   3.785  0.2983  0.1248  0.2812
   78MOL     C443278   3.276   2.393   3.781  0.3157 -0.2062  0.6118
   78MOL     C543279   3.219   2.392   3.654 -0.0664 -0.0156  0.4740
   78MOL     C643280   3.205   2.274   3.580  0.6178 -0.5201  0.2430
   78MOL     C743281   3.151   2.272   3.451 -0.2867  0.0793  1.3507
   78MOL     C843282   3.128   2.149   3.381 -0.0058 -0.2667  0.4940
   78MOL     C943283   3.170   2.029   3.442  1.0979 -0.5781  0.0020
   78MOL    C1043284   3.138   1.897   3.375  0.1496 -0.4780 -0.7763
   78MOL    O1143285   3.081   1.906   3.256 -0.6535  0.2037  0.1260
   78MOL    C1243286   3.032   1.797   3.192  0.7132 -0.1760  0.4849
   78MOL    C1343287   2.887   1.773   3.232  0.4275 -0.0803  0.3995
   78MOL    O1443288   3.155   1.789   3.432  0.1261  0.3031  0.4110
   78MOL    C1543289   3.230   2.031   3.572  0.4321 -0.2088 -0.3196
   78MOL    C1643290   3.235   2.152   3.646 -0.8556 -0.0006 -0.2231
   78MOL    C1743291   3.275   2.145   3.782 -0.3817 -0.2787  0.0286
   78MOL    C1843292   3.301   2.271   3.844 -0.3468 -1.4134  0.3240
   78MOL    H1943293   3.192   2.491   3.620  0.7539 -0.0914 -0.4166
   78MOL    H2043294   3.126   2.365   3.403 -0.2510  0.0413  1.2594
   78MOL    H2143295   3.080   2.148   3.285  2.2890  0.2533 -0.6929
   78MOL    H2243296   3.035   1.818   3.085 -1.1708  0.3040  0.5097
   78MOL    H2343297   3.090   1.705   3.198 -0.0135 -0.7329 -0.9648
   78MOL    H2443298   2.832   1.867   3.222  1.9139  0.5211 -2.4861
   78MOL    H2543299   2.839   1.699   3.168 -0.7974 -0.7693  2.0643
   78MOL    H2643300   3.259   1.939   3.621 -0.6752 -0.2527  0.2901
   78MOL    H2743301   3.306   2.050   3.822 -0.6641  0.0099  0.9511
   78MOL    H2843302   3.339   2.267   3.945  1.5245 -1.3081 -0.3613
   78MOL    H2943303   3.287   2.720   3.821 -0.1893  0.2736  0.4941
   78MOL    O3043304   2.748   1.547   3.302  0.1219  0.3707 -0.8175
   78MOL    C3143305   2.800   1.613   3.394  0.4449 -0.1910  0.3196
   78MOL    O3243306   2.882   1.720   3.364  0.0932  0.6681 -0.3244
   78MOL    C3343307   2.777   1.606   3.541  0.4377  0.1459  0.1211
   78MOL    C3443308   2.862   1.671   3.630 -0.1198  0.4025 -0.4248
   78MOL    C3543309   2.825   1.670   3.769 -0.1030  0.2123 -0.2694
   78MOL    C3643310   2.917   1.731   3.860  0.3810  0.0947 -0.7805
   78MOL    C3743311   2.884   1.734   3.998  0.7731  0.8081 -0.1819
   78MOL    C3843312   2.779   1.655   4.052  0.6070  0.5925  0.3701
   78MOL    C3943313   2.757   1.648   4.198 -0.5104  0.1439  0.5902
   78MOL    O4043314   2.694   1.532   4.238  0.0423 -0.1495 -0.2546
   78MOL    C4143315   2.708   1.472   4.368 -0.6420  0.2455 -0.0902
   78MOL    C4243316   2.572   1.403   4.400  0.6536  0.1034 -0.1547
   78MOL    O4343317   2.795   1.734   4.281 -0.4042  0.0734 -0.0376
   78MOL    C4443318   2.687   1.592   3.960 -0.9013  0.3640  0.5803
   78MOL    C4543319   2.714   1.602   3.819  0.7093 -0.5720  0.0818
   78MOL    C4643320   2.630   1.538   3.724 -0.2815 -0.5642  0.0807
   78MOL    C4743321   2.660   1.545   3.585 -0.3069  0.1735  0.1722
   78MOL    H4843322   2.944   1.735   3.602 -0.4017  0.8286 -0.2855
   78MOL    H4943323   3.013   1.770   3.831  1.4864 -0.8761  1.5169
   78MOL    H5043324   2.954   1.772   4.070  1.1294 -0.9909  0.4365
   78MOL    H5143325   2.709   1.545   4.448  2.8945  1.0726 -0.8217
   78MOL    H5243326   2.785   1.396   4.377  0.1482  1.2459  1.8981
   78MOL    H5343327   2.486   1.457   4.361  1.1594 -0.3554 -1.9854
   78MOL    H5443328   2.553   1.308   4.350  1.2205  0.6658 -1.4762
   78MOL    H5543329   2.602   1.533   3.989 -1.3249  0.7580  0.1443
   78MOL    H5643330   2.538   1.494   3.760  0.6824 -1.1563  1.8956
   78MOL    H5743331   2.599   1.497   3.510 -2.0125  1.5038  0.6612
   78MOL    O5843332   2.654   1.170   4.530  0.0818 -0.4481 -0.4019
   78MOL    C5943333   2.611   1.271   4.593 -0.2359  0.2730 -0.8685
   78MOL    O6043334   2.566   1.380   4.543 -0.3306 -0.1094  0.5723
   78MOL    C6143335   2.583   1.259   4.743  0.4319 -0.2633 -0.1076
   78MOL    C6243336   2.558   1.137   4.805  0.5584 -0.2184  0.7517
   78MOL    C6343337   2.517   1.127   4.937 -0.6132 -0.4584 -0.0433
   78MOL    C6443338   2.475   1.006   4.992 -0.4945 -0.2509  0.1722
   78MOL    C6543339   2.435   0.998   5.126 -0.1262  0.1689 -0.0660
   78MOL    C6643340   2.435   1.114   5.205 -0.5984  0.6361  0.0961
   78MOL    C6743341   2.395   1.118   5.354  0.0757 -0.0013 -0.8896
   78MOL    O6843342   2.344   1.001   5.394 -0.0420 -0.9303  0.1849
   78MOL    C6943343   2.240   0.993   5.490  0.1254  0.1638  0.1326
   78MOL    C7043344   2.100   1.039   5.441  0.0463  0.1106 -0.2347
   78MOL    O7143345   2.411   1.216   5.430 -0.6298 -0.0708 -0.2697
   78MOL    C7243346   2.471   1.236   5.147  0.0818 -0.0737 -0.8134
   78MOL    C7343347   2.508   1.242   5.014 -0.1474 -1.3482  0.4244
   78MOL    C7443348   2.533   1.371   4.954 -1.0296  0.1625  0.2990
   78MOL    C7543349   2.565   1.381   4.813 -0.0801  0.6394  0.6175
   78MOL    H7643350   2.563   1.052   4.740  1.3501  0.8745 -0.6460
   78MOL    H7743351   2.496   0.912   4.943 -0.6244 -1.0689  1.6729
   78MOL    H7843352   2.409   0.901   5.167  1.7577 -1.1263 -1.8334
   78MOL    H7943353   2.278   1.038   5.581 -2.3209  0.4433  1.0618
   78MOL    H8043354   2.225   0.889   5.517 -1.3959  0.3618  0.1036
   78MOL    H8143355   2.029   1.012   5.519  0.1134  1.3301  0.2658
   78MOL    H8243356   2.103   1.147   5.425  0.5409  0.2932  1.0095
   78MOL    H8343357   2.467   1.333   5.193  0.1440  0.6411 -2.2665
   78MOL    H8443358   2.532   1.462   5.013  3.4536  1.1261 -0.9111
   78MOL    H8543359   2.581   1.476   4.765  1.9556  0.0480  0.0663
   78MOL    O8643360   1.847   0.961   5.352  0.1230  0.0949 -0.4174
   78MOL    C8743361   1.943   0.956   5.275 -0.0138  0.7744 -0.1588
   78MOL    O8843362   2.070   0.985   5.313 -0.1520 -0.6408 -0.0015
   78MOL    C8943363   1.945   0.888   5.144 -0.5660 -0.1625  0.1498
   78MOL    C9043364   2.056   0.903   5.059 -0.0429 -0.0507 -0.4496
   78MOL    C9143365   2.044   0.851   4.928  0.3228  0.8242 -0.4083
   78MOL    C9243366   2.150   0.870   4.836 -0.2923  0.3350 -0.0488
   78MOL    C9343367   2.138   0.818   4.703  0.3304 -0.2365  0.0765
   78MOL    C9443368   2.019   0.754   4.660  0.6129  0.0218 -0.1544
   78MOL    C9543369   2.000   0.701   4.521  0.2062 -0.0324  0.3230
   78MOL    O9643370   2.108   0.630   4.488  0.2920  0.0664 -0.1601
   78MOL    C9743371   2.122   0.556   4.368 -0.5458 -0.4121  0.8252
   78MOL    C9843372   2.152   0.658   4.253  0.0447  0.4385  0.9603
   78MOL    O9943373   1.907   0.716   4.451 -0.0838 -0.1607  0.5049
   78MOL   C10043374   1.913   0.740   4.751  0.3794  0.2723 -0.0271
   78MOL   C10143375   1.927   0.783   4.883  0.4872  0.5629 -0.1490
   78MOL   C10243376   1.822   0.761   4.973 -0.1451 -0.1503  0.3165
   78MOL   C10343377   1.831   0.816   5.102  0.2031  0.1670  0.2059
   78MOL   H10443378   2.148   0.953   5.084 -1.7497  2.6423  0.7137
   78MOL   H10543379   2.236   0.929   4.864  0.6079  0.1196 -2.2892
   78MOL   H10643380   2.220   0.833   4.635  0.6114 -0.3412  0.3901
   78MOL   H10743381   2.040   0.485   4.357  0.4276 -1.3396 -0.5361
   78MOL   H10843382   2.209   0.491   4.368 -0.5694 -0.4464  0.5930
   78MOL   H10943383   2.057   0.700   4.219  0.2992  0.4072  0.2200
   78MOL   H11043384   2.214   0.737   4.295 -0.2708 -0.0415  2.3762
   78MOL   H11143385   1.825   0.685   4.723 -0.2688  1.5070 -0.4325
   78MOL   H11243386   1.732   0.707   4.945 -0.7045  0.2923  1.2229
   78MOL   H11343387   1.749   0.808   5.172  0.7991 -0.8671  0.7988
   78MOL   O11443388   2.032   0.497   4.061  0.1288  0.0859 -0.0380
   78MOL   C11543389   2.156   0.508   4.070  0.6948  0.2466 -0.0505
   78MOL   O11643390   2.220   0.595   4.147  0.5553  0.6509 -0.5445
   78MOL   C11743391   2.241   0.410   4.004 -0.0939  0.3886 -0.3364
   78MOL   C11843392   2.194   0.273   3.999 -0.8052 -0.2844 -0.5413
   78MOL   C11943393   2.272   0.177   3.927  0.2654  0.1978  0.2979
   78MOL   C12043394   2.233   0.043   3.915  0.6572  0.3910  0.1152
   78MOL   C12143395   2.302   8.204   3.832 -0.0297  0.2223  0.2416
   78MOL   C12243396   2.422   8.237   3.768  0.6170  0.5646  0.5143
   78MOL   C12343397   2.497   8.144   3.675  0.1724  0.6825  0.1239
   78MOL   O12443398   2.442   8.020   3.646 -0.1343 -0.6569 -0.3952
   78MOL   C12543399   2.492   7.945   3.533  0.8198 -0.0234  0.0683
   78MOL   C12643400   2.377   7.849   3.501  0.2952 -0.1781  0.6050
   78MOL   O12743401   2.596   8.186   3.618 -0.0443  0.4028 -0.2823
   78MOL   C12843402   2.470   0.121   3.796  0.1999  0.1533 -0.6721
   78MOL   C12943403   2.395   0.212   3.869  0.1788  0.7480  0.2449
   78MOL   C13043404   2.431   0.348   3.870  0.0851  0.0298 -0.1389
   78MOL   C13143405   2.360   0.444   3.938  0.4141 -0.4737  0.5678
   78MOL   H13243406   2.101   0.246   4.048  0.1817  0.0915  1.6168
   78MOL   H13343407   2.148   0.003   3.968  0.4646 -0.4077 -0.7831
   78MOL   H13443408   2.273   8.100   3.817 -1.3229  0.5458  0.3841
   78MOL   H13543409   2.575   7.882   3.562 -0.9654 -2.8899 -0.8823
   78MOL   H13643410   2.523   8.006   3.447 -0.4849 -0.4163 -0.7013
   78MOL   H13743411   2.326   7.822   3.593  0.5554  0.3889  0.9199
   78MOL   H13843412   2.300   7.898   3.442  0.4652  0.2291  0.7136
   78MOL   H13943413   2.557   0.153   3.741  1.1938 -0.9558  0.2263
   78MOL   H14043414   2.518   0.392   3.822 -1.8124  3.2400 -0.8413
   78MOL   H14143415   2.388   0.548   3.943 -1.3188  0.0639 -0.4776
   78MOL   O14243416   2.492   7.797   3.266  0.5803  0.2147  0.3411
   78MOL   C14343417   2.483   7.703   3.348  0.4178  0.0823  0.3372
   78MOL   O14443418   2.413   7.716   3.459 -0.5175  0.7085  0.2147
   78MOL   C14543419   2.542   7.569   3.331 -0.1516  0.5971 -0.6504
   78MOL   C14643420   2.536   7.509   3.203  0.8782  0.3470  0.1792
   78MOL   C14743421   2.575   7.371   3.189 -0.0221  0.3274  0.5708
   78MOL   C14843422   2.553   7.296   3.073 -0.3755  0.5150  0.1479
   78MOL   C14943423   2.590   7.158   3.060  0.2327  0.0354 -0.0485
   78MOL   C15043424   2.631   7.087   3.177  0.7826 -0.1056  0.3720
   78MOL   C15143425   2.635   6.939   3.178  0.3983  0.1122  0.0946
   78MOL   O15243426   2.664   6.886   3.301  0.4216 -0.0799  0.3794
   78MOL   C15343427   2.636   6.747   3.318 -0.1680 -0.7411  0.1122
   78MOL   C15443428   2.488   6.718   3.324 -0.2356  0.1415 -0.1732
   78MOL   O15543429   2.607   6.869   3.078  0.3361 -0.1551  0.2918
   78MOL   C15643430   2.646   7.158   3.301 -0.0510 -0.3612  0.6425
   78MOL   C15743431   2.623   7.299   3.301 -0.5448 -0.3515 -0.0760
   78MOL   C15843432   2.636   7.366   3.424 -0.4792  0.4218 -0.1781
   78MOL   C15943433   2.586   7.492   3.442  0.2392 -0.3502  0.6951
   78MOL   H16043434   2.478   7.556   3.125  0.2278  0.3709  0.6610
   78MOL   H16143435   2.515   7.353   2.990  1.6299 -2.3647 -2.9112
   78MOL   H16243436   2.574   7.102   2.969 -2.9032  0.6053  0.0671
   78MOL   H16343437   2.678   6.715   3.413 -0.7370  2.7818  1.5943
   78MOL   H16443438   2.682   6.681   3.244 -0.5083  1.1183 -1.7919
   78MOL   H16543439   2.432   6.765   3.244 -1.2359 -2.5020 -1.0965
   78MOL   H16643440   2.473   6.611   3.308 -2.2523  0.0510  1.9363
   78MOL   H16743441   2.676   7.108   3.392 -1.6197 -1.7572  0.4256
   78MOL   H16843442   2.681   7.307   3.502  0.9481  1.6460 -0.0560
   78MOL   H16943443   2.592   7.539   3.539 -1.7026  2.8425 -0.6766
   78MOL   O17043444   2.372   6.544   3.502  0.1627  0.0137  0.2937
   78MOL   C17143445   2.383   6.664   3.532 -0.1677  0.2105  0.4288
   78MOL   O17243446   2.444   6.757   3.450  0.8310 -0.3025 -0.0870
   78MOL   C17343447   2.324   6.726   3.656 -0.6695 -0.7274 -0.6245
   78MOL   C17443448   2.353   6.859   3.684 -0.8463  0.6129  0.5444
   78MOL   C17543449   2.311   6.915   3.805 -0.8483 -0.0004  0.3618
   78MOL   C17643450   2.347   7.046   3.835 -0.1410 -0.3301 -0.2891
   78MOL   C17743451   2.311   7.099   3.960 -0.8642 -0.3344  0.3415
   78MOL   C17843452   2.243   7.024   4.056  0.1915  0.1046  1.0539
   78MOL   C17943453   2.211   7.086   4.180 -0.1649 -0.1204 -0.0036
   78MOL   O18043454   2.084   7.069   4.222  0.2677 -0.1615 -0.2871
   78MOL   C18143455   2.040   7.103   4.347  0.8641 -0.2323  0.5839
   78MOL   C18243456   2.069   6.988   4.442 -0.6280 -0.0991 -0.3811
   78MOL   O18343457   2.291   7.161   4.242 -0.2207  0.5753 -0.4167
   78MOL   C18443458   2.209   6.892   4.024  0.4827  0.0109 -0.1218
   78MOL   C18543459   2.239   6.834   3.899 -0.1891  0.2653 -0.1533
   78MOL   C18643460   2.212   6.702   3.875  0.9665  0.3234  0.4947
   78MOL   C18743461   2.257   6.643   3.750  0.4857  0.5379 -0.0111
   78MOL   H18843462   2.411   6.921   3.619 -0.0840  0.0668  0.6932
   78MOL   H18943463   2.394   7.111   3.763  1.6844 -0.0121  1.1632
   78MOL   H19043464   2.340   7.201   3.983 -1.2611 -0.4383  1.3368
   78MOL   H19143465   1.937   7.134   4.330  1.1405  0.5158  0.2573
   78MOL   H19243466   2.093   7.193   4.379  0.0200  1.5868 -2.9113
   78MOL   H19343467   1.999   6.995   4.526  1.6209  3.4353  1.3211
   78MOL   H19443468   2.036   6.896   4.394 -0.6954 -1.0092  1.3451
   78MOL   H19543469   2.152   6.839   4.099 -2.5831 -1.2836 -3.2846
   78MOL   H19643470   2.151   6.646   3.944 -0.5180  0.1238 -0.9200
   78MOL   H19743471   2.252   6.536   3.738  0.7298  0.4118  0.9834
   78MOL   O19843472   2.208   7.113   4.649 -0.3547 -0.0876 -0.5698
   78MOL   C19943473   2.272   7.040   4.573 -0.2793  0.4360 -0.0888
   78MOL   O20043474   2.209   6.975   4.470  0.2209  0.1092 -0.2142
   78MOL   C20143475   2.425   7.021   4.591 -0.6637 -0.3476  0.2690
   78MOL   C20243476   2.487   7.058   4.712 -0.1854 -0.4819 -0.4476
   78MOL   C20343477   2.633   7.058   4.718  0.3276 -0.3222  0.2108
   78MOL   C20443478   2.698   7.091   4.833  0.4369  0.3145 -0.2736
   78MOL   C20543479   2.838   7.077   4.839  0.6503 -0.3257  0.4471
   78MOL   C20643480   2.912   7.031   4.732  1.1676  0.4469  0.1641
   78MOL   C20743481   3.058   7.005   4.741 -0.1544 -0.1612 -0.9880
   78MOL   O20843482   3.118   7.080   4.833 -0.2377 -0.2145 -0.2227
   78MOL   C20943483   3.247   7.041   4.884  0.0257  0.0241  0.2708
   78MOL   C21043484   3.242   6.918   4.971  0.0824 -0.0961  0.1425
   78MOL   O21143485   3.121   6.923   4.678 -0.2207 -0.0684  0.7134
   78MOL   C21243486   2.845   6.993   4.619  0.5450 -0.8122  0.2545
   78MOL   C21343487   2.706   7.010   4.606 -0.3007  0.0466  0.3262
   78MOL   C21443488   2.638   6.974   4.490 -1.2838 -0.5121  0.0565
   78MOL   C21543489   2.499   6.973   4.480  0.5675 -0.0033 -0.2613
   78MOL   H21643490   2.432   7.087   4.800 -0.2306  0.9940 -0.9400
   78MOL   H21743491   2.633   7.113   4.916  2.1887 -1.0815  1.4989
   78MOL   H21843492   2.877   7.103   4.936  0.2867 -0.0986  0.5342
   78MOL   H21943493   3.291   7.128   4.932 -0.7064  0.9902 -0.7686
   78MOL   H22043494   3.311   7.025   4.797 -0.5562 -0.9799  0.0180
   78MOL   H22143495   3.201   6.831   4.920  1.2308  0.2243 -1.3606
   78MOL   H22243496   3.349   6.896   4.978  0.3155  0.4074 -1.5527
   78MOL   H22343497   2.900   6.963   4.531  2.2301 -0.5365  1.1959
   78MOL   H22443498   2.700   6.938   4.409 -0.0436  1.9347 -0.1221
   78MOL   H22543499   2.450   6.936   4.391 -2.1843 -0.4778  1.3940
   78MOL   O22643500   2.983   6.881   5.040  0.0953 -0.3047 -0.1596
   78MOL   C22743501   3.066   6.929   5.123  0.0186  0.0563  0.4619
   78MOL   O22843502   3.197   6.950   5.098 -0.0762  0.2523 -0.6221
   78MOL   C22943503   3.022   6.986   5.259 -0.8159  0.6838 -0.7975
   78MOL   C23043504   3.111   7.061   5.337  0.2288  0.5608  0.5452
   78MOL   C23143505   3.080   7.096   5.470 -0.1816 -0.1125  0.2447
   78MOL   C23243506   3.178   7.148   5.551 -0.4083  0.5276  0.2731
   78MOL   C23343507   3.145   7.186   5.684 -0.3358 -0.0014 -0.0532
   78MOL   C23443508   3.020   7.165   5.741  0.0142  0.6818  0.4597
   78MOL   C23543509   2.983   7.210   5.875 -0.1725  0.6645 -0.4442
   78MOL   O23643510   3.085   7.213   5.960 -0.1503 -0.2962 -0.3706
   78MOL   C23743511   3.078   7.258   6.096  0.5046  0.3818  0.4241
   78MOL   C23843512   3.147   7.392   6.084  0.7369 -0.6674  0.4255
   78MOL   O23943513   2.875   7.255   5.913 -0.0530  1.1346 -0.3318
   78MOL   C24043514   2.921   7.101   5.662  0.7539  0.2809  0.1279
   78MOL   C24143515   2.953   7.064   5.527  0.1133 -0.3936 -0.2956
   78MOL   C24243516   2.864   6.995   5.443 -0.1258 -0.8125  0.6404
   78MOL   C24343517   2.898   6.963   5.305  0.1709 -0.4783  0.5278
   78MOL   H24443518   3.209   7.074   5.294 -0.2140 -0.4929 -0.8289
   78MOL   H24543519   3.277   7.167   5.513 -0.6096 -1.7618 -1.4752
   78MOL   H24643520   3.220   7.233   5.745 -0.4959  1.4113 -0.9079
   78MOL   H24743521   3.137   7.191   6.158  0.5520  0.8112  0.8464
   78MOL   H24843522   2.977   7.271   6.134  0.5355 -0.6725  0.8867
   78MOL   H24943523   3.079   7.454   6.025 -1.7796 -2.2533  1.5541
   78MOL   H25043524   3.148   7.432   6.185 -3.1667  1.5789 -0.3081
   78MOL   H25143525   2.824   7.103   5.708 -0.0799  0.0558 -1.5908
   78MOL   H25243526   2.762   6.971   5.467 -0.2073 -0.0609  1.0418
   78MOL   H25343527   2.824   6.916   5.241  0.0804  0.0638  0.2284
   78MOL   O25443528   3.382   7.317   6.220 -0.3173  0.3278  0.0204
   78MOL   C25543529   3.373   7.323   6.096  0.1130  0.6773  0.1667
   78MOL   O25643530   3.274   7.379   6.027 -0.0376  0.0758  0.2270
   78MOL   C25743531   3.490   7.286   6.012 -0.0769 -0.4848 -0.2771
   78MOL   C25843532   3.473   7.292   5.871  0.3088  0.2127  0.4201
   78MOL   C25943533   3.575   7.238   5.783  0.6356 -0.7959  0.2326
   78MOL   C26043534   3.557   7.254   5.641 -0.0353  0.0143 -0.0668
   78MOL   C26143535   3.670   7.217   5.558  0.6282  0.5632  0.4380
   78MOL   C26243536   3.776   7.143   5.619  0.7157 -0.2124  0.4832
   78MOL   C26343537   3.889   7.109   5.532 -0.1695 -0.3192  0.2871
   78MOL   O26443538   3.871   7.144   5.396 -0.0123 -0.4334  0.4714
   78MOL   C26543539   3.965   7.112   5.292  0.0302 -0.2263 -0.3230
   78MOL   C26643540   4.099   7.181   5.317  0.4296  0.3364  0.3159
   78MOL   O26743541   3.999   7.053   5.567 -0.7796  0.4025  0.3659
   78MOL   C26843542   3.785   7.125   5.754  0.0806 -0.2612  0.5642
   78MOL   C26943543   3.685   7.181   5.838  0.2447  0.3352 -0.0276
   78MOL   C27043544   3.702   7.186   5.975 -0.3134  0.2067 -0.2252
   78MOL   C27143545   3.611   7.237   6.065  0.1850 -0.0864 -0.0606
   78MOL   H27243546   3.389   7.335   5.819 -0.0013 -1.2999 -0.3614
   78MOL   H27343547   3.469   7.298   5.596 -0.4053 -0.9040 -0.2649
   78MOL   H27443548   3.670   7.239   5.452 -2.0376  0.1559  0.3060
   78MOL   H27543549   3.919   7.146   5.199 -2.7072 -1.7596  0.4379
   78MOL   H27643550   3.977   7.004   5.289  0.4657 -0.1544 -1.3842
   78MOL   H27743551   4.076   7.285   5.337 -1.3928  0.0524 -0.1750
   78MOL   H27843552   4.155   7.145   5.403  0.6675 -1.9364 -0.7337
   78MOL   H27943553   3.868   7.077   5.803  0.7534  0.9207  0.5979
   78MOL   H28043554   3.794   7.150   6.018 -0.6795 -1.7853 -1.0281
   78MOL   H28143555   3.631   7.238   6.171 -0.5154 -0.1521  0.0754
   78MOL   O28243556   4.158   7.352   5.107  0.3470 -0.4304  0.0652
   78MOL   C28343557   4.191   7.235   5.103  0.6455  0.5427 -0.5015
   78MOL   O28443558   4.167   7.148   5.199 -0.5019 -0.2763  0.2609
   78MOL   C28543559   4.264   7.176   4.989  0.6386 -0.7127 -0.6403
   78MOL   C28643560   4.255   7.244   4.864 -0.1886 -0.1904 -0.2543
   78MOL   C28743561   4.335   7.198   4.759 -0.2485  0.0373 -0.1299
   78MOL   C28843562   4.323   7.250   4.630  0.1090 -0.3801 -0.6764
   78MOL   C28943563   4.391   7.201   4.521 -0.1461  0.3117 -0.3889
   78MOL   C29043564   4.484   7.093   4.539 -0.4823  0.1719  0.4377
   78MOL   C29143565   4.575   7.054   4.426  0.0492 -0.1871  0.8628
   78MOL   O29243566   4.530   7.103   4.310 -0.6478  0.2096 -0.4134
   78MOL   C29343567   4.589   7.059   4.191  0.1465 -0.6024  0.2925
   78MOL   C29443568   4.534   6.919   4.164 -0.1618 -0.1105 -0.1938
   78MOL   O29543569   4.666   6.975   4.433 -0.2872 -0.3206  0.0465
   78MOL   C29643570   4.492   7.029   4.666  0.1464 -0.4720 -0.4182
   78MOL   C29743571   4.420   7.081   4.778 -0.0558 -0.2418 -0.4729
   78MOL   C29843572   4.426   7.016   4.904 -0.2199  0.3490 -0.2284
   78MOL   C29943573   4.345   7.066   5.009 -0.6413  0.8935  0.3469
   78MOL   H30043574   4.182   7.322   4.852 -0.7655 -0.2920  2.2260
   78MOL   H30143575   4.256   7.334   4.616  1.6997  1.3306  1.5288
   78MOL   H30243576   4.376   7.246   4.424  1.7368 -1.6312 -1.6258
   78MOL   H30343577   4.697   7.053   4.202  0.1169 -2.7777 -0.5386
   78MOL   H30443578   4.571   7.130   4.110  3.2642 -1.4593 -1.2276
   78MOL   H30543579   4.618   6.885   4.103 -0.4054  2.5575 -2.1105
   78MOL   H30643580   4.537   6.853   4.251 -0.7418  1.7403  1.2649
   78MOL   H30743581   4.551   6.939   4.666  0.7195 -0.1147  2.0783
   78MOL   H30843582   4.495   6.933   4.908  1.5100  1.7308 -0.7355
   78MOL   H30943583   4.337   7.014   5.103 -1.5342 -0.4611 -0.4656
   78MOL   O31043584   4.503   6.957   3.895  0.3642  0.2922 -0.5420
   78MOL   C31143585   4.401   6.938   3.961  0.0056 -0.1297 -0.5055
   78MOL   O31243586   4.404   6.923   4.098 -0.0637  0.3215  0.2566
   78MOL   C31343587   4.270   6.915   3.891 -0.3921  0.0604  0.1066
   78MOL   C31443588   4.275   6.923   3.753 -0.8109 -0.0515  0.2551
   78MOL   C31543589   4.153   6.915   3.681  1.0393 -0.0523  0.1440
   78MOL   C31643590   4.155   6.925   3.543  0.2937 -0.6083  0.8991
   78MOL   C31743591   4.035   6.914   3.464  0.4956 -0.0357 -0.3878
   78MOL   C31843592   3.913   6.896   3.531 -0.0448 -0.0896 -0.3182
   78MOL   C31943593   3.785   6.880   3.456  0.3369 -0.2282 -0.0112
   78MOL   O32043594   3.794   6.872   3.316 -0.2477 -0.2106 -0.2062
   78MOL   C32143595   3.680   6.841   3.240 -0.0759 -0.7065 -0.2228
   78MOL   C32243596   3.640   6.977   3.172 -0.1029  0.3228  0.4579
   78MOL   O32343597   3.669   6.882   3.506  0.3473 -0.2423 -0.8223
   78MOL   C32443598   3.910   6.893   3.672 -0.4507  0.0223  0.6781
   78MOL   C32543599   4.031   6.895   3.741  0.3623  0.5073 -0.2616
   78MOL   C32643600   4.031   6.878   3.883  0.4497 -0.8255 -0.0908
   78MOL   C32743601   4.151   6.885   3.962  0.2094  0.0612  0.4397
   78MOL   H32843602   4.367   6.928   3.697 -1.4776  0.3756 -0.8161
   78MOL   H32943603   4.252   6.931   3.497 -0.6961 -0.5638 -1.2198
   78MOL   H33043604   4.043   6.906   3.357 -2.4480 -0.8829 -0.5651
   78MOL   H33143605   3.594   6.807   3.298  0.0291 -1.5399 -0.5443
   78MOL   H33243606   3.709   6.760   3.173  0.8185  0.7165 -1.6067
   78MOL   H33343607   3.728   7.022   3.126 -0.7896  0.1988 -1.0279
   78MOL   H33443608   3.572   6.960   3.088  1.1489 -0.7950 -0.3468
   78MOL   H33543609   3.820   6.884   3.730 -1.0208  0.7271 -0.0895
   78MOL   H33643610   3.935   6.891   3.931  0.6562  1.5760 -0.2594
   78MOL   H33743611   4.143   6.882   4.069 -2.5140  2.4021  0.3580
   78MOL   O33843612   3.774   7.172   3.310  0.2526 -0.3371 -0.6841
   78MOL   C33943613   3.652   7.153   3.327 -0.1882 -0.3741 -0.0561
   78MOL   O34043614   3.578   7.060   3.259  0.2603 -0.0033 -0.8300
   78MOL   C34143615   3.570   7.233   3.424 -0.1309  0.5561  0.8723
   78MOL   C34243616   3.429   7.215   3.431 -1.1963  0.3327  0.4261
   78MOL   C34343617   3.355   7.284   3.529  0.1012  0.0536 -0.0024
   78MOL   C34443618   3.215   7.263   3.543 -0.6405  0.3071 -0.0565
   78MOL   C34543619   3.143   7.329   3.641  0.3061 -0.2999  0.8678
   78MOL   C34643620   3.200   7.416   3.735  1.2277  0.4269 -0.3121
   78MOL   C34743621   3.122   7.489   3.838 -0.4740 -0.2465 -0.2118
   78MOL   O34843622   2.998   7.485   3.805  0.7682 -0.3423  0.0323
   78MOL   C34943623   2.904   7.552   3.887  0.2106  0.3364 -0.2473
   78MOL   C35043624   2.773   7.533   3.821 -0.0957 -0.4901  0.4083
   78MOL   O35143625   3.170   7.552   3.932 -0.3805  0.2823  0.0355
   78MOL   C35243626   3.336   7.437   3.721 -0.0080 -0.3188 -0.2470
   78MOL   C35343627   3.415   7.370   3.624  0.4265 -0.5018  0.3460
   78MOL   C35443628   3.547   7.387   3.608  0.2846  0.3377  0.5657
   78MOL   C35543629   3.626   7.330   3.506 -0.0959 -0.0916 -1.0118
   78MOL   H35643630   3.384   7.157   3.352  0.4382  0.5240 -0.6777
   78MOL   H35743631   3.173   7.189   3.475 -0.5927  0.6729 -0.4856
   78MOL   H35843632   3.038   7.309   3.659  0.2426  0.5192  1.4327
   78MOL   H35943633   2.916   7.659   3.905  2.9244 -0.2103  1.5089
   78MOL   H36043634   2.908   7.502   3.984 -0.4469  1.4613  0.3787
   78MOL   H36143635   2.694   7.586   3.874  0.2679  0.7328 -0.2544
   78MOL   H36243636   2.778   7.553   3.714  0.2537 -0.3121  0.4590
   78MOL   H36343637   3.383   7.492   3.801  0.3093 -0.4730 -0.3290
   78MOL   H36443638   3.596   7.455   3.677  0.3060 -1.3309  2.2308
   78MOL   H36543639   3.733   7.342   3.494  0.2567 -0.3064  1.6301
   78MOL   O36643640   2.661   7.391   4.027 -0.3491 -0.6241  0.3658
   78MOL   C36743641   2.692   7.335   3.921  0.2710  0.4181  0.0325
   78MOL   O36843642   2.741   7.397   3.814 -0.6216  0.4100  0.8518
   78MOL   C36943643   2.683   7.183   3.912  0.4501  0.1527  0.3803
   78MOL   C37043644   2.641   7.109   4.025  0.0917  0.4834  0.3393
   78MOL   C37143645   2.623   6.966   4.019  0.2185 -0.2158 -0.4222
   78MOL   C37243646   2.576   6.892   4.128 -0.3910 -0.3872 -0.0271
   78MOL   C37343647   2.552   6.753   4.120  0.1464 -0.3828  0.2659
   78MOL   C37443648   2.580   6.688   3.996 -0.5553  0.2969  0.4316
   78MOL   C37543649   2.536   6.546   3.970  0.4460  0.2752 -0.7430
   78MOL   O37643650   2.444   6.502   4.054 -0.2103 -0.1875  0.6089
   78MOL   C37743651   2.379   6.373   4.046 -0.6645 -0.5921 -0.0084
   78MOL   C37843652   2.354   6.311   4.182  0.2270 -0.2442 -0.0097
   78MOL   O37943653   2.576   6.477   3.876  0.0505  0.3070 -0.7351
   78MOL   C38043654   2.634   6.757   3.886  0.7860  0.1039  0.8364
   78MOL   C38143655   2.649   6.900   3.892  0.1990  0.3062  0.3527
   78MOL   C38243656   2.696   6.975   3.779  0.0905  0.1936 -0.3940
   78MOL   C38343657   2.713   7.116   3.794  0.4114 -0.9318 -0.6483
   78MOL   H38443658   2.600   7.160   4.111  1.6389  1.3937  0.5578
   78MOL   H38543659   2.563   6.943   4.222  2.0557 -1.3936  0.9226
   78MOL   H38643660   2.506   6.693   4.198 -0.7597  1.5157  1.2280
   78MOL   H38743661   2.429   6.301   3.983 -0.5291 -0.8423  0.3840
   78MOL   H38843662   2.285   6.396   3.995 -0.5861 -2.2714 -0.9236
   78MOL   H38943663   2.302   6.216   4.171 -1.0444  0.6999 -2.5785
   78MOL   H39043664   2.443   6.290   4.241 -0.1450  0.9253  0.9994
   78MOL   H39143665   2.640   6.713   3.788  0.9985  3.1803 -0.5866
   78MOL   H39243666   2.720   6.933   3.683 -0.2875  0.4027 -0.5783
   78MOL   H39343667   2.739   7.176   3.708 -0.4390 -0.4467 -0.5734
   78MOL   O39443668   2.424   6.513   4.358 -0.1891  0.4079 -0.2662
   78MOL   C39543669   2.306   6.482   4.344  0.0029  0.5131 -0.7817
   78MOL   O39643670   2.261   6.392   4.257  0.0982  0.8620 -0.6397
   78MOL   C39743671   2.203   6.556   4.423 -0.2657  0.3279  0.5091
   78MOL   C39843672   2.238   6.643   4.527 -0.0423 -0.3405  0.6503
   78MOL   C39943673   2.143   6.694   4.616  1.0551  0.4266  0.6040
   78MOL   C40043674   2.186   6.766   4.725 -0.2327 -0.2469 -0.2781
   78MOL   C40143675   2.087   6.818   4.818 -0.7389  0.1090 -0.0126
   78MOL   C40243676   1.950   6.801   4.792  0.2374  0.3006  0.4122
   78MOL   C40343677   1.844   6.866   4.867  0.2401  0.8547 -0.0768
   78MOL   O40443678   1.900   6.967   4.944 -0.0952  0.3139  0.2902
   78MOL   C40543679   1.820   7.042   5.038 -1.1969  1.0622  0.5638
   78MOL   C40643680   1.753   7.167   4.973  0.5887 -0.0055  0.5878
   78MOL   O40743681   1.729   6.826   4.856  0.2119  0.2298  0.5584
   78MOL   C40843682   1.914   6.722   4.682 -0.4335  0.1138 -0.0480
   78MOL   C40943683   2.009   6.670   4.594  0.2006  0.8588 -1.0019
   78MOL   C41043684   1.974   6.584   4.490 -0.1637 -0.3032 -0.3094
   78MOL   C41143685   2.067   6.529   4.399 -0.3070  0.5320  0.5441
   78MOL   H41243686   2.342   6.663   4.549  0.1697  0.3068 -0.8769
   78MOL   H41343687   2.289   6.793   4.747 -0.5422 -0.0949  1.0565
   78MOL   H41443688   2.123   6.876   4.902 -0.8642  1.2373 -0.7366
   78MOL   H41543689   1.875   7.080   5.124 -0.5561  0.7100  0.3065
   78MOL   H41643690   1.751   6.969   5.079 -0.9414  1.5012  1.7947
   78MOL   H41743691   1.832   7.242   4.969  0.5357  0.1827  2.7024
   78MOL   H41843692   1.702   7.132   4.882  1.0765 -2.4948  1.2411
   78MOL   H41943693   1.811   6.691   4.675 -0.4172 -0.5608  2.2716
   78MOL   H42043694   1.877   6.539   4.473  0.6869 -3.0210  1.6466
   78MOL   H42143695   2.037   6.459   4.323  1.1477  1.2277 -0.7113
   78MOL   O42243696   1.772   7.368   5.171  0.1371 -0.0343 -0.3241
   78MOL   C42343697   1.666   7.301   5.151 -0.1009 -0.0726 -1.0341
   78MOL   O42443698   1.649   7.208   5.060 -0.6094 -0.0214 -0.4435
   78MOL   C42543699   1.548   7.317   5.245 -0.0552 -0.2012  0.0449
   78MOL   C42643700   1.564   7.413   5.351  0.5632  0.4212 -0.6078
   78MOL   C42743701   1.457   7.425   5.449 -0.5611 -0.5049 -0.1744
   78MOL   C42843702   1.462   7.518   5.553  0.5578 -0.1411 -0.2546
   78MOL   C42943703   1.363   7.523   5.656 -0.0721 -0.2869  0.3548
   78MOL   C43043704   1.243   7.447   5.634  0.1831 -0.1699 -0.2323
   78MOL   C43143705   1.129   7.428   5.732 -0.1806 -0.2851  0.3433
   78MOL   O43243706   1.141   7.514   5.841 -0.2206 -0.5414 -0.1607
   78MOL   C43343707   1.026   7.549   5.915  0.6359  0.4039  0.6256
   78MOL   C43443708   0.995   7.700   5.885  0.9150  0.6729  0.0544
   78MOL   O43543709   1.033   7.363   5.716  0.3282  0.4199  0.1302
   78MOL   C43643710   1.230   7.363   5.519  0.3080 -0.0600 -0.3644
   78MOL   C43743711   1.336   7.347   5.434  0.1891  0.6716  0.4160
   78MOL   C43843712   1.328   7.251   5.332 -0.0416 -0.3205  1.1731
   78MOL   C43943713   1.427   7.238   5.234 -0.4577 -1.1179 -0.1140
   78MOL   H44043714   1.649   7.479   5.354  1.1510 -0.2025 -2.4759
   78MOL   H44143715   1.554   7.575   5.562  1.0125 -1.0124  0.6085
   78MOL   H44243716   1.376   7.595   5.736 -0.1838 -2.4582  2.3602
   78MOL   H44343717   1.046   7.527   6.020  1.8562  1.0798  0.5458
   78MOL   H44443718   0.929   7.505   5.891  1.1583 -0.1934 -0.4576
   78MOL   H44543719   0.926   7.742   5.959 -0.4908  0.1170 -0.9192
   78MOL   H44643720   1.085   7.761   5.891  0.6322  0.8716  2.6511
   78MOL   H44743721   1.141   7.305   5.504  1.4834 -2.3392  1.1434
   78MOL   H44843722   1.237   7.193   5.324 -1.2347  1.8628 -2.8474
   78MOL   H44943723   1.418   7.169   5.152  2.1898 -1.1393 -0.4311
   78MOL   O45043724   0.735   7.643   5.774 -0.1446  0.3281  0.2775
   78MOL   C45143725   0.823   7.691   5.713 -0.6680  0.2017 -0.4402
   78MOL   O45243726   0.946   7.733   5.761  0.3648  0.0689  0.4749
   78MOL   C45343727   0.810   7.724   5.567 -0.6758 -0.4018 -0.3336
   78MOL   C45443728   0.698   7.665   5.506 -0.3584 -0.0824 -0.0891
   78MOL   C45543729   0.667   7.694   5.372 -1.3076  0.2124  0.1825
   78MOL   C45643730   0.551   7.639   5.314  0.4114 -0.4979 -0.0961
   78MOL   C45743731   0.529   7.666   5.179  0.6037 -0.0575 -0.2232
   78MOL   C45843732   0.617   7.745   5.103  0.0565  0.0170  0.1536
   78MOL   C45943733   0.601   7.772   4.958  0.1489  0.3050  0.7368
   78MOL   O46043734   0.503   7.701   4.901  0.1296  0.3392 -0.2339
   78MOL   C46143735   0.479   7.704   4.761 -0.3560 -0.9938  1.0175
   78MOL   C46243736   0.383   7.595   4.719 -0.4623  0.0989 -0.1261
   78MOL   O46343737   0.678   7.847   4.898 -0.0018  0.1940  0.3702
   78MOL   C46443738   0.729   7.806   5.171 -0.5361  0.0260 -0.3559
   78MOL   C46543739   0.755   7.782   5.303 -0.0742 -0.4700  0.2169
   78MOL   C46643740   0.865   7.840   5.363  0.1868 -0.2561  0.3028
   78MOL   C46743741   0.892   7.809   5.497  0.9312 -0.5097  0.2275
   78MOL   H46843742   0.625   7.611   5.564  0.3670 -0.3079  0.6205
   78MOL   H46943743   0.488   7.568   5.367 -2.9564  3.0927  0.9158
   78MOL   H47043744   0.445   7.618   5.129 -0.5960  0.1315  1.5475
   78MOL   H47143745   0.573   7.697   4.706  0.1014  0.2906  1.6161
   78MOL   H47243746   0.434   7.798   4.730  2.2705  0.0046  0.0812
   78MOL   H47343747   0.374   7.591   4.610 -2.1451  0.0519  0.0022
   78MOL   H47443748   0.430   7.501   4.749 -1.1916 -0.0311  0.6187
   78MOL   H47543749   0.797   7.872   5.120 -0.0441 -0.7829 -0.7554
   78MOL   H47643750   0.928   7.906   5.305  3.1387 -1.6548  1.8565
   78MOL   H47743751   0.984   7.846   5.541  0.0865  2.8265 -0.6787
   78MOL   O47843752   0.279   7.498   4.948  0.3914  0.3398 -0.8496
   78MOL   C47943753   0.208   7.556   4.860  0.0675  0.1809 -0.0808
   78MOL   O48043754   0.247   7.605   4.748  0.4940  0.1149  0.2241
   78MOL   C48143755   0.056   7.556   4.867 -0.1552  0.1433  0.2525
   78MOL   C48243756   8.238   7.445   4.929 -0.8223 -0.3168 -0.3927
   78MOL   C48343757   8.096   7.437   4.935 -0.1237  0.5135  0.0150
   78MOL   C48443758   8.036   7.324   4.984  0.3500 -0.7924 -0.3383
   78MOL   C48543759   7.893   7.307   4.977 -0.3116 -0.0584 -0.7659
   78MOL   C48643760   7.817   7.409   4.923  0.2909  0.5256  0.5647
   78MOL   C48743761   7.661   7.392   4.911 -0.2957  0.6674  0.4095
   78MOL   O48843762   7.629   7.271   4.891 -0.2925 -0.8379  0.5588
   78MOL   C48943763   7.500   7.245   4.817  0.4177 -0.5674 -0.4418
   78MOL   C49043764   7.374   7.249   4.908 -0.0499  0.1227 -0.0283
   78MOL   O49143765   7.586   7.482   4.895 -0.0407  0.0343  0.1921
   78MOL   C49243766   7.874   7.528   4.877 -0.2374 -0.7727 -0.3103
   78MOL   C49343767   8.018   7.536   4.876 -0.3759 -0.2926  0.1594
   78MOL   C49443768   8.086   7.650   4.821  0.3658  0.6526 -0.7372
   78MOL   C49543769   8.222   7.657   4.818  0.0997 -0.5099  0.2752
   78MOL   H49643770   0.049   7.366   4.971  0.7895  0.4376 -1.2270
   78MOL   H49743771   8.100   7.241   5.011  1.5070  0.0994 -0.3282
   78MOL   H49843772   7.839   7.220   5.011 -1.3352  0.9460  0.2672
   78MOL   H49943773   7.497   7.147   4.770  1.7903  1.2418 -4.5124
   78MOL   H50043774   7.487   7.314   4.733  0.2620 -0.6172 -0.4590
   78MOL   H50143775   7.370   7.345   4.959 -0.0196  0.0937  0.0301
   78MOL   H50243776   7.288   7.234   4.843  0.0095 -0.6712  0.0647
   78MOL   H50343777   7.805   7.600   4.835 -0.8353 -0.8680  0.4955
   78MOL   H50443778   8.026   7.728   4.775 -0.0302  0.9995  0.3422
   78MOL   H50543779   0.011   7.743   4.766  1.1280 -0.5924  0.8888
   78MOL   O50643780   7.318   7.268   5.174 -0.3689 -0.9886 -0.3469
   78MOL   C50743781   7.359   7.162   5.135  0.2083  0.2689  0.0326
   78MOL   O50843782   7.383   7.140   5.000 -0.2810 -0.5797 -0.3629
   78MOL   C50943783   7.368   7.034   5.213 -0.1125 -0.3340  0.1999
   78MOL   C51043784   7.397   7.037   5.351  0.4081 -0.2669 -0.1105
   78MOL   C51143785   7.384   6.921   5.428  1.5102  0.1587  0.1639
   78MOL   C51243786   7.417   6.935   5.563 -0.4352 -0.4336 -0.3668
   78MOL   C51343787   7.397   6.823   5.646  0.0369  0.2580 -0.6143
   78MOL   C51443788   7.353   6.703   5.586 -0.1026  0.2335  0.2102
   78MOL   C51543789   7.326   6.577   5.673  0.2585 -0.2678 -0.3527
   78MOL   O51643790   7.314   6.461   5.606  0.4187 -0.8524 -0.3253
   78MOL   C51743791   7.257   6.342   5.664  0.1190 -0.0548  0.5561
   78MOL   C51843792   7.355   6.227   5.656  0.0067  0.7049 -0.9510
   78MOL   O51943793   7.312   6.588   5.794 -0.2553 -0.5312  0.4950
   78MOL   C52043794   7.327   6.679   5.449 -0.2467  0.5609 -0.0701
   78MOL   C52143795   7.335   6.796   5.372  0.4553 -0.1728 -0.0564
   78MOL   C52243796   7.301   6.793   5.231  0.0098  0.5419  0.0314
   78MOL   C52343797   7.322   6.910   5.154  0.5462 -0.0877 -0.1906
   78MOL   H52443798   7.420   7.122   5.414 -0.1631 -0.0146 -0.2323
   78MOL   H52543799   7.441   7.029   5.612  0.1746 -0.5191 -0.4895
   78MOL   H52643800   7.420   6.837   5.751 -3.3152  0.4040  0.1561
   78MOL   H52743801   7.164   6.324   5.610  0.3469  1.1260 -0.2458
   78MOL   H52843802   7.238   6.349   5.771  3.1964 -0.5254  1.1824
   78MOL   H52943803   7.294   6.138   5.667 -0.3298  1.1661  1.1081
   78MOL   H53043804   7.402   6.226   5.558  0.5112 -0.5545 -0.7075
   78MOL   H53143805   7.308   6.581   5.407 -1.2090 -0.6937  3.1337
   78MOL   H53243806   7.266   6.703   5.183  4.1709  0.1392 -2.4304
   78MOL   H53343807   7.304   6.915   5.048 -0.7115  1.0791  0.0653
   78MOL   O53443808   7.566   6.071   5.704  0.3480  0.3481 -0.6241
   78MOL   C53543809   7.544   6.172   5.778 -0.2432 -0.1503 -0.5686
   78MOL   O53643810   7.443   6.253   5.760  0.1546 -0.3011 -0.0935
   78MOL   C53743811   7.615   6.201   5.905  0.0526  0.6682 -0.0874
   78MOL   C53843812   7.743   6.140   5.932 -0.3845 -0.2717  0.5202
   78MOL   C53943813   7.817   6.168   6.047 -0.0037  0.0887  0.3832
   78MOL   C54043814   7.935   6.101   6.080  0.2896  0.0667  0.5394
   78MOL   C54143815   8.004   6.128   6.205 -0.7453 -0.8339  0.0657
   78MOL   C54243816   7.954   6.225   6.294 -0.4394  0.0706  0.0026
   78MOL   C54343817   8.025   6.272   6.418 -0.1803  0.8472 -0.1557
   78MOL   O54443818   8.127   6.188   6.456  0.1994 -0.6125  0.3120
   78MOL   C54543819   8.182   6.203   6.587 -0.4325 -0.0558  1.0865
   78MOL   C54643820   0.050   6.102   6.584 -0.2521  0.1411  0.2182
   78MOL   O54743821   7.988   6.363   6.491  0.6176  0.4178  0.0181
   78MOL   C54843822   7.836   6.291   6.257 -0.0342 -0.1104 -0.2032
   78MOL   C54943823   7.762   6.254   6.141  0.1876 -0.3202 -0.0669
   78MOL   C55043824   7.639   6.320   6.115 -0.6998  0.8363 -0.3498
   78MOL   C55143825   7.564   6.295   5.998  0.0569  0.0561 -0.4956
   78MOL   H55243826   7.772   6.056   5.872 -3.8554 -1.1245 -0.0774
   78MOL   H55343827   7.966   6.012   6.027 -0.7218 -1.9206  3.1617
   78MOL   H55443828   8.091   6.067   6.225 -0.1189 -1.0908 -3.2382
   78MOL   H55543829   8.101   6.189   6.659 -2.0086  0.9507 -0.4579
   78MOL   H55643830   8.223   6.303   6.597  2.0722 -0.7776 -1.2925
   78MOL   H55743831   0.109   6.102   6.675 -1.2104 -3.4739  0.9194
   78MOL   H55843832   0.125   6.118   6.506 -0.0967  0.2359  0.3873
   78MOL   H55943833   7.794   6.363   6.326  0.7774  1.2573 -1.1168
   78MOL   H56043834   7.594   6.380   6.193 -1.9362 -0.9095  0.3076
   78MOL   H56143835   7.471   6.347   5.981 -0.9029 -1.6389 -0.5259
   78MOL   H56243836   0.026   5.997   6.567 -2.8845  1.0778 -2.2989
   79MOL     O143837   0.689   6.414   3.999 -0.3863 -0.0424 -0.3546
   79MOL     C243838   0.581   6.381   3.951 -1.1661 -0.7986 -1.6286
   79MOL     O343839   0.491   6.467   3.906 -0.1594  0.0859  0.0095
   79MOL     C443840   0.534   6.239   3.961  0.3453 -0.1125  0.2319
   79MOL     C543841   0.606   6.138   4.028 -0.2628  0.0625  0.2630
   79MOL     C643842   0.553   6.008   4.040 -0.5487  0.0929  0.5219
   79MOL     C743843   0.608   5.912   4.121  0.1927 -0.4368  0.1834
   79MOL     C843844   0.550   5.786   4.133 -0.3947  0.7428 -0.4425
   79MOL     C943845   0.418   5.761   4.088 -0.6128  0.2304 -0.7321
   79MOL    C1043846   0.350   5.630   4.120 -0.2234 -0.1025  0.1750
   79MOL    O1143847   0.212   5.627   4.111 -0.5248  0.1080  0.0152
   79MOL    C1243848   0.153   5.493   4.109  0.5288  0.4972  0.0067
   79MOL    C1343849   0.056   5.485   3.991 -0.7160 -0.1375  0.2656
   79MOL    O1443850   0.416   5.539   4.168 -0.0104  0.3750 -0.4827
   79MOL    C1543851   0.361   5.860   4.002 -0.4312  0.7040 -0.0024
   79MOL    C1643852   0.429   5.982   3.980  0.1825 -0.3781 -0.2241
   79MOL    C1743853   0.362   6.077   3.906  1.2250  0.7984 -0.3492
   79MOL    C1843854   0.408   6.212   3.911 -0.4015  0.3102  0.1663
   79MOL    H1943855   0.700   6.164   4.076 -2.6652  3.7290  3.3227
   79MOL    H2043856   0.706   5.933   4.162  0.1351  0.6911 -0.2550
   79MOL    H2143857   0.595   5.719   4.205 -1.7848 -0.2730 -0.4917
   79MOL    H2243858   0.226   5.412   4.101 -0.3598 -0.6636  2.9839
   79MOL    H2343859   0.095   5.484   4.201  1.2188  0.5772  0.4472
   79MOL    H2443860   0.049   5.382   3.956 -1.8611 -0.2073  0.6587
   79MOL    H2543861   8.209   5.535   4.005 -0.8785 -0.6013  0.8371
   79MOL    H2643862   0.267   5.837   3.955  0.0477  0.8993 -1.0517
   79MOL    H2743863   0.263   6.047   3.874  0.5044  1.0906  1.5165
   79MOL    H2843864   0.338   6.289   3.881  0.6678  0.8840 -0.9010
   79MOL    H2943865   0.474   6.540   3.963 -0.2577 -1.3775  1.9393
   79MOL    O3043866   8.180   5.649   3.808  0.1261 -0.0786  0.7033
   79MOL    C3143867   0.052   5.629   3.802  0.4951  0.1193 -0.1496
   79MOL    O3243868   0.119   5.548   3.879  0.0536  1.2849  0.0306
   79MOL    C3343869   0.141   5.714   3.719  0.8296  0.5857  0.6694
   79MOL    C3443870   0.080   5.815   3.643 -0.4976  0.3321  0.0144
   79MOL    C3543871   0.161   5.895   3.555 -0.6720  0.3890  0.8288
   79MOL    C3643872   0.103   5.998   3.473 -0.2891 -0.3583 -0.7720
   79MOL    C3743873   0.171   6.071   3.380 -0.2968 -0.0947 -0.0662
   79MOL    C3843874   0.314   6.047   3.357  0.5427  0.5270  0.2467
   79MOL    C3943875   0.390   6.124   3.260 -0.4175  0.0052 -0.1353
   79MOL    O4043876   0.514   6.073   3.244 -0.2128 -0.6859 -0.1455
   79MOL    C4143877   0.618   6.141   3.171 -0.3106 -0.4874  0.5921
   79MOL    C4243878   0.746   6.138   3.248  0.3826 -0.2703  0.1014
   79MOL    O4343879   0.357   6.216   3.192  0.6873 -0.0563  0.4643
   79MOL    C4443880   0.373   5.942   3.434  0.0546  0.0196 -0.2358
   79MOL    C4543881   0.298   5.877   3.538 -0.2779  0.2208  0.4915
   79MOL    C4643882   0.357   5.772   3.613  0.2447 -0.0342 -0.3501
   79MOL    C4743883   0.282   5.692   3.704 -0.2697 -0.1066 -0.2802
   79MOL    H4843884   8.224   5.833   3.654 -0.7494  0.3538 -2.1674
   79MOL    H4943885   8.246   6.018   3.476  0.0319  1.4822 -0.8316
   79MOL    H5043886   0.112   6.155   3.345 -1.4564  0.0296  2.1398
   79MOL    H5143887   0.592   6.246   3.159  1.1353 -0.2105 -0.1664
   79MOL    H5243888   0.632   6.105   3.069  0.1982  3.6400 -0.9042
   79MOL    H5343889   0.811   6.221   3.219 -1.0116  0.4162 -1.1444
   79MOL    H5443890   0.725   6.146   3.355 -0.6281 -1.2160 -0.0276
   79MOL    H5543891   0.466   5.896   3.404  0.2555  0.1089  0.2502
   79MOL    H5643892   0.464   5.758   3.605  0.3332  0.2783  0.2534
   79MOL    H5743893   0.334   5.623   3.769  0.7518 -0.5327 -1.5162
   79MOL    O5843894   0.724   5.914   3.402  0.7877 -0.1042  0.3095
   79MOL    C5943895   0.805   5.908   3.309 -0.2573  0.1051  0.3925
   79MOL    O6043896   0.822   6.018   3.216  0.2258 -0.5566 -0.0264
   79MOL    C6143897   0.908   5.807   3.289  0.1912  0.4751  0.0846
   79MOL    C6243898   0.977   5.781   3.165  0.1457  0.1404  0.8211
   79MOL    C6343899   1.062   5.664   3.148 -0.1175  0.3545  0.3852
   79MOL    C6443900   1.109   5.626   3.020  0.0272 -0.2569 -0.4891
   79MOL    C6543901   1.207   5.527   3.010 -0.2426 -0.3420  0.4154
   79MOL    C6643902   1.243   5.449   3.123  0.7739  0.4232 -0.0072
   79MOL    C6743903   1.347   5.351   3.107 -0.0245  0.3917  0.1083
   79MOL    O6843904   1.336   5.245   3.187  0.6767  0.5899 -0.0790
   79MOL    C6943905   1.442   5.154   3.208 -0.1302 -0.0169 -0.5681
   79MOL    C7043906   1.551   5.237   3.265 -0.1758  0.0725 -0.6036
   79MOL    O7143907   1.447   5.364   3.032 -0.7273 -0.1186  0.0958
   79MOL    C7243908   1.180   5.473   3.248  0.4266 -0.3443  0.4056
   79MOL    C7343909   1.093   5.586   3.266 -0.0763 -0.2536 -0.4046
   79MOL    C7443910   1.032   5.614   3.390  0.3053  0.6064 -0.7771
   79MOL    C7543911   0.938   5.720   3.399  0.2531  0.3682 -0.1402
   79MOL    H7643912   0.956   5.843   3.079 -0.8484  1.3064  1.8727
   79MOL    H7743913   1.083   5.690   2.937  0.1560 -0.0071 -0.3392
   79MOL    H7843914   1.265   5.517   2.920  1.0673 -1.2189  1.3372
   79MOL    H7943915   1.478   5.111   3.115  0.4014 -2.9439  0.9370
   79MOL    H8043916   1.408   5.070   3.269  0.0920 -0.0164 -0.4420
   79MOL    H8143917   1.641   5.176   3.275 -0.4633  0.0571  2.0136
   79MOL    H8243918   1.582   5.335   3.227  0.6671  1.5690  3.6977
   79MOL    H8343919   1.198   5.427   3.344 -1.1876  1.8841  1.7964
   79MOL    H8443920   1.052   5.550   3.475 -1.2453 -1.1027 -1.6548
   79MOL    H8543921   0.880   5.730   3.490 -1.0641  2.1522 -1.1295
   79MOL    O8643922   1.719   5.277   3.477 -0.2506 -0.1864 -0.4424
   79MOL    C8743923   1.598   5.297   3.491 -0.6743 -0.2647 -0.1478
   79MOL    O8843924   1.508   5.271   3.399 -0.1221  0.2746  0.4738
   79MOL    C8943925   1.544   5.351   3.621  0.9767  0.2737  0.6120
   79MOL    C9043926   1.418   5.401   3.627 -0.2655 -0.1832  0.0417
   79MOL    C9143927   1.368   5.445   3.749  0.0327 -0.3557 -0.4884
   79MOL    C9243928   1.244   5.509   3.746 -0.7838 -0.0329 -0.4959
   79MOL    C9343929   1.180   5.538   3.870 -0.7006  0.0718  0.5185
   79MOL    C9443930   1.245   5.507   3.989 -0.6382  0.3182 -0.4440
   79MOL    C9543931   1.176   5.534   4.124  0.3608  0.1434  0.0087
   79MOL    O9643932   1.058   5.595   4.110 -0.3570 -0.2864  0.4893
   79MOL    C9743933   0.986   5.633   4.222 -0.5584 -0.5659 -0.3900
   79MOL    C9843934   0.955   5.515   4.313 -0.6486 -0.5342  0.7083
   79MOL    O9943935   1.216   5.495   4.235  0.8443  0.1919 -0.6479
   79MOL   C10043936   1.379   5.461   3.990  1.7379  0.2903  0.4220
   79MOL   C10143937   1.439   5.430   3.870  0.2320 -0.6393 -0.0674
   79MOL   C10243938   1.565   5.375   3.864  0.6619  0.1229  0.1975
   79MOL   C10343939   1.619   5.343   3.738 -0.1926  0.5014 -0.3302
   79MOL   H10443940   1.366   5.421   3.534 -1.0885  0.3561  0.6108
   79MOL   H10543941   1.187   5.509   3.655 -2.9575  0.4321  0.8205
   79MOL   H10643942   1.082   5.583   3.878 -0.9721 -0.2789 -0.7738
   79MOL   H10743943   0.889   5.674   4.194 -1.3914 -1.4398  1.1672
   79MOL   H10843944   1.042   5.707   4.280 -0.1858  0.2976 -1.8256
   79MOL   H10943945   0.936   5.436   4.241 -0.8497  0.4752 -0.3582
   79MOL   H11043946   1.033   5.488   4.384 -0.8524 -1.1612  0.7006
   79MOL   H11143947   1.439   5.446   4.079  4.0794 -1.7530 -1.4027
   79MOL   H11243948   1.620   5.356   3.955 -0.2548 -3.8981 -0.0091
   79MOL   H11343949   1.719   5.304   3.728  0.1563  1.3269 -0.1102
   79MOL   O11443950   0.900   5.714   4.490 -0.5527  0.0371 -0.5115
   79MOL   C11543951   0.822   5.623   4.468 -0.0035 -0.2282 -0.5631
   79MOL   O11643952   0.837   5.535   4.379 -0.0955  0.5178 -0.4150
   79MOL   C11743953   0.696   5.610   4.542 -0.7561  0.2496  0.7700
   79MOL   C11843954   0.580   5.552   4.481  0.0357 -0.1191 -0.1675
   79MOL   C11943955   0.473   5.533   4.564  0.6357  0.0981  0.2422
   79MOL   C12043956   0.357   5.477   4.507 -0.2328  0.1141 -0.4200
   79MOL   C12143957   0.246   5.451   4.579 -0.4451 -0.2617  0.8338
   79MOL   C12243958   0.242   5.486   4.719  0.9416 -0.1722 -0.1933
   79MOL   C12343959   0.116   5.471   4.793  1.0997  0.4890 -0.4759
   79MOL   O12443960   0.026   5.382   4.735 -0.0168 -0.1366 -0.0266
   79MOL   C12543961   8.146   5.361   4.799 -0.1405 -0.2754 -0.0974
   79MOL   C12643962   8.095   5.220   4.751 -0.0331  0.0520  0.4245
   79MOL   O12743963   0.079   5.536   4.889 -0.6984 -0.1025 -0.8601
   79MOL   C12843964   0.351   5.554   4.777  0.0941 -0.1947 -0.8994
   79MOL   C12943965   0.469   5.581   4.700  0.4257 -0.1572  0.4053
   79MOL   C13043966   0.575   5.646   4.753  0.4095 -0.1732  1.0591
   79MOL   C13143967   0.690   5.661   4.676 -0.3930  0.0358  0.2164
   79MOL   H13243968   0.574   5.527   4.376  0.1971 -0.1717 -0.1647
   79MOL   H13343969   0.345   5.455   4.402 -1.3560  0.3329 -0.3490
   79MOL   H13443970   0.161   5.415   4.524  1.3201 -3.9417  0.3492
   79MOL   H13543971   8.075   5.433   4.758  2.1294  0.8843 -2.1471
   79MOL   H13643972   8.157   5.385   4.905 -1.1298  2.4647 -0.5731
   79MOL   H13743973   8.160   5.141   4.788  2.4379  1.8835  0.0857
   79MOL   H13843974   7.997   5.201   4.795  0.0576  0.7271  0.9366
   79MOL   H13943975   0.335   5.582   4.880  1.6146  1.2757 -1.0290
   79MOL   H14043976   0.573   5.691   4.851  2.7136  0.1241  0.9809
   79MOL   H14143977   0.774   5.719   4.712  2.7238 -1.9487 -3.5263
   79MOL   O14243978   0.007   5.086   4.577  0.1413  0.1685 -0.7669
   79MOL   C14343979   8.170   5.156   4.529  0.4070  0.0966  0.0198
   79MOL   O14443980   8.080   5.220   4.606 -0.2006 -0.1266 -0.4169
   79MOL   C14543981   8.148   5.178   4.385  0.2685  0.4957  0.4692
   79MOL   C14643982   8.238   5.138   4.282  0.1231 -0.3150 -0.2227
   79MOL   C14743983   8.210   5.156   4.144  0.3145  0.1826 -0.4394
   79MOL   C14843984   0.055   5.109   4.053 -0.0539  0.6570 -0.5888
   79MOL   C14943985   0.025   5.120   3.917  0.0066  0.0717 -0.6615
   79MOL   C15043986   8.157   5.183   3.874 -0.6895 -0.0106  0.2438
   79MOL   C15143987   8.139   5.197   3.731  0.3770 -0.0708 -0.8857
   79MOL   O15243988   8.007   5.213   3.704 -0.0833  0.2182 -0.0512
   79MOL   C15343989   7.959   5.207   3.574  0.0958  0.0541 -0.3938
   79MOL   C15443990   7.904   5.076   3.523 -0.6058  0.2349  1.0061
   79MOL   O15543991   8.227   5.181   3.643 -0.1975  0.0069  0.0230
   79MOL   C15643992   8.064   5.233   3.967  0.0146  0.6337  0.2310
   79MOL   C15743993   8.092   5.217   4.104 -0.5085  0.3435  0.1182
   79MOL   C15843994   8.010   5.274   4.207  0.4603  0.0514  0.6272
   79MOL   C15943995   8.042   5.255   4.345  0.9218  0.1036  0.1779
   79MOL   H16043996   0.074   5.076   4.307 -0.2071 -0.9229 -0.5796
   79MOL   H16143997   0.140   5.051   4.087  0.7551  1.8768 -0.5006
   79MOL   H16243998   0.094   5.069   3.851 -0.1087 -0.2241 -0.5543
   79MOL   H16343999   8.039   5.242   3.509 -1.3199  1.8355 -1.2352
   79MOL   H16444000   7.884   5.286   3.570 -0.2255 -0.2122  0.3212
   79MOL   H16544001   7.851   5.025   3.604 -1.4852 -0.6300 -0.0955
   79MOL   H16644002   7.832   5.085   3.442 -1.2700 -1.9280  1.3116
   79MOL   H16744003   7.973   5.280   3.931  0.1438  0.2465 -0.6090
   79MOL   H16844004   7.917   5.324   4.181 -0.9496 -3.0761 -0.5615
   79MOL   H16944005   7.964   5.282   4.414  1.7410  0.7779  0.8506
   79MOL   O17044006   7.905   4.810   3.442 -0.3976  0.5692 -0.2606
   79MOL   C17144007   8.004   4.879   3.423 -0.0701  0.0878  0.2136
   79MOL   O17244008   8.021   5.018   3.467 -0.3743  0.0185  0.0289
   79MOL   C17344009   8.134   4.829   3.382 -0.9077 -0.0066  0.3507
   79MOL   C17444010   0.004   4.911   3.385 -0.3774 -0.0976  0.1613
   79MOL   C17544011   0.123   4.870   3.326 -0.9161  0.4265 -0.0012
   79MOL   C17644012   0.232   4.955   3.305  0.0042 -0.4273 -0.5063
   79MOL   C17744013   0.345   4.917   3.234  0.2401 -0.0927  0.1062
   79MOL   C17844014   0.362   4.786   3.196  0.2369 -0.0558 -0.1430
   79MOL   C17944015   0.484   4.731   3.136  0.0266 -0.8992  0.1166
   79MOL   O18044016   0.585   4.822   3.142  0.0025  0.0502  0.0291
   79MOL   C18144017   0.713   4.794   3.089  1.2129 -0.6933 -0.5216
   79MOL   C18244018   0.819   4.744   3.183 -0.4427  0.7260 -0.1178
   79MOL   O18344019   0.494   4.622   3.083  0.4922 -0.1323  0.0719
   79MOL   C18444020   0.256   4.693   3.223  0.8216 -0.1525 -0.2359
   79MOL   C18544021   0.131   4.735   3.280 -0.2727 -0.0002 -0.9238
   79MOL   C18644022   0.023   4.648   3.292  0.3044  0.0935 -0.1002
   79MOL   C18744023   8.147   4.695   3.333  0.0337  0.5201  0.5555
   79MOL   H18844024   0.006   5.015   3.414 -0.4247 -0.2585  0.7485
   79MOL   H18944025   0.233   5.053   3.350 -0.1540 -0.1182 -1.1798
   79MOL   H19044026   0.430   4.982   3.220 -0.3337  0.5709 -0.3483
   79MOL   H19144027   0.740   4.895   3.058  0.1498 -0.6633 -1.3651
   79MOL   H19244028   0.708   4.718   3.011 -0.6367 -0.8338 -0.3048
   79MOL   H19344029   0.915   4.747   3.131 -0.6313 -0.6746 -0.5704
   79MOL   H19444030   0.833   4.816   3.264 -2.3190  0.5359  0.3956
   79MOL   H19544031   0.269   4.589   3.196  1.4823 -0.3943  0.9489
   79MOL   H19644032   0.012   4.553   3.242  1.0894  0.7549 -1.5641
   79MOL   H19744033   8.061   4.630   3.347  0.1406  0.1219 -0.5981
   79MOL   O19844034   0.987   4.550   3.210 -0.0674 -0.0667 -0.3047
   79MOL   C19944035   0.867   4.521   3.226  0.0367  0.3688 -0.2303
   79MOL   O20044036   0.777   4.619   3.222  0.3619 -0.2264 -0.1203
   79MOL   C20144037   0.822   4.386   3.270  0.1453  0.1644 -0.0202
   79MOL   C20244038   0.694   4.356   3.320 -0.0514  0.0858 -0.6621
   79MOL   C20344039   0.663   4.223   3.357  0.0595 -0.3383  0.0906
   79MOL   C20444040   0.533   4.192   3.401  0.1672 -0.1297  0.2636
   79MOL   C20544041   0.498   4.056   3.419  0.6376 -0.1139  0.7193
   79MOL   C20644042   0.586   3.949   3.398 -0.2822 -0.8717  0.4106
   79MOL   C20744043   0.542   3.807   3.417 -0.3385 -0.1477 -0.1711
   79MOL   O20844044   0.625   3.722   3.354 -0.2946 -0.3831 -0.0244
   79MOL   C20944045   0.572   3.589   3.337 -0.7064  0.1629 -0.1642
   79MOL   C21044046   0.615   3.499   3.456  0.4640  0.0107  0.0750
   79MOL   O21144047   0.432   3.782   3.470 -0.6890  0.1270  0.1196
   79MOL   C21244048   0.715   3.982   3.359  0.8981 -0.0836  0.3115
   79MOL   C21344049   0.754   4.113   3.330  0.2656  0.3605  0.8170
   79MOL   C21444050   0.880   4.144   3.291 -0.5108  0.3791  0.2148
   79MOL   C21544051   0.913   4.277   3.264 -0.2008  0.3386 -0.7102
   79MOL   H21644052   0.617   4.432   3.324 -1.3742 -1.3228  1.5061
   79MOL   H21744053   0.461   4.273   3.407 -0.3975 -0.5999 -0.0601
   79MOL   H21844054   0.397   4.031   3.450  0.0674 -0.3853 -1.2984
   79MOL   H21944055   0.607   3.543   3.244  2.6071 -0.9207  1.5326
   79MOL   H22044056   0.464   3.589   3.325 -0.4671  1.1383 -2.7610
   79MOL   H22144057   0.715   3.523   3.492  0.6029 -0.8372  0.2791
   79MOL   H22244058   0.562   3.511   3.550  0.5642  2.9116 -0.2120
   79MOL   H22344059   0.789   3.906   3.336  0.4007 -0.3779 -0.3489
   79MOL   H22444060   0.958   4.070   3.274  0.2856  0.8789  1.6134
   79MOL   H22544061   1.012   4.291   3.221  0.1410  1.2165  0.3467
   79MOL   O22644062   0.388   3.354   3.395 -0.4837 -0.4316 -0.2797
   79MOL   C22744063   0.499   3.296   3.388 -0.1411  0.3302  0.2554
   79MOL   O22844064   0.615   3.359   3.418  0.6344 -0.6986 -0.0287
   79MOL   C22944065   0.522   3.170   3.306 -0.2081 -0.1183  0.6601
   79MOL   C23044066   0.651   3.122   3.267 -0.1620 -0.5950  0.5854
   79MOL   C23144067   0.664   3.008   3.187  0.3421 -0.1180 -0.2281
   79MOL   C23244068   0.791   2.966   3.143 -0.0282 -0.1926  0.5178
   79MOL   C23344069   0.806   2.841   3.082  0.3358 -0.4830 -0.0075
   79MOL   C23444070   0.696   2.769   3.043  0.8336 -0.2772  0.3719
   79MOL   C23544071   0.715   2.635   2.986  0.0738 -0.1675  0.3169
   79MOL   O23644072   0.613   2.556   3.016 -0.2394 -0.1198  0.0902
   79MOL   C23744073   0.623   2.419   2.974 -1.1951 -0.2102 -0.0878
   79MOL   C23844074   0.596   2.398   2.828 -0.4855  0.5533  0.1223
   79MOL   O23944075   0.814   2.603   2.930 -0.2977  0.1104 -0.1477
   79MOL   C24044076   0.569   2.817   3.077 -0.2258  0.2446  0.0153
   79MOL   C24144077   0.550   2.937   3.147 -0.1458  0.1488 -0.4987
   79MOL   C24244078   0.418   2.986   3.177 -0.4104 -0.4235 -0.2168
   79MOL   C24344079   0.406   3.099   3.259  0.4339 -0.7982  0.0901
   79MOL   H24444080   0.735   3.178   3.306  0.1656 -1.8600  1.7542
   79MOL   H24544081   0.877   3.015   3.186 -0.7926  1.5910  0.0300
   79MOL   H24644082   0.904   2.800   3.066  0.5070 -0.0519 -0.0631
   79MOL   H24744083   0.561   2.349   3.031 -0.6510  1.5084  2.6946
   79MOL   H24844084   0.723   2.380   2.990  0.3247  2.2815 -3.0170
   79MOL   H24944085   0.524   2.318   2.810 -1.8178  1.5545  0.9731
   79MOL   H25044086   0.551   2.492   2.796  0.0799  1.1081  0.9166
   79MOL   H25144087   0.483   2.757   3.053 -2.5308  2.0632  3.2859
   79MOL   H25244088   0.330   2.939   3.134  0.7110 -1.4170 -1.4667
   79MOL   H25344089   0.308   3.132   3.291  1.2595  1.1032  0.7466
   79MOL   O25444090   0.651   2.481   2.562  0.2755 -0.3837 -0.4315
   79MOL   C25544091   0.727   2.404   2.624 -0.7841  0.0682 -0.6249
   79MOL   O25644092   0.716   2.369   2.754  0.0375  0.3381  0.0900
   79MOL   C25744093   0.838   2.330   2.563  0.2289  0.0401 -0.2465
   79MOL   C25844094   0.923   2.248   2.643 -0.0588 -0.5096  0.3518
   79MOL   C25944095   1.011   2.159   2.585  0.2729 -0.1959  0.1796
   79MOL   C26044096   1.083   2.075   2.671 -0.1343  0.3790 -0.3977
   79MOL   C26144097   1.159   1.969   2.616  0.2109 -0.1036 -0.2545
   79MOL   C26244098   1.181   1.954   2.477 -0.3799  0.1579  0.8135
   79MOL   C26344099   1.261   1.838   2.419  1.1781  0.7548 -0.6017
   79MOL   O26444100   1.260   1.832   2.283  0.1012  0.1568 -0.0425
   79MOL   C26544101   1.305   1.719   2.209  0.3668  0.6360 -0.2598
   79MOL   C26644102   1.266   1.731   2.064  0.3339  0.3902 -0.1475
   79MOL   O26744103   1.314   1.757   2.488  0.1063  0.3215  0.6328
   79MOL   C26844104   1.108   2.039   2.394 -0.4402 -0.1849 -0.1811
   79MOL   C26944105   1.021   2.137   2.447 -0.1509  0.1156 -0.0797
   79MOL   C27044106   0.946   2.225   2.365 -0.0282  0.8841  0.7356
   79MOL   C27144107   0.859   2.325   2.422 -0.5056 -0.3122  0.3871
   79MOL   H27244108   0.919   2.253   2.751  0.3227 -0.2945  0.3549
   79MOL   H27344109   1.074   2.065   2.779  0.0010  1.1881 -0.3136
   79MOL   H27444110   1.221   1.907   2.680 -2.0725 -0.0151  2.1797
   79MOL   H27544111   1.266   1.626   2.250  1.5714  0.4546  0.4866
   79MOL   H27644112   1.412   1.707   2.227  0.2362  2.3941  1.8550
   79MOL   H27744113   1.315   1.815   2.016  0.9415  1.3082  2.0003
   79MOL   H27844114   1.312   1.644   2.016 -0.5108 -0.1646  0.0288
   79MOL   H27944115   1.121   2.050   2.288 -1.1284 -0.2533 -0.2751
   79MOL   H28044116   0.956   2.215   2.258 -0.4615 -0.4215  0.8036
   79MOL   H28144117   0.792   2.379   2.356  0.1269 -0.5050 -0.4176
   79MOL   O28244118   1.100   1.965   2.081  0.5167 -0.3741 -0.6904
   79MOL   C28344119   1.056   1.854   2.042 -0.2820  0.6589 -0.1757
   79MOL   O28444120   1.126   1.739   2.040  0.8747  0.0789 -0.1335
   79MOL   C28544121   0.918   1.842   1.992 -0.2042  0.0829  0.8013
   79MOL   C28644122   0.819   1.941   2.026  0.1391 -0.0779  0.7532
   79MOL   C28744123   0.697   1.948   1.960 -0.1382 -0.0297  0.0342
   79MOL   C28844124   0.593   2.041   2.002 -0.1802  1.4135 -0.3751
   79MOL   C28944125   0.476   2.045   1.922  0.5635 -0.0282  0.2113
   79MOL   C29044126   0.451   1.956   1.816 -0.0929  0.1870  0.6398
   79MOL   C29144127   0.325   1.963   1.731  0.8980 -0.1377  0.2752
   79MOL   O29244128   0.253   2.076   1.736  0.0250  0.2176 -0.1376
   79MOL   C29344129   0.122   2.082   1.675 -0.7705 -0.5724  0.7015
   79MOL   C29444130   0.112   2.070   1.526 -0.3679  0.3764  0.0221
   79MOL   O29544131   0.297   1.871   1.660  0.2686  0.0545  0.0303
   79MOL   C29644132   0.552   1.855   1.785  0.2666  0.4466 -0.3562
   79MOL   C29744133   0.670   1.856   1.851  0.1152 -0.7338 -0.6486
   79MOL   C29844134   0.768   1.761   1.816  0.5219 -0.1831  0.0435
   79MOL   C29944135   0.891   1.756   1.881 -0.7639 -0.7994 -0.0911
   79MOL   H30044136   0.837   2.010   2.107  3.1602  2.3571 -1.8997
   79MOL   H30144137   0.598   2.085   2.100 -1.8404 -1.3316  0.9856
   79MOL   H30244138   0.395   2.104   1.962  1.1021  2.9822 -2.8999
   79MOL   H30344139   0.087   2.175   1.720 -1.7929  0.2000 -1.6334
   79MOL   H30444140   0.061   2.009   1.728  0.4248 -0.8719  1.7071
   79MOL   H30544141   0.155   1.977   1.487  1.3635  1.3414 -0.4030
   79MOL   H30644142   0.005   2.080   1.506 -0.0058  3.6659 -0.4292
   79MOL   H30744143   0.539   1.785   1.704  0.8827  1.9977 -1.8337
   79MOL   H30844144   0.738   1.691   1.739 -0.7273 -0.6481  0.9497
   79MOL   H30944145   0.960   1.681   1.845  0.8993  0.5980  0.1000
   79MOL   O31044146   0.376   2.113   1.423  0.0930 -0.2252 -0.5367
   79MOL   C31144147   0.284   2.192   1.407 -0.2181  0.7519  0.4550
   79MOL   O31244148   0.165   2.186   1.468  0.2710  0.4174 -1.0402
   79MOL   C31344149   0.292   2.309   1.323  0.6210 -0.3477  0.2432
   79MOL   C31444150   0.419   2.341   1.259 -0.1470 -0.1638 -0.1576
   79MOL   C31544151   0.427   2.450   1.173  0.7355  0.7002  0.8758
   79MOL   C31644152   0.546   2.499   1.124  0.6509  0.4993  0.1287
   79MOL   C31744153   0.564   2.619   1.053 -0.3607  0.9548  0.4825
   79MOL   C31844154   0.451   2.696   1.026 -0.5901 -0.1740 -0.0616
   79MOL   C31944155   0.464   2.819   0.941 -0.4825  0.1886 -0.2076
   79MOL   O32044156   0.562   2.809   0.850 -0.2560 -0.2389 -0.2973
   79MOL   C32144157   0.602   2.921   0.772  0.3394 -0.7249 -0.1358
   79MOL   C32244158   0.724   3.006   0.832  0.4880  0.0825 -0.0283
   79MOL   O32344159   0.379   2.913   0.936 -0.4731 -0.6004  0.0254
   79MOL   C32444160   0.325   2.655   1.076  0.2685  0.8854  0.3499
   79MOL   C32544161   0.316   2.530   1.150  0.8447  0.0343  0.2871
   79MOL   C32644162   0.188   2.500   1.208 -0.3013 -0.0614  0.6331
   79MOL   C32744163   0.181   2.390   1.294 -0.6370 -0.7630  0.0362
   79MOL   H32844164   0.509   2.288   1.283 -0.0069  0.0113 -0.2958
   79MOL   H32944165   0.633   2.441   1.150  0.1241  0.5139  1.9776
   79MOL   H33044166   0.665   2.647   1.027 -0.1391 -0.1376  0.1288
   79MOL   H33144167   0.514   2.985   0.770  0.9440  0.1569  0.7497
   79MOL   H33244168   0.633   2.890   0.673 -2.2372  2.8569 -2.1674
   79MOL   H33344169   0.737   3.104   0.788  0.7499 -0.3123 -0.8485
   79MOL   H33444170   0.712   3.017   0.940 -1.0591  1.3544 -0.3306
   79MOL   H33544171   0.238   2.714   1.052 -0.0436 -0.2875 -1.5117
   79MOL   H33644172   0.110   2.569   1.180 -0.6304 -0.9932 -0.7954
   79MOL   H33744173   0.085   2.361   1.334 -0.3145 -1.0083  0.6306
   79MOL   O33844174   0.829   2.805   0.986 -0.3442  0.1499 -0.7006
   79MOL   C33944175   0.894   2.846   0.893  0.1645 -0.4604 -0.1741
   79MOL   O34044176   0.849   2.946   0.807 -0.0568  0.4505  0.2285
   79MOL   C34144177   1.013   2.777   0.833 -0.0487  0.3069 -0.4685
   79MOL   C34244178   1.110   2.847   0.756  0.0538 -0.0725 -1.1880
   79MOL   C34344179   1.215   2.781   0.690 -0.5468  0.0768 -0.5796
   79MOL   C34444180   1.321   2.851   0.621  0.0186  0.1109  0.0004
   79MOL   C34544181   1.417   2.774   0.549 -0.4466 -0.2586  0.8474
   79MOL   C34644182   1.412   2.635   0.547  0.0111  0.4948  0.9608
   79MOL   C34744183   1.519   2.559   0.471  0.4119 -0.2082  0.2655
   79MOL   O34844184   1.610   2.638   0.411  0.5669  0.5036 -0.1827
   79MOL   C34944185   1.729   2.585   0.354 -0.2709  0.4349 -0.2311
   79MOL   C35044186   1.827   2.710   0.359 -0.0660  0.3885 -0.1451
   79MOL   O35144187   1.528   2.440   0.469 -0.7613  0.4629  0.3385
   79MOL   C35244188   1.316   2.568   0.618  0.4196 -0.3207 -0.1276
   79MOL   C35344189   1.218   2.637   0.698 -0.1793 -0.1809 -0.2045
   79MOL   C35444190   1.123   2.568   0.775 -0.1710 -0.4909 -1.0939
   79MOL   C35544191   1.022   2.639   0.839  0.2592 -0.1308 -1.1302
   79MOL   H35644192   1.111   2.955   0.763 -2.2192 -0.1235  0.3104
   79MOL   H35744193   1.324   2.958   0.610  0.8078 -0.1530 -2.5333
   79MOL   H35844194   1.499   2.831   0.508  1.0375 -2.1437  1.0886
   79MOL   H35944195   1.708   2.537   0.258 -1.4750 -0.5328  0.5138
   79MOL   H36044196   1.767   2.507   0.419 -1.2143  0.8545  0.8383
   79MOL   H36144197   1.921   2.661   0.334  0.0837  1.2328 -1.2497
   79MOL   H36244198   1.812   2.787   0.284  1.4313  0.5644 -0.2845
   79MOL   H36344199   1.296   2.465   0.597 -3.2411 -0.0101  1.4143
   79MOL   H36444200   1.130   2.460   0.774  0.7434 -0.4415 -1.4941
   79MOL   H36544201   0.957   2.591   0.911 -0.8024  1.2805 -1.1359
   79MOL   O36644202   1.699   2.933   0.435 -0.4893 -0.1156  0.8015
   79MOL   C36744203   1.785   2.880   0.504 -0.3170 -0.3267  0.7808
   79MOL   O36844204   1.853   2.769   0.481  0.1111 -0.4269  0.5611
   79MOL   C36944205   1.813   2.932   0.641  0.9375 -0.4848  0.0283
   79MOL   C37044206   1.722   3.026   0.687  1.0382  0.0056  0.4728
   79MOL   C37144207   1.743   3.082   0.816 -0.8656 -0.4367  0.1637
   79MOL   C37244208   1.654   3.179   0.864 -0.3683 -0.4712 -0.4628
   79MOL   C37344209   1.686   3.242   0.991 -0.1603  0.2368  0.8414
   79MOL   C37444210   1.793   3.198   1.073 -0.2129 -0.8076  0.4946
   79MOL   C37544211   1.832   3.257   1.202  0.7541  0.5293 -0.0687
   79MOL   O37644212   1.745   3.347   1.241  0.4007 -0.4250  0.5205
   79MOL   C37744213   1.762   3.415   1.359  0.5826  0.2883  0.4097
   79MOL   C37844214   1.788   3.566   1.326 -0.5060  0.3429  0.2813
   79MOL   O37944215   1.942   3.245   1.251  0.3912 -0.1040  0.4333
   79MOL   C38044216   1.872   3.093   1.023 -0.3011  0.1286 -0.0808
   79MOL   C38144217   1.854   3.041   0.894  0.4611 -0.0803  0.1625
   79MOL   C38244218   1.928   2.923   0.857 -0.3638  0.1932 -0.7558
   79MOL   C38344219   1.912   2.879   0.726 -0.0105 -0.3317  0.1047
   79MOL   H38444220   1.636   3.067   0.637  0.6696 -0.8277  0.4228
   79MOL   H38544221   1.560   3.194   0.813  0.4890  0.0739 -1.9214
   79MOL   H38644222   1.632   3.322   1.041 -1.1545  0.9504 -1.3123
   79MOL   H38744223   1.843   3.380   1.423  0.0269 -1.6904  0.0654
   79MOL   H38844224   1.670   3.406   1.417  1.4515 -0.9445  1.6142
   79MOL   H38944225   1.722   3.585   1.241 -2.9268 -0.2535  1.9722
   79MOL   H39044226   1.748   3.627   1.406  0.1613  0.5968  0.4231
   79MOL   H39144227   1.954   3.053   1.082  0.6984 -0.9464 -2.1569
   79MOL   H39244228   2.000   2.882   0.926  0.0848  2.8129  0.3984
   79MOL   H39344229   1.968   2.794   0.690  0.6121  0.1665 -0.1280
   79MOL   O39444230   1.917   3.791   1.384 -0.2252  0.4656  0.9609
   79MOL   C39544231   1.983   3.695   1.344 -0.0098  1.2178  0.2228
   79MOL   O39644232   1.926   3.580   1.309 -0.3083 -0.3366 -0.4456
   79MOL   C39744233   2.132   3.694   1.330 -0.3799  1.0559  1.3892
   79MOL   C39844234   2.200   3.816   1.331 -0.5805 -0.0227 -0.2794
   79MOL   C39944235   2.341   3.825   1.314 -0.4917  0.9263 -0.1174
   79MOL   C40044236   2.414   3.945   1.317  0.1723 -0.6888  0.2132
   79MOL   C40144237   2.545   3.947   1.286 -0.4828 -0.1611  0.5907
   79MOL   C40244238   2.621   3.831   1.274  0.0279  0.0059 -0.1348
   79MOL   C40344239   2.772   3.836   1.260  0.8933 -0.0196  0.5994
   79MOL   O40444240   2.819   3.958   1.260  0.3393  0.3859  0.5776
   79MOL   C40544241   2.954   3.995   1.250 -0.2192  0.0566 -0.1511
   79MOL   C40644242   3.039   3.956   1.370 -0.2127  0.4720  0.0019
   79MOL   O40744243   2.846   3.739   1.246 -0.2805 -0.1730 -0.1564
   79MOL   C40844244   2.552   3.705   1.281  0.1496  0.3664  0.3358
   79MOL   C40944245   2.410   3.702   1.308 -0.4089  0.1702  0.5993
   79MOL   C41044246   2.341   3.579   1.308  0.5397  0.1040  0.0888
   79MOL   C41144247   2.203   3.577   1.325 -0.7502  0.5676 -0.1287
   79MOL   H41244248   2.142   3.904   1.353  1.9153  1.8879 -1.0744
   79MOL   H41344249   2.350   4.030   1.337  0.5116 -0.1721 -0.8589
   79MOL   H41444250   2.595   4.042   1.293  1.2582 -0.9942 -0.2018
   79MOL   H41544251   2.967   4.103   1.257  2.7362 -0.2083 -0.9612
   79MOL   H41644252   3.015   3.962   1.166  1.8724  0.6630  1.0650
   79MOL   H41744253   3.058   3.849   1.378  1.7425  0.7422 -0.8786
   79MOL   H41844254   3.143   3.982   1.355  0.1958  0.0916  1.9799
   79MOL   H41944255   2.603   3.612   1.261 -0.2002  0.6362 -2.0649
   79MOL   H42044256   2.396   3.488   1.287 -1.4021 -0.7563 -1.3539
   79MOL   H42144257   2.145   3.488   1.304 -0.7165  0.7846 -1.1320
   79MOL   O42244258   3.134   4.175   1.525 -0.1551  0.1143  0.2684
   79MOL   C42344259   3.034   4.110   1.552 -0.9752  0.1948 -0.4359
   79MOL   O42444260   2.980   4.010   1.482 -0.8669 -0.0219  0.0132
   79MOL   C42544261   2.957   4.121   1.682  0.3121 -0.1764 -0.9716
   79MOL   C42644262   3.022   4.146   1.805  0.3109  0.8677 -0.4818
   79MOL   C42744263   2.951   4.146   1.927  0.1597  0.0355  0.1306
   79MOL   C42844264   3.019   4.165   2.052 -0.0455  0.1642  0.1844
   79MOL   C42944265   2.938   4.167   2.170 -1.5341 -0.0197  0.2172
   79MOL   C43044266   2.803   4.161   2.170 -0.2162 -0.2942  0.2031
   79MOL   C43144267   2.735   4.155   2.297  0.7881  0.0910  0.2534
   79MOL   O43244268   2.595   4.151   2.290 -0.4180 -0.7396 -0.2209
   79MOL   C43344269   2.518   4.183   2.402 -0.0450 -0.0241 -0.3817
   79MOL   C43444270   2.368   4.134   2.403 -0.5527  0.0544 -0.0168
   79MOL   O43544271   2.789   4.167   2.406  0.1237 -0.0959  0.2534
   79MOL   C43644272   2.740   4.140   2.046  0.0087 -0.7275  0.3843
   79MOL   C43744273   2.808   4.130   1.927 -0.3000 -0.2063  0.1437
   79MOL   C43844274   2.739   4.111   1.805  0.2192  0.8044 -0.6507
   79MOL   C43944275   2.818   4.103   1.688  0.7850  0.7356 -0.0438
   79MOL   H44044276   3.130   4.156   1.808  0.2617  1.1734  0.5102
   79MOL   H44144277   3.124   4.185   2.068 -0.4678 -0.3397  3.9767
   79MOL   H44244278   2.992   4.180   2.262  0.1908 -4.5555 -0.0141
   79MOL   H44344279   2.506   4.290   2.419  0.3986  0.1220 -0.9742
   79MOL   H44444280   2.561   4.139   2.493 -1.8730  0.3683  0.6992
   79MOL   H44544281   2.331   4.167   2.306  0.0041  2.7410  0.6468
   79MOL   H44644282   2.367   4.025   2.398  1.9440  0.0039 -0.0666
   79MOL   H44744283   2.632   4.150   2.042 -0.0535 -1.1332  1.1704
   79MOL   H44844284   2.632   4.100   1.803  0.2107  0.8631 -0.5138
   79MOL   H44944285   2.761   4.095   1.597 -0.3506  3.1606  0.3905
   79MOL   O45044286   2.102   4.184   2.389  0.3935  0.4760  0.3720
   79MOL   C45144287   2.163   4.200   2.494 -0.1168 -0.1963  0.3194
   79MOL   O45244288   2.298   4.192   2.506 -0.5504 -0.3313  0.3246
   79MOL   C45344289   2.099   4.239   2.622 -0.1555 -0.7034 -0.0079
   79MOL   C45444290   2.172   4.285   2.732  0.4700  0.4566 -1.0324
   79MOL   C45544291   2.101   4.333   2.845 -0.3653  0.4655  0.0862
   79MOL   C45644292   2.170   4.385   2.953  0.0280  0.7541  0.0946
   79MOL   C45744293   2.097   4.435   3.065 -0.5359 -0.1937  0.1388
   79MOL   C45844294   1.955   4.418   3.076 -1.4843 -0.1448 -0.4325
   79MOL   C45944295   1.882   4.449   3.202 -0.2784  0.1104  0.8044
   79MOL   O46044296   1.966   4.489   3.304  0.2760  0.5489  0.0404
   79MOL   C46144297   1.918   4.498   3.438 -0.4703 -0.0150  0.6211
   79MOL   C46244298   1.813   4.612   3.456 -0.3171 -0.5978 -0.1116
   79MOL   O46344299   1.762   4.438   3.214 -0.3376  0.0038  0.1596
   79MOL   C46444300   1.890   4.354   2.972 -0.4979  0.4250  0.0876
   79MOL   C46544301   1.963   4.315   2.854 -0.1021  0.3434  0.0193
   79MOL   C46644302   1.893   4.258   2.749  0.1994 -0.3168  0.2763
   79MOL   C46744303   1.956   4.225   2.627  0.0060  0.2396 -0.1671
   79MOL   H46844304   2.279   4.277   2.738  0.1272 -2.6636  1.6907
   79MOL   H46944305   2.278   4.390   2.957 -0.0107  1.5714  0.2851
   79MOL   H47044306   2.150   4.479   3.148 -0.2043 -0.4261  0.0541
   79MOL   H47144307   2.006   4.526   3.495 -0.7023  1.0746  0.4629
   79MOL   H47244308   1.880   4.403   3.474 -1.0057  0.3834  1.1150
   79MOL   H47344309   1.859   4.708   3.435 -1.1656 -0.6929 -2.5233
   79MOL   H47444310   1.729   4.600   3.387  0.7737  0.1100 -1.5958
   79MOL   H47544311   1.786   4.323   2.972  0.4351 -2.8867 -0.5251
   79MOL   H47644312   1.788   4.236   2.757 -0.2255  0.9886 -1.5594
   79MOL   H47744313   1.902   4.198   2.538  0.9928 -1.4381 -0.2842
   79MOL   O47844314   1.950   4.651   3.687  0.5382 -0.5712  0.3420
   79MOL   C47944315   1.829   4.637   3.694  0.7268  0.8277  0.3131
   79MOL   O48044316   1.759   4.601   3.590 -0.2278 -0.2789  0.6229
   79MOL   C48144317   1.757   4.646   3.820 -0.2801 -0.4544  0.5264
   79MOL   C48244318   1.615   4.640   3.827 -0.2397 -0.0208  0.3298
   79MOL   C48344319   1.552   4.655   3.953  0.8303  0.0582 -0.3902
   79MOL   C48444320   1.409   4.649   3.958 -0.1511  0.4517  1.2768
   79MOL   C48544321   1.341   4.658   4.082  0.0583  0.0044  0.8107
   79MOL   C48644322   1.416   4.691   4.197 -0.4550 -0.4052  0.3930
   79MOL   C48744323   1.345   4.712   4.330  0.0512  0.2169  0.1462
   79MOL   O48844324   1.426   4.762   4.430  0.1296 -0.6346 -0.1166
   79MOL   C48944325   1.371   4.768   4.562 -0.0406 -0.3893  0.0290
   79MOL   C49044326   1.468   4.790   4.668  0.0814  0.4260 -0.1420
   79MOL   O49144327   1.224   4.692   4.345 -0.3835 -0.1811  0.3124
   79MOL   C49244328   1.556   4.706   4.189 -0.2360  0.3195 -1.6904
   79MOL   C49344329   1.630   4.679   4.069  0.0621  0.7483 -0.3687
   79MOL   C49444330   1.772   4.677   4.065  0.1126 -0.4162 -0.2394
   79MOL   C49544331   1.834   4.666   3.936  0.0641  0.2429 -0.2835
   79MOL   H49644332   1.560   4.641   3.734 -2.3730 -0.8903  1.5300
   79MOL   H49744333   1.345   4.631   3.873  2.1471  0.6465 -0.5244
   79MOL   H49844334   1.235   4.637   4.086  0.1978 -0.7736  0.6377
   79MOL   H49944335   1.341   4.664   4.573 -1.4584  0.1099  1.0041
   79MOL   H50044336   1.278   4.825   4.570  0.4792  0.3491  0.8306
   79MOL   H50144337   1.423   4.748   4.759  0.6176 -2.5350 -1.1854
   79MOL   H50244338   1.559   4.734   4.650 -0.3576 -0.0603 -0.8518
   79MOL   H50344339   1.617   4.726   4.276  1.2107 -1.5453 -2.2398
   79MOL   H50444340   1.820   4.698   4.159 -0.5519 -0.5626  0.1329
   79MOL   H50544341   1.942   4.664   3.932  0.1945  1.7373  1.8014
   79MOL   O50644342   1.318   4.969   4.823  0.2519 -0.1941 -0.4606
   79MOL   C50744343   1.425   4.995   4.772 -0.3359  0.6831  0.1485
   79MOL   O50844344   1.503   4.916   4.693  0.1166 -0.4641 -0.4035
   79MOL   C50944345   1.489   5.131   4.782  0.0319  0.1467  0.3057
   79MOL   C51044346   1.618   5.158   4.736 -0.2717  0.1154  0.0094
   79MOL   C51144347   1.678   5.286   4.738  0.5348  0.5449  0.0622
   79MOL   C51244348   1.803   5.311   4.675  0.8388  0.0791 -0.0074
   79MOL   C51344349   1.861   5.438   4.689 -0.0974 -0.3740  0.1129
   79MOL   C51444350   1.802   5.544   4.760 -0.1073  0.3245  0.4291
   79MOL   C51544351   1.862   5.675   4.779  0.6104  0.0008  0.8014
   79MOL   O51644352   1.768   5.764   4.831  0.2044  0.2473 -0.0460
   79MOL   C51744353   1.794   5.897   4.859 -0.7184  0.2610  0.4837
   79MOL   C51844354   1.714   5.989   4.773  0.4877  0.1096  0.4101
   79MOL   O51944355   1.976   5.706   4.748  0.5721 -0.0979 -0.2481
   79MOL   C52044356   1.675   5.520   4.822 -0.3683  0.4825 -0.1552
   79MOL   C52144357   1.612   5.393   4.807  0.0621  0.1335 -0.0741
   79MOL   C52244358   1.480   5.362   4.856 -0.7028  0.4703 -0.0128
   79MOL   C52344359   1.418   5.237   4.844 -0.2509  0.3698  0.1480
   79MOL   H52444360   1.679   5.082   4.687  1.4283  0.9039  0.8645
   79MOL   H52544361   1.855   5.228   4.629  2.3016 -0.2060  2.1117
   79MOL   H52644362   1.959   5.455   4.648  0.3726  0.8670  1.6772
   79MOL   H52744363   1.899   5.915   4.838 -0.6355 -2.1242 -1.3456
   79MOL   H52844364   1.785   5.935   4.961  0.0416  0.4790  0.4715
   79MOL   H52944365   1.608   5.967   4.756  0.9421 -2.8661  1.2008
   79MOL   H53044366   1.712   6.086   4.822 -1.2066 -0.3228  1.2682
   79MOL   H53144367   1.633   5.595   4.888 -1.1847  1.3789 -1.6579
   79MOL   H53244368   1.417   5.441   4.896 -1.0032  1.6343 -2.7125
   79MOL   H53344369   1.315   5.233   4.877 -0.3280  0.9328 -0.0161
   79MOL   O53444370   1.694   6.206   4.600 -0.2868 -1.0942 -0.6223
   79MOL   C53544371   1.770   6.112   4.570  0.0171 -0.1411 -0.5904
   79MOL   O53644372   1.787   5.997   4.649  0.6630 -0.0785  0.4486
   79MOL   C53744373   1.846   6.107   4.439 -0.2578  0.0571  1.2350
   79MOL   C53844374   1.919   5.992   4.396 -0.7812 -0.2533  0.8578
   79MOL   C53944375   2.003   5.994   4.286 -0.1242 -0.3914 -0.4855
   79MOL   C54044376   2.065   5.877   4.245  0.1055 -0.1293 -0.1228
   79MOL   C54144377   2.124   5.867   4.113 -0.1630 -0.0766  0.2751
   79MOL   C54244378   2.123   5.984   4.027  0.6172 -0.3017 -0.1689
   79MOL   C54344379   2.187   5.977   3.896  0.4803 -0.0741  0.0989
   79MOL   O54444380   2.223   6.102   3.841  0.3049  0.2148 -0.1852
   79MOL   C54544381   2.303   6.099   3.720 -0.4641 -0.6424 -0.0450
   79MOL   C54644382   2.346   6.246   3.692 -0.4416  0.2142  0.2143
   79MOL   O54744383   2.207   5.865   3.839  0.1074  0.1700  0.2763
   79MOL   C54844384   2.073   6.105   4.080  0.5582 -0.7135  0.9979
   79MOL   C54944385   2.005   6.109   4.202 -0.2530 -0.0728 -0.8699
   79MOL   C55044386   1.937   6.229   4.247  0.5751  0.2815 -0.2865
   79MOL   C55144387   1.868   6.225   4.370 -0.0504  0.2362  0.7912
   79MOL   H55244388   1.916   5.902   4.456  0.7684  0.0573  1.4141
   79MOL   H55344389   2.057   5.783   4.298 -2.2552  1.5228  2.5998
   79MOL   H55444390   2.144   5.769   4.072 -0.6832  0.3527 -1.0160
   79MOL   H55544391   2.238   6.063   3.641 -0.2856 -0.7036 -0.1645
   79MOL   H55644392   2.387   6.030   3.731 -0.9515 -0.8131  2.9995
   79MOL   H55744393   2.258   6.297   3.652 -0.7762  0.3204  1.0707
   79MOL   H55844394   2.417   6.230   3.611 -3.1578 -4.0560 -1.5026
   79MOL   H55944395   2.095   6.193   4.022 -1.1694 -1.2871 -0.5344
   79MOL   H56044396   1.942   6.313   4.180 -1.6762 -0.5743 -1.6052
   79MOL   H56144397   1.824   6.319   4.401 -0.8203 -0.0434  0.5665
   79MOL   H56244398   2.386   6.301   3.777  0.7542 -2.4790  1.4449
   80MOL     O144399   5.399   1.303   3.448 -0.1582 -0.4109 -0.1651
   80MOL     C244400   5.312   1.287   3.529 -0.1396 -0.2103  0.1218
   80MOL     O344401   5.318   1.326   3.659  0.1370  0.5031 -0.9086
   80MOL     C444402   5.181   1.218   3.492 -0.5601 -0.4992 -0.3108
   80MOL     C544403   5.151   1.201   3.357  0.1615 -0.1978  0.7446
   80MOL     C644404   5.038   1.133   3.312 -0.8002 -0.5391 -0.0829
   80MOL     C744405   5.015   1.117   3.174 -0.5144 -0.3387  0.5896
   80MOL     C844406   4.907   1.039   3.131 -0.1404 -0.1855 -0.4246
   80MOL     C944407   4.820   0.979   3.226 -0.1091  0.0059 -0.0599
   80MOL    C1044408   4.702   0.908   3.172 -0.3587 -0.0803  0.9540
   80MOL    O1144409   4.650   0.838   3.269 -0.1668  0.5821 -0.1402
   80MOL    C1244410   4.527   0.772   3.250  0.3452  0.1575  0.0570
   80MOL    C1344411   4.558   0.624   3.211  0.4921  0.7955  0.4731
   80MOL    O1444412   4.647   0.927   3.061 -0.2947  0.2332 -0.1507
   80MOL    C1544413   4.852   0.987   3.361  0.0873  0.6048  0.0652
   80MOL    C1644414   4.955   1.073   3.405 -0.0026 -0.5565 -0.0775
   80MOL    C1744415   4.979   1.091   3.542  0.3593 -0.0526 -0.6159
   80MOL    C1844416   5.092   1.168   3.587  0.1072 -0.3119  0.2829
   80MOL    H1944417   5.220   1.241   3.283  0.8517 -1.1595  0.8638
   80MOL    H2044418   5.081   1.156   3.097 -1.1215 -0.2977  0.0910
   80MOL    H2144419   4.881   1.029   3.027 -0.6501  2.9516 -0.6513
   80MOL    H2244420   4.476   0.777   3.346  1.4124  2.3995  0.5520
   80MOL    H2344421   4.466   0.829   3.180  1.9499  2.1831  0.2421
   80MOL    H2444422   4.621   0.579   3.288  0.1260  1.3626  1.1156
   80MOL    H2544423   4.465   0.567   3.214 -0.2074  1.8670 -0.3887
   80MOL    H2644424   4.782   0.947   3.433 -1.2958  3.0077  0.1383
   80MOL    H2744425   4.910   1.050   3.615  1.1677  0.1072  0.2474
   80MOL    H2844426   5.104   1.183   3.694  2.1253  0.3105  0.0018
   80MOL    H2944427   5.410   1.320   3.675 -0.0355 -0.6862 -0.3462
   80MOL    O3044428   4.445   0.469   3.001 -0.2388  0.1197 -0.8124
   80MOL    C3144429   4.547   0.537   2.981 -0.9346  0.5324 -0.2159
   80MOL    O3244430   4.610   0.608   3.080 -1.4208 -0.1187 -0.5350
   80MOL    C3344431   4.605   0.558   2.851 -0.2553 -0.4081  0.4386
   80MOL    C3444432   4.564   0.465   2.747 -0.1075  0.2339  0.1886
   80MOL    C3544433   4.627   0.473   2.621 -0.6693  0.4554  0.2515
   80MOL    C3644434   4.569   0.394   2.515 -0.7597  0.0243 -0.4918
   80MOL    C3744435   4.619   0.415   2.385 -0.3620 -0.3621 -0.1565
   80MOL    C3844436   4.719   0.516   2.354 -0.5740 -0.0376  0.2254
   80MOL    C3944437   4.766   0.545   2.215 -1.0754 -0.0161  1.0279
   80MOL    O4044438   4.731   0.448   2.145  0.1927 -0.7534 -0.2323
   80MOL    C4144439   4.734   0.454   2.001  0.6214 -0.4377  0.3634
   80MOL    C4244440   4.603   0.523   1.944 -0.3382 -0.0580  0.0542
   80MOL    O4344441   4.821   0.650   2.172 -0.2314 -0.3773 -0.3464
   80MOL    C4444442   4.769   0.589   2.463  0.3364 -0.8879  0.3435
   80MOL    C4544443   4.721   0.574   2.597  0.0992  0.0368 -0.3836
   80MOL    C4644444   4.772   0.649   2.697  0.1003 -0.6623 -0.7801
   80MOL    C4744445   4.711   0.646   2.822 -0.3428 -0.2027  0.4228
   80MOL    H4844446   4.484   0.394   2.761 -1.4182  1.8560  1.2102
   80MOL    H4944447   4.485   0.330   2.537 -0.1698 -1.4514 -2.4055
   80MOL    H5044448   4.574   0.367   2.299  3.2547 -2.4754 -0.9496
   80MOL    H5144449   4.726   0.351   1.966 -2.2806 -0.0045 -0.3857
   80MOL    H5244450   4.827   0.499   1.964 -0.4842  2.0520  0.4949
   80MOL    H5344451   4.609   0.631   1.952  0.0952 -0.1152  0.5649
   80MOL    H5444452   4.585   0.501   1.839 -2.7741 -0.6595  0.5810
   80MOL    H5544453   4.841   0.667   2.441 -1.1420 -0.2630 -2.4659
   80MOL    H5644454   4.851   0.722   2.681  0.0405 -0.1762  1.0628
   80MOL    H5744455   4.753   0.726   2.881 -0.5627  0.1222  0.1423
   80MOL    O5844456   4.486   0.266   2.029  0.8491  0.4222 -0.8438
   80MOL    C5944457   4.442   0.376   2.062 -0.3939  0.3267 -0.0283
   80MOL    O6044458   4.486   0.498   2.020 -0.2908 -0.1374 -0.0841
   80MOL    C6144459   4.338   0.391   2.164  0.2147  0.1231 -0.8098
   80MOL    C6244460   4.276   0.515   2.191 -1.1198 -0.3088  0.0765
   80MOL    C6344461   4.172   0.528   2.286 -0.3431  0.1511  0.2070
   80MOL    C6444462   4.123   0.650   2.321 -0.1795  0.4204 -0.2796
   80MOL    C6544463   4.022   0.655   2.419  0.2936 -0.5095  0.6261
   80MOL    C6644464   3.973   0.546   2.486  0.9275 -0.0113  0.2401
   80MOL    C6744465   3.862   0.548   2.588 -0.2039  0.0193  0.2580
   80MOL    O6844466   3.863   0.660   2.656  0.1440 -0.1142  0.4443
   80MOL    C6944467   3.753   0.688   2.748 -0.2969  0.1394 -0.2544
   80MOL    C7044468   3.633   0.761   2.683  0.1763 -0.5870  0.8029
   80MOL    O7144469   3.797   0.445   2.613 -0.0786  0.4072 -0.2879
   80MOL    C7244470   4.023   0.420   2.447  0.0643  0.3399  0.2058
   80MOL    C7344471   4.123   0.408   2.348 -0.4597  0.0342 -0.2072
   80MOL    C7444472   4.182   0.283   2.312 -0.1010  0.2799 -0.3168
   80MOL    C7544473   4.287   0.275   2.224 -0.4649 -0.0983  0.3771
   80MOL    H7644474   4.317   0.604   2.146 -2.1035  0.0592 -0.1005
   80MOL    H7744475   4.173   0.736   2.279 -0.7620  0.6587 -0.4917
   80MOL    H7844476   3.975   0.751   2.436  3.3092  1.3937 -1.3199
   80MOL    H7944477   3.798   0.755   2.821 -2.7718 -0.0616  1.4954
   80MOL    H8044478   3.719   0.598   2.799  1.7070  0.1287  1.1430
   80MOL    H8144479   3.566   0.687   2.638  0.9689 -0.1976 -1.0548
   80MOL    H8244480   3.571   0.804   2.762 -0.8233 -0.4253 -0.0593
   80MOL    H8344481   3.979   0.328   2.482 -2.3106  1.9178  1.4345
   80MOL    H8444482   4.139   0.198   2.363 -1.4399  1.0484 -0.1404
   80MOL    H8544483   4.333   0.181   2.199 -1.0305  0.1809 -1.8799
   80MOL    O8644484   3.578   1.033   2.676  0.1758  0.0733 -0.1010
   80MOL    C8744485   3.663   0.983   2.601 -0.1733 -0.9220 -0.6529
   80MOL    O8844486   3.678   0.853   2.584 -0.1809 -0.2088  0.4353
   80MOL    C8944487   3.767   1.061   2.542 -0.8843  0.6366  0.4647
   80MOL    C9044488   3.892   1.003   2.509 -0.7914  0.1943  0.4499
   80MOL    C9144489   3.991   1.079   2.448 -0.0739  0.4738  0.0463
   80MOL    C9244490   4.115   1.018   2.413  0.0040  0.6139  0.3967
   80MOL    C9344491   4.209   1.092   2.346 -0.0353 -0.5213 -0.8768
   80MOL    C9444492   4.188   1.227   2.309  0.5809 -0.7529  0.1085
   80MOL    C9544493   4.300   1.301   2.240  0.0073  0.0898 -0.7112
   80MOL    O9644494   4.422   1.237   2.232  0.0884 -0.0356  0.0911
   80MOL    C9744495   4.532   1.279   2.157 -0.3347 -0.5952  0.2945
   80MOL    C9844496   4.621   1.314   2.272 -0.0034 -0.0064 -0.3136
   80MOL    O9944497   4.274   1.401   2.174  0.2835  0.1371  0.4079
   80MOL   C10044498   4.065   1.289   2.345 -0.6534  0.5278  0.8460
   80MOL   C10144499   3.967   1.215   2.418  0.0762  0.3996 -0.3717
   80MOL   C10244500   3.839   1.273   2.444 -0.3462 -0.3686  0.2406
   80MOL   C10344501   3.742   1.192   2.507 -0.9772  0.4206  0.2940
   80MOL   H10444502   3.921   0.904   2.542 -0.2725  1.1466  2.9804
   80MOL   H10544503   4.132   0.911   2.423 -1.1276  0.5375  1.6075
   80MOL   H10644504   4.302   1.047   2.315  0.0544  1.1084 -3.0774
   80MOL   H10744505   4.514   1.355   2.081  1.6416 -1.2154 -0.8172
   80MOL   H10844506   4.576   1.198   2.099  2.0014  1.3052 -0.6672
   80MOL   H10944507   4.574   1.363   2.358  1.6415  1.5940 -0.2929
   80MOL   H11044508   4.655   1.216   2.306  2.4990  0.1452 -2.2233
   80MOL   H11144509   4.050   1.392   2.316  0.5240  0.5079  0.1291
   80MOL   H11244510   3.825   1.378   2.422  0.7731 -0.1133  0.7152
   80MOL   H11344511   3.647   1.233   2.538  0.3221  3.3810  0.5984
   80MOL   O11444512   4.828   1.360   2.432 -0.3108  0.4075  0.4247
   80MOL   C11544513   4.828   1.410   2.320 -0.3330 -0.6075  0.5403
   80MOL   O11644514   4.734   1.385   2.230 -0.3094 -0.1374 -0.8516
   80MOL   C11744515   4.933   1.513   2.270 -0.8836  0.9454  0.4834
   80MOL   C11844516   5.023   1.570   2.369  0.5324  0.6556 -0.8127
   80MOL   C11944517   5.103   1.677   2.329 -0.1873 -0.5535  0.4891
   80MOL   C12044518   5.184   1.742   2.426 -0.0333  0.6541 -0.4445
   80MOL   C12144519   5.264   1.851   2.390  0.4735  0.2236  0.1676
   80MOL   C12244520   5.272   1.897   2.257 -0.3346 -0.0608 -0.0173
   80MOL   C12344521   5.372   2.012   2.237 -0.4358 -0.3070  0.2686
   80MOL   O12444522   5.412   2.011   2.112 -0.7383 -0.2074 -0.5286
   80MOL   C12544523   5.486   2.125   2.055  0.1080  0.1801 -0.0244
   80MOL   C12644524   5.387   2.249   2.031 -0.4730  0.1143 -0.7284
   80MOL   O12744525   5.408   2.090   2.328  0.6276 -0.0370  0.1994
   80MOL   C12844526   5.207   1.826   2.156  0.4531  0.3406 -0.1360
   80MOL   C12944527   5.111   1.726   2.194 -0.7759 -0.2568 -0.4334
   80MOL   C13044528   5.033   1.658   2.098  0.7359  0.2970 -0.2774
   80MOL   C13144529   4.945   1.554   2.135  0.4045 -0.1443  0.2822
   80MOL   H13244530   5.021   1.545   2.473 -0.8190  0.8348 -0.7816
   80MOL   H13344531   5.182   1.709   2.528  2.3808 -0.4898 -0.7548
   80MOL   H13444532   5.327   1.894   2.466 -0.7376  0.4127  1.0822
   80MOL   H13544533   5.550   2.104   1.970 -1.1852  0.8414 -1.1867
   80MOL   H13644534   5.561   2.160   2.126 -0.6900  0.7365  0.5577
   80MOL   H13744535   5.322   2.275   2.115  1.6923 -3.3089  2.1392
   80MOL   H13844536   5.452   2.336   2.025  0.8175 -0.8865 -1.6696
   80MOL   H13944537   5.227   1.857   2.055 -0.1756  0.5457 -0.1987
   80MOL   H14044538   5.045   1.688   1.995  1.3106 -1.7771 -0.8171
   80MOL   H14144539   4.869   1.512   2.069  0.1529  1.1050 -0.2253
   80MOL   O14244540   5.460   2.293   1.786  0.6758 -0.3979 -0.2590
   80MOL   C14344541   5.352   2.237   1.803 -0.3463  0.0002 -0.3734
   80MOL   O14444542   5.306   2.214   1.929  0.3418 -0.5909  0.4030
   80MOL   C14544543   5.267   2.202   1.688 -0.4475 -0.0341 -0.4441
   80MOL   C14644544   5.183   2.094   1.704 -0.2690  0.0091  0.3457
   80MOL   C14744545   5.094   2.054   1.599  0.2577  0.5689 -0.4467
   80MOL   C14844546   4.999   1.949   1.619  0.2603 -0.1395  0.3986
   80MOL   C14944547   4.909   1.919   1.515  0.0409  0.2364 -0.4089
   80MOL   C15044548   4.893   2.001   1.400  0.6628 -0.1098 -0.4702
   80MOL   C15144549   4.782   1.976   1.302 -0.0811  0.0427  0.1318
   80MOL   O15244550   4.756   2.084   1.226 -0.0018  0.1341  0.0393
   80MOL   C15344551   4.658   2.062   1.122 -0.3151  0.2021  0.1282
   80MOL   C15444552   4.642   2.200   1.052 -0.0252 -0.2450 -0.0942
   80MOL   O15544553   4.730   1.865   1.280  0.6410  0.0941 -0.0389
   80MOL   C15644554   4.995   2.105   1.378  0.2839  0.1694  0.1828
   80MOL   C15744555   5.085   2.134   1.483  0.0191 -0.5286  0.4742
   80MOL   C15844556   5.172   2.242   1.467 -0.1326  0.3219  0.4989
   80MOL   C15944557   5.258   2.281   1.574  0.0304 -0.5005 -0.2740
   80MOL   H16044558   5.181   2.034   1.794 -1.5440  0.0250  0.3321
   80MOL   H16144559   5.002   1.895   1.713 -2.0921 -1.1731 -0.0762
   80MOL   H16244560   4.830   1.850   1.540 -0.3678  0.9196  0.2302
   80MOL   H16344561   4.559   2.029   1.153 -1.1856 -0.4582 -3.1569
   80MOL   H16444562   4.693   1.987   1.052 -0.4309  0.5279 -0.2858
   80MOL   H16544563   4.538   2.212   1.022  0.4575  1.5682 -1.0584
   80MOL   H16644564   4.672   2.276   1.124 -0.7257  0.3093 -0.3912
   80MOL   H16744565   4.982   2.175   1.297  0.5740 -1.4653 -1.3353
   80MOL   H16844566   5.167   2.296   1.374 -1.7741  0.2072  0.5060
   80MOL   H16944567   5.333   2.358   1.562 -0.1836 -0.3052 -0.3511
   80MOL   O17044568   4.545   2.162   0.804 -0.1610 -0.2200  0.2582
   80MOL   C17144569   4.670   2.177   0.818  0.0220 -1.4202  0.6284
   80MOL   O17244570   4.721   2.209   0.937  0.2926 -0.2534 -0.4480
   80MOL   C17344571   4.772   2.161   0.710 -1.0182  0.4032  0.4072
   80MOL   C17444572   4.724   2.138   0.579  0.3031 -0.4203  0.1557
   80MOL   C17544573   4.812   2.129   0.472 -0.1371 -0.6184 -0.0784
   80MOL   C17644574   4.769   2.119   0.340  0.4866  0.3617  0.1229
   80MOL   C17744575   4.853   2.092   0.235 -0.6315 -0.1800  0.2152
   80MOL   C17844576   4.993   2.082   0.249 -0.2377 -0.9343  0.2506
   80MOL   C17944577   5.087   2.041   0.145  0.1146 -0.2892  0.8456
   80MOL   O18044578   5.218   2.057   0.174 -0.4151 -0.7060 -0.3905
   80MOL   C18144579   5.323   2.010   0.093 -0.4187  0.1833 -0.2649
   80MOL   C18244580   5.340   1.861   0.130 -0.5351  0.1852  0.1607
   80MOL   O18344581   5.046   1.985   0.042 -0.1772  0.1038  0.8409
   80MOL   C18444582   5.037   2.111   0.380  0.3105  0.6009  0.1604
   80MOL   C18544583   4.953   2.135   0.493 -0.7453 -0.1087  0.0272
   80MOL   C18644584   5.001   2.156   0.624  0.1589 -0.1969 -0.7101
   80MOL   C18744585   4.911   2.169   0.734  0.3217  0.2542  0.0573
   80MOL   H18844586   4.618   2.130   0.559 -0.1207  1.8061  1.3674
   80MOL   H18944587   4.664   2.106   0.318 -0.1888  0.8464  2.8618
   80MOL   H19044588   4.811   2.072   0.137  0.0625 -0.2510 -0.0750
   80MOL   H19144589   5.413   2.061   0.127  0.2926 -1.5921  0.5523
   80MOL   H19244590   5.300   2.021   8.236 -2.8391  0.4013  0.2432
   80MOL   H19344591   5.345   1.852   0.239  0.0542 -0.1920  0.1056
   80MOL   H19444592   5.253   1.801   0.102  0.0214 -0.4654 -0.1878
   80MOL   H19544593   5.141   2.100   0.405  0.1471  0.6418  0.8759
   80MOL   H19644594   5.106   2.166   0.647 -0.2833  0.9167  0.9915
   80MOL   H19744595   4.952   2.183   0.833 -1.2943 -1.1722  0.9499
   80MOL   O19844596   5.343   1.785   8.116  0.3222  0.3289 -0.2106
   80MOL   C19944597   5.445   1.779   8.178  0.5544  1.0627  0.2822
   80MOL   O20044598   5.449   1.797   0.063 -0.0344  0.4759 -0.5252
   80MOL   C20144599   5.578   1.746   8.116  0.1358  0.0169 -0.0496
   80MOL   C20244600   5.592   1.712   7.979  0.4051 -0.1004  0.5554
   80MOL   C20344601   5.710   1.683   7.919 -0.3562  0.5847  0.6225
   80MOL   C20444602   5.718   1.649   7.778 -0.2976 -0.0659 -0.2090
   80MOL   C20544603   5.842   1.596   7.728 -0.2273  0.7098 -0.2093
   80MOL   C20644604   5.961   1.580   7.807 -0.1622  0.6541 -0.3576
   80MOL   C20744605   6.085   1.512   7.751 -0.3929 -0.1078  0.1816
   80MOL   O20844606   6.198   1.532   7.826  0.4005  0.1615 -0.1863
   80MOL   C20944607   6.313   1.471   7.772 -0.3356  0.8836 -0.0343
   80MOL   C21044608   6.384   1.532   7.658 -0.0705  0.6921  0.4057
   80MOL   O21144609   6.085   1.454   7.640 -0.0700 -0.3592  0.4762
   80MOL   C21244610   5.949   1.627   7.942 -0.4283 -0.0644 -0.2167
   80MOL   C21344611   5.828   1.677   7.995  0.3996  0.7324 -0.1972
   80MOL   C21444612   5.817   1.720   8.132  0.2248  0.0340 -0.5517
   80MOL   C21544613   5.694   1.760   8.192 -0.0370 -0.8525 -0.5723
   80MOL   H21644614   5.509   1.720   7.911  0.6734 -0.1027  0.2275
   80MOL   H21744615   5.634   1.657   7.711  0.9789 -2.5161 -2.1883
   80MOL   H21844616   5.853   1.564   7.625  0.4755 -1.1700  0.4504
   80MOL   H21944617   6.290   1.374   7.728  3.1894 -1.2228  2.4674
   80MOL   H22044618   6.390   1.445   7.844  0.7525 -1.0521 -1.8323
   80MOL   H22144619   6.427   1.461   7.587 -2.1879  1.2795 -1.5173
   80MOL   H22244620   6.320   1.601   7.603  0.1503  1.2220  0.8058
   80MOL   H22344621   6.038   1.636   8.003 -1.1089  0.5518  0.6892
   80MOL   H22444622   5.912   1.723   8.184  0.9516 -1.0014 -1.7955
   80MOL   H22544623   5.696   1.798   0.044 -1.7733 -0.8915 -0.4995
   80MOL   O22644624   6.384   1.814   7.737  0.1822  0.0501  0.1370
   80MOL   C22744625   6.489   1.746   7.738 -1.2148 -0.5651  0.1912
   80MOL   O22844626   6.497   1.613   7.698  0.1330  0.2564 -0.7544
   80MOL   C22944627   6.618   1.797   7.795 -0.2791  0.2435  0.1640
   80MOL   C23044628   6.615   1.928   7.850  0.3090 -0.0525  0.1613
   80MOL   C23144629   6.738   1.987   7.888 -0.1908  0.5694 -0.1572
   80MOL   C23244630   6.737   2.116   7.943 -0.2153  0.1270 -0.4940
   80MOL   C23344631   6.856   2.177   7.993 -0.0235 -0.2571  0.1003
   80MOL   C23444632   6.981   2.114   7.969 -0.2925  0.7482  0.6780
   80MOL   C23544633   7.108   2.187   7.983 -0.0089 -0.7999  0.3492
   80MOL   O23644634   7.097   2.326   7.976  0.4576 -0.2231 -0.3276
   80MOL   C23744635   7.220   2.398   7.982  0.1312 -0.7105 -0.4955
   80MOL   C23844636   7.287   2.403   7.846  0.1768  0.3880  0.9043
   80MOL   O23944637   7.216   2.127   7.994  0.1271  0.1163 -0.2641
   80MOL   C24044638   6.976   1.981   7.916  0.3695  0.1394 -0.5271
   80MOL   C24144639   6.857   1.912   7.878 -0.7264  0.7025  0.3197
   80MOL   C24244640   6.857   1.776   7.830 -0.0879 -0.4729  0.1353
   80MOL   C24344641   6.737   1.722   7.793  0.7524 -0.0564  0.0012
   80MOL   H24444642   6.527   1.990   7.854  1.3613  1.3920  0.9566
   80MOL   H24544643   6.645   2.169   7.961  0.7939  1.4679  0.7973
   80MOL   H24644644   6.855   2.276   8.034 -1.0969 -0.1742 -0.1155
   80MOL   H24744645   7.286   2.353   8.056  0.4745  0.3719 -0.1390
   80MOL   H24844646   7.215   2.502   8.015  2.2512  0.2671 -3.0850
   80MOL   H24944647   7.391   2.432   7.863  1.1310 -1.6099 -1.3762
   80MOL   H25044648   7.288   2.302   7.807  0.6711  0.7085  0.0664
   80MOL   H25144649   7.067   1.923   7.909 -0.0879 -0.4925 -1.3561
   80MOL   H25244650   6.950   1.720   7.825  0.6124  0.6251  0.6115
   80MOL   H25344651   6.733   1.617   7.769 -1.6808  0.0112  0.0064
   80MOL   O25444652   7.058   2.356   7.698 -0.3860  0.1901 -0.1587
   80MOL   C25544653   7.122   2.461   7.680 -0.1297  0.8216 -0.1496
   80MOL   O25644654   7.218   2.497   7.766  0.0702 -0.3950 -0.7333
   80MOL   C25744655   7.087   2.564   7.577 -0.0716  0.2040 -0.0645
   80MOL   C25844656   6.970   2.554   7.507  0.0952  0.3831  0.1871
   80MOL   C25944657   6.919   2.656   7.425  0.0241 -0.0267  0.0392
   80MOL   C26044658   6.789   2.654   7.377 -0.4887  0.2834  0.8728
   80MOL   C26144659   6.743   2.770   7.309 -0.5348 -0.3696 -0.3017
   80MOL   C26244660   6.820   2.881   7.285 -0.2466  0.4699  0.1481
   80MOL   C26344661   6.765   3.000   7.206 -0.0763  0.8077 -0.1871
   80MOL   O26444662   6.640   2.972   7.164  0.9260 -0.3043 -0.2036
   80MOL   C26544663   6.568   3.070   7.083 -0.1862  0.2709 -0.1337
   80MOL   C26644664   6.602   3.057   6.937 -0.3870 -0.0142 -0.8971
   80MOL   O26744665   6.819   3.105   7.180 -0.6451 -0.2371  0.1593
   80MOL   C26844666   6.954   2.880   7.326  0.2011  0.5226 -0.5502
   80MOL   C26944667   7.003   2.771   7.403 -0.0500 -0.2377  0.5695
   80MOL   C27044668   7.133   2.773   7.456  0.1126 -1.1226 -0.3025
   80MOL   C27144669   7.172   2.673   7.550 -0.5831  0.0505  0.0257
   80MOL   H27244670   6.907   2.471   7.537  0.3627  0.1825  0.2017
   80MOL   H27344671   6.731   2.563   7.389 -2.3879  1.3766  0.1596
   80MOL   H27444672   6.638   2.770   7.283 -1.1217  0.6636  1.9401
   80MOL   H27544673   6.586   3.173   7.116  1.0827  0.3178 -0.9388
   80MOL   H27644674   6.462   3.043   7.089 -0.6013  1.9083  0.3426
   80MOL   H27744675   6.632   2.956   6.910 -1.2816  0.2411 -2.8935
   80MOL   H27844676   6.521   3.087   6.871 -0.2073  1.9371 -0.2570
   80MOL   H27944677   7.013   2.966   7.300  1.4604 -0.1135  0.1633
   80MOL   H28044678   7.198   2.858   7.441 -3.6273  1.9561  0.1461
   80MOL   H28144679   7.269   2.673   7.597 -1.0524 -1.6299  1.0420
   80MOL   O28244680   6.598   3.334   6.891  0.1510  0.1430 -0.4113
   80MOL   C28344681   6.701   3.271   6.880  0.0487 -0.4186  0.0410
   80MOL   O28444682   6.713   3.140   6.907  0.0652 -0.0830 -0.0204
   80MOL   C28544683   6.830   3.328   6.835 -0.0861  0.0651  0.1297
   80MOL   C28644684   6.943   3.294   6.907  0.4775 -0.5614 -0.6919
   80MOL   C28744685   7.073   3.342   6.865 -0.4963  1.1006 -0.0668
   80MOL   C28844686   7.186   3.306   6.943 -1.3817 -0.1705 -0.5523
   80MOL   C28944687   7.307   3.368   6.916 -0.1267 -0.6036 -0.1383
   80MOL   C29044688   7.320   3.462   6.814 -0.1589 -0.3675  0.9380
   80MOL   C29144689   7.448   3.540   6.797 -0.7875  0.2398  0.6348
   80MOL   O29244690   7.540   3.506   6.878 -0.2418 -0.2469  0.1814
   80MOL   C29344691   7.662   3.581   6.883 -0.5612  0.2298 -0.9099
   80MOL   C29444692   7.765   3.523   6.985 -0.9366  0.2287 -0.5683
   80MOL   O29544693   7.465   3.631   6.714 -0.0077 -0.0006  0.1483
   80MOL   C29644694   7.207   3.494   6.734  0.0172  0.4097  0.0038
   80MOL   C29744695   7.079   3.431   6.759  0.7354 -0.3722 -0.2170
   80MOL   C29844696   6.962   3.475   6.688 -0.4134  0.1961  0.1494
   80MOL   C29944697   6.836   3.428   6.736 -0.3512  0.5889 -0.1422
   80MOL   H30044698   6.937   3.232   6.995  0.6172 -0.6167 -0.7217
   80MOL   H30144699   7.191   3.250   7.035  0.2387  2.0615  0.7815
   80MOL   H30244700   7.388   3.353   6.986 -1.1461 -0.2915  1.1331
   80MOL   H30344701   7.645   3.684   6.913 -0.5330 -0.2218  0.6732
   80MOL   H30444702   7.706   3.581   6.783  2.9165 -0.0125  0.5592
   80MOL   H30544703   7.817   3.606   7.033 -1.0967  1.0744 -1.8311
   80MOL   H30644704   7.705   3.467   7.057  0.9931 -1.1162  0.0552
   80MOL   H30744705   7.217   3.572   6.659  0.8360 -1.4259 -1.8384
   80MOL   H30844706   6.975   3.547   6.609  1.9466 -1.5611 -1.1065
   80MOL   H30944707   6.744   3.470   6.700 -2.0649  0.2443  3.6861
   80MOL   O31044708   7.752   3.255   6.949 -0.1114 -0.3224  0.2802
   80MOL   C31144709   7.854   3.313   6.918  0.2826  0.7888  1.2872
   80MOL   O31244710   7.866   3.446   6.915  0.6749 -0.5726  0.0792
   80MOL   C31344711   7.975   3.238   6.876  0.3720 -0.4796  0.4488
   80MOL   C31444712   8.096   3.308   6.851  0.5624 -0.6680  0.5961
   80MOL   C31544713   8.203   3.242   6.795  0.4070 -0.2611 -0.2183
   80MOL   C31644714   0.073   3.308   6.769  0.8710  0.2204  0.4847
   80MOL   C31744715   0.179   3.239   6.706 -0.6687  0.2962  0.5289
   80MOL   C31844716   0.176   3.104   6.682 -0.3115 -0.0297 -0.0590
   80MOL   C31944717   0.299   3.032   6.633  0.3476  0.1948 -0.3097
   80MOL   O32044718   0.275   2.902   6.608  0.2501 -0.6882 -0.3034
   80MOL   C32144719   0.389   2.814   6.602 -0.1933  0.0391 -0.0654
   80MOL   C32244720   0.439   2.780   6.745  0.1565 -0.9517 -0.0573
   80MOL   O32344721   0.403   3.089   6.625  0.1589  0.3551 -0.1180
   80MOL   C32444722   0.057   3.038   6.711  0.3459 -0.6886  0.3652
   80MOL   C32544723   8.194   3.102   6.764 -0.0624 -0.2208 -0.0256
   80MOL   C32644724   8.074   3.028   6.790  0.6864  0.5366 -0.9649
   80MOL   C32744725   7.965   3.098   6.846 -0.0188  0.2773 -0.1707
   80MOL   H32844726   8.105   3.415   6.865 -0.3591 -0.6192  0.9029
   80MOL   H32944727   0.079   3.414   6.790 -1.3369 -0.1558  3.2395
   80MOL   H33044728   0.257   3.303   6.668 -0.7587  1.2561  1.9186
   80MOL   H33144729   0.473   2.870   6.561  1.0534 -2.2903 -0.7866
   80MOL   H33244730   0.381   2.722   6.544  0.1488 -2.6447  3.9029
   80MOL   H33344731   0.523   2.711   6.736 -0.4994 -1.4303 -3.1710
   80MOL   H33444732   0.484   2.870   6.786 -1.7177  1.2462 -2.5904
   80MOL   H33544733   0.040   2.932   6.697 -0.7939 -0.1572 -2.4611
   80MOL   H33644734   8.067   2.922   6.770  1.2832  0.1472  0.8266
   80MOL   H33744735   7.870   3.049   6.861 -0.2100  1.0071  1.0482
   80MOL   O33844736   0.422   2.512   6.843 -0.0218 -0.7212  0.0988
   80MOL   C33944737   0.332   2.593   6.862  0.6974  0.4412  0.5747
   80MOL   O34044738   0.334   2.725   6.823 -0.0704  0.4006  0.3053
   80MOL   C34144739   0.217   2.563   6.946  0.5713  0.0325 -0.6099
   80MOL   C34244740   0.162   2.433   6.936  0.1858 -0.0227 -0.8613
   80MOL   C34344741   0.052   2.398   7.026  0.1645 -0.1022  0.0579
   80MOL   C34444742   8.243   2.269   7.016  0.7223  0.0276 -0.1991
   80MOL   C34544743   8.137   2.231   7.098  0.4402  0.4012  0.3670
   80MOL   C34644744   8.088   2.329   7.187  0.8265 -0.0061  0.4369
   80MOL   C34744745   7.970   2.281   7.263  0.2652  0.4664 -0.2928
   80MOL   O34844746   7.874   2.364   7.254 -0.1651 -0.4173 -0.0812
   80MOL   C34944747   7.756   2.345   7.328 -0.3273 -0.7310 -0.2401
   80MOL   C35044748   7.670   2.233   7.264 -0.1263  0.4566 -0.8727
   80MOL   O35144749   7.967   2.173   7.323 -0.0739  0.2662 -0.1969
   80MOL   C35244750   8.129   2.460   7.189  0.5792 -0.1960  0.1845
   80MOL   C35344751   8.241   2.499   7.110  0.4135  0.1392 -0.0194
   80MOL   C35444752   0.046   2.630   7.103  0.6240 -0.4203  0.4179
   80MOL   C35544753   0.155   2.664   7.024 -0.4487  0.8564  0.3788
   80MOL   H35644754   0.207   2.355   6.876 -2.5490 -1.5856 -0.9535
   80MOL   H35744755   0.019   2.207   6.932  0.0565  1.2212 -1.3094
   80MOL   H35844756   8.094   2.132   7.101 -0.6501  0.8862  0.9768
   80MOL   H35944757   7.707   2.441   7.340  1.0699  0.0609 -0.8328
   80MOL   H36044758   7.787   2.313   7.428  0.8042  2.5817  0.5443
   80MOL   H36144759   7.724   2.140   7.254  0.7444  1.0186 -1.5250
   80MOL   H36244760   7.596   2.204   7.338  1.2726  0.9126  0.7317
   80MOL   H36344761   8.081   2.532   7.253 -2.3239  0.4169 -2.5371
   80MOL   H36444762   0.000   2.703   7.168  1.4428  0.7718 -0.3164
   80MOL   H36544763   0.183   2.769   7.024  0.8525  0.5143  1.0816
   80MOL   O36644764   7.731   2.158   7.005  0.4454 -0.0180  0.1156
   80MOL   C36744765   7.643   2.242   7.027 -0.4594 -0.0915 -0.2478
   80MOL   O36844766   7.603   2.277   7.150  0.0245  0.4010 -0.3656
   80MOL   C36944767   7.559   2.309   6.914 -0.4527 -0.5524  0.1804
   80MOL   C37044768   7.584   2.258   6.781 -0.0002  0.4649  0.4479
   80MOL   C37144769   7.507   2.302   6.676  0.2399 -0.1155  0.6250
   80MOL   C37244770   7.533   2.241   6.551  0.5823  0.4116  0.6689
   80MOL   C37344771   7.445   2.270   6.444 -0.0099  0.0371  0.2387
   80MOL   C37444772   7.345   2.372   6.461 -0.3710  0.1660  0.4693
   80MOL   C37544773   7.251   2.396   6.353 -0.0468 -0.2618  0.2863
   80MOL   O37644774   7.152   2.474   6.395 -0.1609  0.2930  0.1700
   80MOL   C37744775   7.031   2.478   6.323  0.2590 -0.8780  0.0876
   80MOL   C37844776   6.938   2.588   6.369 -0.3194 -0.1085 -0.7960
   80MOL   O37944777   7.251   2.335   6.239 -0.1142 -0.0679 -0.2004
   80MOL   C38044778   7.333   2.443   6.582 -1.1975  0.5302  0.0837
   80MOL   C38144779   7.408   2.403   6.697 -0.3792  0.2404  1.1143
   80MOL   C38244780   7.387   2.459   6.825 -0.8321 -0.0815 -0.3303
   80MOL   C38344781   7.453   2.405   6.933  0.3759 -0.5765 -0.1635
   80MOL   H38444782   7.643   2.169   6.772  0.6371  0.4098  4.5392
   80MOL   H38544783   7.613   2.172   6.531 -1.6261 -1.5872 -1.7085
   80MOL   H38644784   7.451   2.217   6.350 -0.5498  1.4242 -0.5773
   80MOL   H38744785   6.988   2.380   6.301  0.1792 -0.8526  0.1306
   80MOL   H38844786   7.059   2.506   6.222 -0.2667  0.5645  0.3330
   80MOL   H38944787   6.902   2.593   6.472 -2.3095 -1.4618 -1.4031
   80MOL   H39044788   6.998   2.678   6.356  0.2862 -0.1350  1.6190
   80MOL   H39144789   7.262   2.523   6.595 -1.8457 -0.3691  2.4249
   80MOL   H39244790   7.305   2.529   6.831 -1.7580 -0.9373 -2.5310
   80MOL   H39344791   7.415   2.426   7.032  1.0777  0.0268 -0.0175
   80MOL   O39444792   6.691   2.725   6.396  0.1548 -0.0909 -0.2201
   80MOL   C39544793   6.730   2.685   6.291 -0.4471 -0.4720 -0.1255
   80MOL   O39644794   6.836   2.612   6.276  0.1035 -0.4110  0.3890
   80MOL   C39744795   6.662   2.713   6.162  0.1626 -0.4232 -0.1470
   80MOL   C39844796   6.555   2.801   6.169 -0.8135 -0.5430 -0.0780
   80MOL   C39944797   6.471   2.819   6.060 -0.3925 -0.6663 -0.0226
   80MOL   C40044798   6.353   2.901   6.058  0.1852 -0.0809 -0.2809
   80MOL   C40144799   6.276   2.920   5.939 -0.1628 -0.6206  0.1113
   80MOL   C40244800   6.318   2.854   5.823  0.7258  0.0703 -0.9708
   80MOL   C40344801   6.233   2.880   5.702 -0.2019  0.1142  0.1439
   80MOL   O40444802   6.144   2.984   5.718 -0.2709 -0.2918 -0.2046
   80MOL   C40544803   6.045   3.010   5.619 -0.5125 -0.3420  0.1016
   80MOL   C40644804   6.003   3.154   5.636  0.1894 -0.3385  0.3699
   80MOL   O40744805   6.240   2.815   5.598  0.1616  0.6712  0.0271
   80MOL   C40844806   6.422   2.763   5.826 -0.1697  0.2166  0.0320
   80MOL   C40944807   6.499   2.750   5.943 -0.2132  0.9624  0.3386
   80MOL   C41044808   6.615   2.673   5.931  0.0392  0.7667  1.0762
   80MOL   C41144809   6.695   2.652   6.043 -0.4186 -0.1987 -0.4593
   80MOL   H41244810   6.534   2.862   6.255  0.6467  1.4889 -1.1327
   80MOL   H41344811   6.327   2.956   6.147 -0.9967 -1.4973  0.2737
   80MOL   H41444812   6.195   2.991   5.939 -0.9578 -1.5188 -0.9928
   80MOL   H41544813   5.970   2.933   5.636  0.5520 -1.1978  1.0013
   80MOL   H41644814   6.081   2.996   5.517 -1.6961  0.9322 -0.5214
   80MOL   H41744815   6.085   3.221   5.613 -0.0047 -0.2910 -0.1888
   80MOL   H41844816   5.915   3.177   5.576  1.0397 -0.3329 -0.9011
   80MOL   H41944817   6.440   2.707   5.735  0.1316  0.0470  0.1933
   80MOL   H42044818   6.649   2.620   5.843 -0.2826  1.1873  0.6985
   80MOL   H42144819   6.774   2.581   6.028  0.0810  0.8355 -2.9725
   80MOL   O42244820   6.045   3.369   5.801  0.4101 -0.3907 -0.5128
   80MOL   C42344821   5.979   3.272   5.835  1.1659  0.0695  0.2181
   80MOL   O42444822   5.955   3.163   5.763  0.2257  0.3691 -0.1334
   80MOL   C42544823   5.934   3.259   5.973 -0.3229 -0.1730 -0.4829
   80MOL   C42644824   5.850   3.153   6.018 -0.4308 -0.2875  0.6462
   80MOL   C42744825   5.801   3.152   6.152  0.1889 -0.2713 -0.2190
   80MOL   C42844826   5.721   3.048   6.198 -0.1139  1.0447 -0.3852
   80MOL   C42944827   5.680   3.049   6.334  0.3965  0.3766  0.5527
   80MOL   C43044828   5.708   3.150   6.429 -0.1262 -0.2287 -0.2765
   80MOL   C43144829   5.651   3.155   6.567  0.2907  0.8507  0.4827
   80MOL   O43244830   5.578   3.040   6.607  0.0251  0.2025 -0.1602
   80MOL   C43344831   5.515   3.023   6.734 -0.5115 -0.4105  0.1408
   80MOL   C43444832   5.381   3.092   6.729  0.5085  0.2298 -0.3355
   80MOL   O43544833   5.664   3.258   6.627  0.1339 -0.4591 -0.2958
   80MOL   C43644834   5.785   3.256   6.373 -0.1161 -0.7122 -0.1220
   80MOL   C43744835   5.824   3.265   6.237 -0.5785 -0.3217 -0.3680
   80MOL   C43844836   5.903   3.368   6.188 -0.3208 -1.0834 -0.1633
   80MOL   C43944837   5.957   3.369   6.059 -0.0311 -0.2317  0.4227
   80MOL   H44044838   5.827   3.062   5.966 -0.1954 -0.7984  1.4303
   80MOL   H44144839   5.707   2.961   6.136  2.0200  1.3737 -1.3816
   80MOL   H44244840   5.612   2.973   6.369  1.0291 -1.9646 -3.0605
   80MOL   H44344841   5.572   3.071   6.814 -1.8594  3.0167 -0.8416
   80MOL   H44444842   5.500   2.922   6.771  1.1085 -1.1838 -1.2303
   80MOL   H44544843   5.334   3.110   6.826  0.0823  0.2091 -0.5328
   80MOL   H44644844   5.400   3.196   6.702  2.1776 -0.7478 -3.0733
   80MOL   H44744845   5.803   3.337   6.441 -1.9922  0.4391 -0.9563
   80MOL   H44844846   5.922   3.458   6.245 -1.4796 -1.5328  0.9541
   80MOL   H44944847   6.010   3.458   6.027  0.4101  0.4611  2.9696
   80MOL   O45044848   5.196   2.882   6.774  0.1755 -0.1047 -0.1926
   80MOL   C45144849   5.211   2.929   6.660  0.2815 -0.2660 -0.7843
   80MOL   O45244850   5.293   3.030   6.627 -0.1570 -0.7861  0.4667
   80MOL   C45344851   5.125   2.899   6.543 -0.2281  0.2554 -0.2778
   80MOL   C45444852   5.148   2.953   6.409 -0.1199 -0.2687 -0.2735
   80MOL   C45544853   5.045   2.940   6.309  0.1071 -0.8683  0.2020
   80MOL   C45644854   5.064   3.006   6.182  0.3879 -0.2200 -0.8713
   80MOL   C45744855   4.962   2.996   6.088  0.0492 -0.2214  0.3127
   80MOL   C45844856   4.834   2.940   6.113 -0.8523  0.0027  0.0101
   80MOL   C45944857   4.728   2.937   6.005  0.0166 -0.0934 -0.0250
   80MOL   O46044858   4.608   2.916   6.050 -0.2119 -0.1821 -0.2869
   80MOL   C46144859   4.501   2.901   5.960 -0.2229  0.0921  0.0765
   80MOL   C46244860   4.466   2.753   5.940  0.4110  0.2595  0.3334
   80MOL   O46344861   4.753   2.955   5.885 -0.0968  1.1173 -0.4947
   80MOL   C46444862   4.817   2.875   6.238 -0.2572 -0.2338 -0.5705
   80MOL   C46544863   4.928   2.870   6.333  0.0030 -0.4273 -0.0382
   80MOL   C46644864   4.919   2.807   6.461  0.2733  0.3265 -0.6983
   80MOL   C46744865   5.013   2.822   6.562 -0.2829 -0.3541 -0.4853
   80MOL   H46844866   5.238   3.006   6.381  0.4575 -0.1006  1.8371
   80MOL   H46944867   5.152   3.051   6.141  0.6761 -1.3916 -1.5590
   80MOL   H47044868   4.987   3.035   5.990 -2.0187  1.5727  0.4758
   80MOL   H47144869   4.501   2.949   5.862 -1.4957 -1.0176 -0.4901
   80MOL   H47244870   4.417   2.947   6.012  0.2006  0.5772  0.3319
   80MOL   H47344871   4.457   2.691   6.030 -1.5381 -0.0664 -0.0647
   80MOL   H47444872   4.371   2.738   5.888 -0.6506  0.6550  2.0983
   80MOL   H47544873   4.727   2.819   6.258 -1.6469  2.1644  0.0567
   80MOL   H47644874   4.833   2.750   6.491 -1.0544  2.0030 -1.2300
   80MOL   H47744875   4.994   2.777   6.658 -0.5231 -1.1941 -0.9126
   80MOL   O47844876   4.469   2.753   5.666  0.2489 -0.4321 -0.4855
   80MOL   C47944877   4.558   2.700   5.724  0.0937  0.0689  0.0519
   80MOL   O48044878   4.566   2.695   5.851  0.4693 -0.0219  0.0820
   80MOL   C48144879   4.676   2.625   5.662  0.4929  0.4883 -0.2950
   80MOL   C48244880   4.656   2.575   5.531 -0.9236 -0.0715  0.0455
   80MOL   C48344881   4.759   2.510   5.470  0.5821  0.1587 -0.6542
   80MOL   C48444882   4.737   2.470   5.335  0.5515  0.1066 -0.6663
   80MOL   C48544883   4.836   2.402   5.262  0.1391  0.9798 -0.3411
   80MOL   C48644884   4.962   2.379   5.325 -0.4128 -0.1699 -0.5433
   80MOL   C48744885   5.072   2.324   5.241  0.7927 -0.0644  0.3123
   80MOL   O48844886   5.180   2.286   5.314 -0.3018  0.2613  0.1085
   80MOL   C48944887   5.280   2.190   5.269  0.1945 -0.0027  0.6015
   80MOL   C49044888   5.195   2.060   5.247  0.2628 -0.3569 -0.1188
   80MOL   O49144889   5.063   2.290   5.123  0.2216  0.2406 -0.0636
   80MOL   C49244890   4.986   2.428   5.460  0.3291 -0.2319 -0.0006
   80MOL   C49344891   4.885   2.486   5.534  0.0461 -0.1429  0.8379
   80MOL   C49444892   4.903   2.516   5.673 -0.0736 -1.0632  0.9321
   80MOL   C49544893   4.790   2.583   5.734  1.0528  0.1875 -0.3675
   80MOL   H49644894   4.564   2.606   5.485 -0.6833 -0.1900 -0.5245
   80MOL   H49744895   4.639   2.481   5.291  0.5369  0.7075 -0.4875
   80MOL   H49844896   4.812   2.366   5.163  0.1890 -1.8589  0.6317
   80MOL   H49944897   5.359   2.168   5.341 -0.6565 -2.5278  0.8132
   80MOL   H50044898   5.324   2.237   5.181 -1.0732 -1.1760 -0.6847
   80MOL   H50144899   5.089   2.085   5.255  0.6131  0.4285  2.4286
   80MOL   H50244900   5.213   2.026   5.145  3.1429  1.0967 -0.1581
   80MOL   H50344901   5.080   2.413   5.511  0.6170 -1.1273 -0.7696
   80MOL   H50444902   4.998   2.497   5.721  0.9358  1.5580  0.0653
   80MOL   H50544903   4.816   2.611   5.835  0.9804 -0.3064 -0.2114
   80MOL   O50644904   5.169   2.067   5.522  0.3036 -0.3726  0.2875
   80MOL   C50744905   5.187   1.960   5.469  0.2431  0.5841  0.4513
   80MOL   O50844906   5.214   1.949   5.332 -0.1869  0.4858 -0.1941
   80MOL   C50944907   5.208   1.832   5.550 -0.4411 -0.4560 -0.1693
   80MOL   C51044908   5.215   1.711   5.484 -0.1337 -0.3458 -0.7904
   80MOL   C51144909   5.235   1.590   5.557 -0.1057  0.0023 -0.5296
   80MOL   C51244910   5.253   1.475   5.487  0.1415 -0.0969  0.1640
   80MOL   C51344911   5.292   1.360   5.554  0.6137 -0.1788 -0.4127
   80MOL   C51444912   5.304   1.359   5.695  0.2279 -0.8847  0.3462
   80MOL   C51544913   5.335   1.237   5.769 -0.5429  0.3693  0.0244
   80MOL   O51644914   5.301   1.242   5.895  0.0223 -0.5954 -0.2938
   80MOL   C51744915   5.342   1.148   5.985 -0.4469  0.5435 -0.2534
   80MOL   C51844916   5.474   1.195   6.052 -0.5992 -0.5249  0.2521
   80MOL   O51944917   5.389   1.138   5.714  0.1760 -0.4411 -0.2193
   80MOL   C52044918   5.273   1.475   5.763  0.1052 -0.3717  0.0016
   80MOL   C52144919   5.243   1.597   5.698 -0.4953 -0.3161  0.2625
   80MOL   C52244920   5.228   1.722   5.766  0.1861  0.2558 -0.2693
   80MOL   C52344921   5.207   1.837   5.688  0.4927 -0.3110  0.2536
   80MOL   H52444922   5.217   1.702   5.377  1.0981  1.5128 -0.9432
   80MOL   H52544923   5.251   1.473   5.379 -0.0514 -0.6125  0.1754
   80MOL   H52644924   5.320   1.270   5.500  0.3366 -0.2185 -0.4925
   80MOL   H52744925   5.349   1.047   5.945 -0.0252  0.2222  0.6097
   80MOL   H52844926   5.255   1.145   6.051 -1.1440 -0.8271 -1.2148
   80MOL   H52944927   5.507   1.111   6.112 -1.8234  1.6393  4.1218
   80MOL   H53044928   5.556   1.223   5.986 -0.0196  0.1586  1.2425
   80MOL   H53144929   5.290   1.478   5.869  0.2289  1.3897 -0.0523
   80MOL   H53244930   5.228   1.729   5.873 -0.2628 -0.4917 -0.2177
   80MOL   H53344931   5.203   1.932   5.740  1.6734 -0.6292  0.9461
   80MOL   O53444932   5.332   1.190   6.295  0.8482  0.2327  0.2153
   80MOL   C53544933   5.374   1.296   6.242 -0.1241  0.1408 -0.1008
   80MOL   O53644934   5.444   1.311   6.128  0.4960 -0.5613 -0.0022
   80MOL   C53744935   5.348   1.426   6.309 -0.8109  0.0474 -0.2426
   80MOL   C53844936   5.325   1.541   6.235 -0.5145  0.1898  1.0006
   80MOL   C53944937   5.324   1.659   6.304 -0.2852 -0.7733  0.1086
   80MOL   C54044938   5.326   1.784   6.227 -0.2818  0.3382 -0.7798
   80MOL   C54144939   5.325   1.907   6.295 -0.9670 -0.2711  0.6152
   80MOL   C54244940   5.329   1.906   6.434  0.4361  0.5456 -0.3311
   80MOL   C54344941   5.333   2.035   6.507 -0.0744  0.2979 -0.9513
   80MOL   O54444942   5.304   2.029   6.634 -0.0838  0.0565 -0.3211
   80MOL   C54544943   5.285   2.144   6.723  0.2563  0.2432  0.2319
   80MOL   C54644944   5.348   2.103   6.855 -0.1515 -0.1068  0.1526
   80MOL   O54744945   5.360   2.147   6.456 -0.1304  0.2457 -0.0928
   80MOL   C54844946   5.323   1.787   6.508  0.2042  0.1691  0.5193
   80MOL   C54944947   5.312   1.663   6.446  0.0603 -1.0406 -0.3008
   80MOL   C55044948   5.308   1.545   6.519  0.2432  0.0783  0.7883
   80MOL   C55144949   5.320   1.422   6.446  1.0111 -0.0458  0.2606
   80MOL   H55244950   5.331   1.539   6.127  2.0602 -0.3893  1.1155
   80MOL   H55344951   5.326   1.775   6.119 -0.5670 -1.0869 -0.6802
   80MOL   H55444952   5.349   1.997   6.241 -0.2269 -0.6559  0.2916
   80MOL   H55544953   5.176   2.149   6.735  0.1405 -1.9883  0.4478
   80MOL   H55644954   5.336   2.233   6.687  2.2745 -0.0496  2.3013
   80MOL   H55744955   5.332   2.007   6.904 -1.2140  0.2519  0.5319
   80MOL   H55844956   5.306   2.172   6.929 -0.6078 -0.5194  0.2834
   80MOL   H55944957   5.321   1.786   6.616  0.9585 -0.0335  0.5301
   80MOL   H56044958   5.302   1.536   6.626 -1.5173  1.4326  0.8181
   80MOL   H56144959   5.312   1.329   6.499 -1.7063  0.0595  0.1044
   80MOL   H56244960   5.454   2.126   6.857 -0.0723 -0.3100 -1.2830
   81MOL     O144961   4.828   5.341   1.176 -0.4460 -0.4852 -0.2744
   81MOL     C244962   4.772   5.231   1.165  0.3010  0.1467  0.1189
   81MOL     O344963   4.836   5.126   1.108  0.4563 -0.7856  0.2025
   81MOL     C444964   4.637   5.206   1.218  0.6431  0.1193  0.6134
   81MOL     C544965   4.551   5.319   1.242 -0.2069 -0.2404  0.0362
   81MOL     C644966   4.427   5.298   1.301 -0.4685  0.4811 -0.4759
   81MOL     C744967   4.352   5.412   1.336  0.0514 -0.0623  0.5891
   81MOL     C844968   4.230   5.399   1.401 -0.0905 -0.1055  0.3409
   81MOL     C944969   4.178   5.269   1.422 -0.4994  0.4129 -0.3064
   81MOL    C1044970   4.040   5.257   1.465  0.1193  0.1152  0.1102
   81MOL    O1144971   4.013   5.357   1.548 -0.1730  0.0745  0.0094
   81MOL    C1244972   3.881   5.366   1.607 -0.6514  0.4206  0.2371
   81MOL    C1344973   3.869   5.481   1.702 -0.4171  0.1934 -0.6745
   81MOL    O1444974   3.959   5.164   1.448  0.3456 -0.5395  0.7891
   81MOL    C1544975   4.250   5.154   1.376 -0.2887 -0.2207  0.5049
   81MOL    C1644976   4.376   5.164   1.320  0.5940 -0.8112  0.4560
   81MOL    C1744977   4.456   5.054   1.281  0.0454 -0.2407 -0.6608
   81MOL    C1844978   4.587   5.071   1.240 -0.9461 -0.0554  0.7210
   81MOL    H1944979   4.588   5.414   1.207 -0.0191 -0.7059 -1.0631
   81MOL    H2044980   4.389   5.509   1.306 -0.4819  0.1273  0.5347
   81MOL    H2144981   4.176   5.493   1.410  1.1804  0.6836 -0.1214
   81MOL    H2244982   3.800   5.374   1.534 -0.4750 -0.6938 -0.0891
   81MOL    H2344983   3.838   5.286   1.668  0.9666  0.5014  1.5227
   81MOL    H2444984   3.825   5.463   1.800 -2.7309 -1.1907 -1.9305
   81MOL    H2544985   3.971   5.498   1.736 -0.1226  1.0847 -1.9914
   81MOL    H2644986   4.207   5.056   1.387 -0.8216  0.0881  1.2407
   81MOL    H2744987   4.432   4.948   1.282  0.6215 -0.3727 -0.4945
   81MOL    H2844988   4.643   4.982   1.217  0.1017  0.9665 -0.7633
   81MOL    H2944989   4.928   5.142   1.095  0.0857 -0.2615 -2.0462
   81MOL    O3044990   4.009   5.683   1.577  0.2043  0.2339  0.4629
   81MOL    C3144991   3.893   5.692   1.607 -0.1405 -0.4870  0.2287
   81MOL    O3244992   3.812   5.598   1.646 -0.3511 -0.0362 -0.2041
   81MOL    C3344993   3.810   5.816   1.595  1.2288 -0.1749 -0.6924
   81MOL    C3444994   3.854   5.934   1.653  0.8064 -0.0974 -0.0732
   81MOL    C3544995   3.777   6.049   1.643 -0.5373 -0.0558 -0.6549
   81MOL    C3644996   3.826   6.173   1.700  0.1005 -0.1901 -0.5637
   81MOL    C3744997   3.747   6.291   1.690  0.0423 -0.4103 -0.0434
   81MOL    C3844998   3.622   6.282   1.625  0.1762  0.2711  0.1259
   81MOL    C3944999   3.537   6.404   1.614  0.0328  0.3879  0.2118
   81MOL    O4045000   3.580   6.508   1.686 -0.5163  0.0843 -0.6154
   81MOL    C4145001   3.512   6.627   1.697  0.4978 -1.0567 -0.2215
   81MOL    C4245002   3.536   6.726   1.580  0.1515  0.0034  0.0436
   81MOL    O4345003   3.436   6.415   1.544 -0.2472 -0.6491 -0.3783
   81MOL    C4445004   3.572   6.160   1.580  0.4903  0.1351  0.5225
   81MOL    C4545005   3.650   6.043   1.581  0.4087  0.2488 -0.9933
   81MOL    C4645006   3.603   5.925   1.526 -0.3544 -0.1417  0.0588
   81MOL    C4745007   3.686   5.815   1.533  0.3429  0.5054 -0.1985
   81MOL    H4845008   3.951   5.940   1.700  0.9693 -1.7408 -0.1972
   81MOL    H4945009   3.926   6.182   1.738  0.2839 -2.9644 -0.2950
   81MOL    H5045010   3.790   6.382   1.729  1.4620  0.1231 -2.7683
   81MOL    H5145011   3.544   6.670   1.792 -1.0885  0.0227 -0.1679
   81MOL    H5245012   3.406   6.605   1.712  0.3432 -0.3204 -0.2192
   81MOL    H5345013   3.449   6.704   1.518 -0.0195  0.8655 -0.0314
   81MOL    H5445014   3.523   6.828   1.616 -0.2201 -0.1543  0.3597
   81MOL    H5545015   3.469   6.164   1.546  0.1822 -0.5516  1.3603
   81MOL    H5645016   3.511   5.919   1.471 -0.2307  1.7528 -0.3933
   81MOL    H5745017   3.656   5.723   1.485 -0.4349  0.3703  0.5458
   81MOL    O5845018   3.803   6.839   1.617  0.3254  0.4958 -0.0850
   81MOL    C5945019   3.777   6.742   1.551  0.2218  0.3659  0.5494
   81MOL    O6045020   3.653   6.701   1.503  0.4706 -0.0336 -0.5613
   81MOL    C6145021   3.875   6.636   1.519  0.2387  0.3237  0.4653
   81MOL    C6245022   3.832   6.512   1.461 -0.1745 -0.2243  0.9731
   81MOL    C6345023   3.932   6.417   1.438 -0.1134  0.0955 -0.3767
   81MOL    C6445024   3.893   6.295   1.375 -0.6762  0.0688  0.6215
   81MOL    C6545025   3.987   6.182   1.367 -0.6409 -0.3704  0.2988
   81MOL    C6645026   4.121   6.204   1.403 -0.7785 -0.0561  0.6493
   81MOL    C6745027   4.224   6.096   1.393 -0.1902 -0.5128 -0.1593
   81MOL    O6845028   4.218   6.031   1.278 -0.1627  0.5351 -0.1352
   81MOL    C6945029   4.314   5.935   1.238 -0.5653  1.0210 -0.0130
   81MOL    C7045030   4.265   5.860   1.116  1.3487  0.3160  0.5494
   81MOL    O7145031   4.313   6.084   1.473 -0.3483  0.2399 -0.1477
   81MOL    C7245032   4.165   6.327   1.456 -0.1450 -0.0463 -0.0962
   81MOL    C7345033   4.067   6.431   1.471 -0.2313 -0.4204  0.3173
   81MOL    C7445034   4.107   6.554   1.526 -0.5526  0.4170  0.0728
   81MOL    C7545035   4.013   6.657   1.560 -0.4223 -0.1499  0.5048
   81MOL    H7645036   3.728   6.490   1.442  0.2629 -1.2291 -0.3485
   81MOL    H7745037   3.792   6.279   1.342 -0.3807  0.9505 -0.7390
   81MOL    H7845038   3.961   6.082   1.334  2.1051 -0.2764 -2.3905
   81MOL    H7945039   4.318   5.864   1.321  0.3877 -0.8076 -1.5749
   81MOL    H8045040   4.408   5.989   1.229 -0.4985  0.8277 -0.5234
   81MOL    H8145041   4.246   5.925   1.031  0.9237 -0.8655 -0.2674
   81MOL    H8245042   4.337   5.788   1.077 -0.4080 -1.2848  0.1921
   81MOL    H8345043   4.265   6.342   1.493 -0.1601  0.1562 -0.1379
   81MOL    H8445044   4.207   6.566   1.564 -0.5837  1.0969 -0.0502
   81MOL    H8545045   4.044   6.743   1.618 -2.0668  0.3074  0.7305
   81MOL    O8645046   4.000   5.946   1.080  0.1593  0.1868 -0.0843
   81MOL    C8745047   4.022   5.836   1.135 -0.8547  0.4369  0.2477
   81MOL    O8845048   4.149   5.779   1.143  0.2011 -0.3387  0.1437
   81MOL    C8945049   3.913   5.748   1.178 -0.6218  0.8376 -0.6444
   81MOL    C9045050   3.780   5.802   1.173  0.3241 -0.7165  0.2056
   81MOL    C9145051   3.671   5.719   1.205  0.0352 -0.2380 -0.2844
   81MOL    C9245052   3.545   5.775   1.198 -0.0320  0.4807  0.2929
   81MOL    C9345053   3.432   5.697   1.227  0.2265  0.5136 -0.2495
   81MOL    C9445054   3.450   5.560   1.267  0.8141  0.6512 -0.7184
   81MOL    C9545055   3.335   5.478   1.297  0.9635 -0.5942 -0.0296
   81MOL    O9645056   3.354   5.359   1.353  0.1176 -0.9340 -0.1014
   81MOL    C9745057   3.244   5.273   1.380  0.7105  0.4719 -0.3329
   81MOL    C9845058   3.155   5.331   1.495  0.8497  0.1008  0.1984
   81MOL    O9945059   3.227   5.516   1.261  0.2788 -0.1991 -0.0050
   81MOL   C10045060   3.575   5.499   1.267 -0.0491  0.8081  0.4394
   81MOL   C10145061   3.689   5.580   1.233  0.2614 -0.3972  0.0924
   81MOL   C10245062   3.823   5.534   1.230 -0.8695  0.1044  0.0942
   81MOL   C10345063   3.936   5.616   1.219 -0.3311 -0.1418 -0.1353
   81MOL   H10445064   3.776   5.903   1.135  2.2336  0.5349  3.1621
   81MOL   H10545065   3.521   5.879   1.181 -0.0766  0.4343  0.0718
   81MOL   H10645066   3.333   5.737   1.240  0.6373  1.9970 -1.5846
   81MOL   H10745067   3.271   5.177   1.425 -2.6141 -0.1126  0.5510
   81MOL   H10845068   3.179   5.258   1.294 -0.0171 -1.1023  0.4629
   81MOL   H10945069   3.126   5.254   1.567 -0.0870  0.1059 -0.1549
   81MOL   H11045070   3.200   5.410   1.555 -1.5436  1.2503  0.5460
   81MOL   H11145071   3.592   5.398   1.303 -1.2762  0.1333 -0.8316
   81MOL   H11245072   3.842   5.429   1.247 -1.3405 -0.2555 -1.5013
   81MOL   H11345073   4.033   5.575   1.240 -0.3571  0.6809  1.7048
   81MOL   O11445074   2.894   5.261   1.558  0.0562  0.1466 -0.9811
   81MOL   C11545075   2.923   5.361   1.492  0.7621 -0.0234 -0.4390
   81MOL   O11645076   3.041   5.382   1.438  0.3354  0.0614 -0.4798
   81MOL   C11745077   2.818   5.464   1.473  0.0683 -0.7038  0.5617
   81MOL   C11845078   2.843   5.572   1.387  0.0549 -0.5572  0.2537
   81MOL   C11945079   2.748   5.679   1.369  0.1802 -0.0695  0.1954
   81MOL   C12045080   2.787   5.789   1.294 -0.4046  0.4492 -0.9113
   81MOL   C12145081   2.697   5.885   1.275  0.2564 -0.0862 -0.2415
   81MOL   C12245082   2.572   5.879   1.333  0.9319  0.0613 -0.0735
   81MOL   C12345083   2.478   5.985   1.305 -0.0589 -0.0257 -0.0990
   81MOL   O12445084   2.506   6.044   1.185 -0.5333 -0.6997 -0.5601
   81MOL   C12545085   2.432   6.156   1.124 -0.0629 -0.1381 -0.6237
   81MOL   C12645086   2.523   6.276   1.109  0.1028  0.5591  0.1402
   81MOL   O12745087   2.382   6.014   1.368  0.3340 -0.0188 -0.0544
   81MOL   C12845088   2.532   5.774   1.417 -0.2507 -0.0319 -0.4095
   81MOL   C12945089   2.624   5.670   1.438  0.0875  1.0019 -0.5140
   81MOL   C13045090   2.605   5.563   1.522 -0.0898  0.1529  0.2060
   81MOL   C13145091   2.696   5.461   1.541 -0.4543 -0.5358  0.0662
   81MOL   H13245092   2.929   5.590   1.325 -0.2252  1.1377  0.3326
   81MOL   H13345093   2.890   5.801   1.266  0.5790 -1.1026  1.8874
   81MOL   H13445094   2.726   5.964   1.207 -0.7676 -0.9048 -1.6806
   81MOL   H13545095   2.338   6.177   1.173  1.7307  3.1952  1.6025
   81MOL   H13645096   2.409   6.123   1.023 -0.0360 -0.5725 -0.4869
   81MOL   H13745097   2.621   6.252   1.067  0.9581 -0.4642  2.6608
   81MOL   H13845098   2.480   6.353   1.044  0.4939  0.2737 -0.4659
   81MOL   H13945099   2.440   5.773   1.472  0.8371 -0.5059  1.4520
   81MOL   H14045100   2.511   5.552   1.573  0.5565 -0.6584  1.2310
   81MOL   H14145101   2.669   5.370   1.593  1.1456 -3.0003 -3.2308
   81MOL   O14245102   2.722   6.453   1.198  0.2742  0.2392 -0.0853
   81MOL   C14345103   2.641   6.401   1.275 -0.0707 -0.7039 -0.2338
   81MOL   O14445104   2.539   6.321   1.239  0.5216 -0.9664  0.3804
   81MOL   C14545105   2.638   6.426   1.417 -0.1938 -0.3299 -0.7631
   81MOL   C14645106   2.725   6.531   1.465  0.1510  0.5768  0.0474
   81MOL   C14745107   2.726   6.567   1.596 -0.4449 -0.5156 -0.0770
   81MOL   C14845108   2.809   6.676   1.637  0.5221 -0.0449  0.0806
   81MOL   C14945109   2.796   6.721   1.768 -0.6391 -0.3134 -0.1525
   81MOL   C15045110   2.705   6.667   1.858  0.5767  0.3555 -0.2178
   81MOL   C15145111   2.708   6.711   1.997 -0.1127  0.1038 -0.1269
   81MOL   O15245112   2.605   6.670   2.066 -0.4135  0.3396 -0.4396
   81MOL   C15345113   2.618   6.667   2.209 -0.5096  0.1980  0.1821
   81MOL   C15445114   2.495   6.601   2.272 -0.3024  1.1039 -0.0586
   81MOL   O15545115   2.803   6.781   2.038  0.2885 -0.3175  0.2287
   81MOL   C15645116   2.627   6.550   1.820  0.1143  0.5485  0.2775
   81MOL   C15745117   2.637   6.504   1.687  0.0862 -0.0274  0.7952
   81MOL   C15845118   2.561   6.389   1.643 -0.2927  0.3116  0.1220
   81MOL   C15945119   2.568   6.345   1.511  0.4165 -0.0533  0.0447
   81MOL   H16045120   2.796   6.574   1.395 -1.2827 -0.2199 -1.9614
   81MOL   H16145121   2.875   6.737   1.576 -1.3987  1.0581 -0.9187
   81MOL   H16245122   2.865   6.798   1.798 -0.6074 -0.7280  0.8504
   81MOL   H16345123   2.632   6.771   2.239  0.2714 -0.0276  0.6076
   81MOL   H16445124   2.698   6.601   2.242 -0.4530  0.7822  1.2515
   81MOL   H16545125   2.487   6.627   2.378 -0.1104  0.7051  0.0543
   81MOL   H16645126   2.403   6.619   2.217 -0.5476 -1.4089 -0.5237
   81MOL   H16745127   2.574   6.490   1.892 -2.2484 -0.1493 -1.9922
   81MOL   H16845128   2.497   6.328   1.705 -0.7043  1.4192  0.8107
   81MOL   H16945129   2.503   6.265   1.480 -0.3691  0.2527  0.8463
   81MOL   O17045130   2.391   6.420   2.094  0.3066  0.5837 -0.6708
   81MOL   C17145131   2.479   6.386   2.178  1.0271  0.9256 -0.6594
   81MOL   O17245132   2.530   6.464   2.273  1.1476 -0.1026 -0.8432
   81MOL   C17345133   2.506   6.238   2.196 -0.2711  0.1244  0.5413
   81MOL   C17445134   2.580   6.179   2.307 -0.0809  0.5349  0.5186
   81MOL   C17545135   2.587   6.038   2.316 -0.3049  0.6845  0.4441
   81MOL   C17645136   2.648   5.980   2.421  0.2937  0.3820 -1.8466
   81MOL   C17745137   2.665   5.842   2.440  0.4999  0.8332 -0.0779
   81MOL   C17845138   2.620   5.758   2.335  0.4926  0.0229 -0.1848
   81MOL   C17945139   2.634   5.609   2.338  0.4366  0.9890 -1.1858
   81MOL   O18045140   2.684   5.574   2.457  0.1233 -0.0376  0.0311
   81MOL   C18145141   2.680   5.433   2.501 -0.2574 -0.3556  0.2641
   81MOL   C18245142   2.675   5.436   2.657  0.2958 -0.4522 -0.2281
   81MOL   O18345143   2.601   5.533   2.243 -0.5541  0.9304 -0.0257
   81MOL   C18445144   2.566   5.814   2.221 -0.4967 -0.7576  0.1796
   81MOL   C18545145   2.543   5.956   2.209  0.2854  0.8803 -0.2302
   81MOL   C18645146   2.482   6.009   2.099 -0.0854 -0.3497  0.1115
   81MOL   C18745147   2.463   6.151   2.091  0.0408  0.2530  0.3592
   81MOL   H18845148   2.624   6.244   2.382  0.9419 -0.1241  0.4974
   81MOL   H18945149   2.682   6.047   2.499 -0.4272  0.0496 -1.2378
   81MOL   H19045150   2.714   5.809   2.531  0.8495  0.6630 -0.3253
   81MOL   H19145151   2.769   5.388   2.456 -0.9092 -0.7869 -0.6099
   81MOL   H19245152   2.596   5.384   2.452  0.8901 -1.6746 -0.4321
   81MOL   H19345153   2.666   5.338   2.705  0.1720 -1.0575 -1.4634
   81MOL   H19445154   2.769   5.482   2.689  0.7580 -3.5569  3.2953
   81MOL   H19545155   2.543   5.743   2.144  0.5229 -1.7512  0.7720
   81MOL   H19645156   2.450   5.937   2.025  2.2554  0.3804 -1.6437
   81MOL   H19745157   2.416   6.184   2.000 -2.4210 -2.0236  0.7577
   81MOL   O19845158   2.659   5.561   2.900  0.0080 -0.0264  0.7689
   81MOL   C19945159   2.568   5.577   2.818  0.2142  0.3322  0.0296
   81MOL   O20045160   2.564   5.514   2.697  0.1932 -0.1735  0.6222
   81MOL   C20145161   2.456   5.657   2.855  0.1627  0.4538 -0.5092
   81MOL   C20245162   2.403   5.634   2.984 -0.4642  0.6074 -0.2133
   81MOL   C20345163   2.296   5.723   3.016 -1.0349  0.3436 -0.8166
   81MOL   C20445164   2.240   5.708   3.149 -0.3433  0.0157  0.2007
   81MOL   C20545165   2.123   5.777   3.180 -0.0002  0.2363  0.3063
   81MOL   C20645166   2.065   5.868   3.090 -0.0320  0.7434  0.3970
   81MOL   C20745167   1.952   5.957   3.127 -0.1396  0.3187  0.4869
   81MOL   O20845168   1.953   5.989   3.261  0.1534 -0.5526  0.3997
   81MOL   C20945169   1.845   6.068   3.303  0.1075 -0.2623  0.1097
   81MOL   C21045170   1.836   6.046   3.453 -0.1496 -0.1720  0.6336
   81MOL   O21145171   1.874   6.006   3.044  0.4505 -0.0335 -0.4024
   81MOL   C21245172   2.129   5.883   2.963  0.1677  0.0567 -0.3203
   81MOL   C21345173   2.241   5.814   2.929  0.3370 -0.7286  0.3743
   81MOL   C21445174   2.303   5.831   2.805  0.2387  0.2977  0.3370
   81MOL   C21545175   2.408   5.752   2.764  0.2309  0.6229  0.2802
   81MOL   H21645176   2.459   5.567   3.048 -0.4717  0.4176 -0.4062
   81MOL   H21745177   2.287   5.633   3.211  1.1876  0.1330 -0.8077
   81MOL   H21845178   2.068   5.772   3.273 -0.6314  2.0201  0.0509
   81MOL   H21945179   1.752   6.030   3.260  1.0190 -2.6929  0.2144
   81MOL   H22045180   1.852   6.176   3.289  2.8098 -0.4385 -0.1476
   81MOL   H22145181   1.871   5.945   3.473 -1.8375 -0.5839  1.6400
   81MOL   H22245182   1.899   6.109   3.516  1.2557 -2.7053  1.8118
   81MOL   H22345183   2.092   5.960   2.897  0.7085 -0.4251 -1.1940
   81MOL   H22445184   2.258   5.906   2.742  0.5491  0.8462  0.7604
   81MOL   H22545185   2.447   5.774   2.665  0.4214  1.5345  0.5549
   81MOL   O22645186   1.700   6.271   3.503 -0.1409  0.0584  0.2012
   81MOL   C22745187   1.650   6.170   3.537 -0.1102  0.2911 -0.1865
   81MOL   O22845188   1.705   6.045   3.505  0.7211 -0.0172  0.9004
   81MOL   C22945189   1.514   6.163   3.598  0.4053  0.5290  1.0039
   81MOL   C23045190   1.465   6.033   3.621  0.1289  0.2976 -0.3755
   81MOL   C23145191   1.333   6.017   3.663 -0.2412  0.4152  0.1493
   81MOL   C23245192   1.272   5.890   3.662 -0.6596 -0.5068  0.1414
   81MOL   C23345193   1.139   5.877   3.696  1.1348 -0.6743 -0.5544
   81MOL   C23445194   1.059   5.988   3.735  0.2753  0.4388 -0.0874
   81MOL   C23545195   0.916   5.974   3.778 -0.6916  0.1105 -0.5756
   81MOL   O23645196   0.839   5.888   3.704  0.2068 -0.0862  0.5601
   81MOL   C23745197   0.702   5.870   3.731 -1.2993 -0.1447 -0.2910
   81MOL   C23845198   0.688   5.753   3.831  0.3571 -0.6276  0.1358
   81MOL   O23945199   0.871   6.043   3.873  0.9244 -0.0169  0.2540
   81MOL   C24045200   1.120   6.114   3.737 -0.3299 -0.0882  0.0937
   81MOL   C24145201   1.258   6.127   3.701  0.1007  0.3057  0.3080
   81MOL   C24245202   1.316   6.260   3.691 -0.0855  0.7560  0.5481
   81MOL   C24345203   1.445   6.274   3.640  0.1513 -0.1150  0.2504
   81MOL   H24445204   1.513   5.943   3.586  2.5429  0.8427  1.4632
   81MOL   H24545205   1.321   5.802   3.623 -0.2071 -0.2145  0.0389
   81MOL   H24645206   1.086   5.783   3.684 -2.1559  1.2925 -2.0325
   81MOL   H24745207   0.668   5.860   3.628  0.6115  2.1529 -1.2089
   81MOL   H24845208   0.663   5.963   3.773 -0.2346  0.1185  0.1373
   81MOL   H24945209   0.767   5.756   3.906  0.8138  1.8315 -0.3877
   81MOL   H25045210   0.594   5.756   3.887  0.1239 -3.3018 -0.0852
   81MOL   H25145211   1.056   6.200   3.751 -0.2443 -0.1663  0.9362
   81MOL   H25245212   1.268   6.353   3.718 -0.5158  0.2582  1.4978
   81MOL   H25345213   1.494   6.368   3.617  1.2329 -0.0341  2.7122
   81MOL   O25445214   0.816   5.533   3.901  0.5814  0.4489 -0.1780
   81MOL   C25545215   0.771   5.539   3.786  0.1104  0.3795  0.2550
   81MOL   O25645216   0.676   5.630   3.751  0.4130 -0.0631  0.2354
   81MOL   C25745217   0.810   5.454   3.665  0.4299  0.3448 -0.3004
   81MOL   C25845218   0.922   5.368   3.677  0.4826  0.5566 -1.3232
   81MOL   C25945219   0.973   5.295   3.569 -0.2470 -0.8717 -0.4367
   81MOL   C26045220   1.082   5.212   3.585  0.3125 -0.2165 -0.5208
   81MOL   C26145221   1.129   5.130   3.482  0.3286  0.0751  0.1960
   81MOL   C26245222   1.057   5.127   3.357  0.5867 -0.9628 -0.1373
   81MOL   C26345223   1.074   5.012   3.262 -0.2360 -0.0738 -0.3398
   81MOL   O26445224   1.158   4.916   3.309 -0.1655  0.6984 -0.0402
   81MOL   C26545225   1.213   4.821   3.224  0.1997 -0.0837  0.6970
   81MOL   C26645226   1.281   4.717   3.303  0.3915  0.4306 -0.4782
   81MOL   O26745227   1.020   5.010   3.149 -0.0896  0.1742 -0.2093
   81MOL   C26845228   0.949   5.222   3.339 -0.2500 -0.1456  0.1467
   81MOL   C26945229   0.914   5.310   3.444 -0.4735  0.5547 -0.1863
   81MOL   C27045230   0.802   5.393   3.426 -0.5377  0.4030  0.1831
   81MOL   C27145231   0.745   5.457   3.542 -0.6782 -0.0858  0.0124
   81MOL   H27245232   0.979   5.360   3.769 -1.8982  0.3862  0.1628
   81MOL   H27345233   1.114   5.180   3.683  1.6407  1.0280 -0.5380
   81MOL   H27445234   1.201   5.054   3.508  0.5231  0.6604  1.3763
   81MOL   H27545235   1.288   4.861   3.156  0.0063  1.2040  1.2193
   81MOL   H27645236   1.143   4.762   3.166  1.7821 -1.9529  0.6214
   81MOL   H27745237   1.217   4.668   3.377 -0.5641 -0.3519 -1.7979
   81MOL   H27845238   1.319   4.638   3.238  0.6554  1.4263 -1.5588
   81MOL   H27945239   0.893   5.216   3.247 -0.0686 -0.0016  0.0279
   81MOL   H28045240   0.759   5.405   3.328 -0.0598 -3.1634 -0.5343
   81MOL   H28145241   0.654   5.514   3.526  0.4777  1.1658 -2.3952
   81MOL   O28245242   1.524   4.817   3.232 -0.0530  0.0996 -0.2911
   81MOL   C28345243   1.497   4.816   3.345  0.5891  0.0992  0.3483
   81MOL   O28445244   1.381   4.768   3.392  0.2367  0.0459  0.2645
   81MOL   C28545245   1.575   4.880   3.457 -0.0053  0.1417 -0.1446
   81MOL   C28645246   1.510   4.898   3.578  0.0370  0.5311 -0.3862
   81MOL   C28745247   1.583   4.948   3.688  0.8383 -0.5165 -0.3161
   81MOL   C28845248   1.519   4.965   3.813  0.3936 -0.4435  0.0513
   81MOL   C28945249   1.587   5.030   3.914 -0.0897  0.6759 -0.1434
   81MOL   C29045250   1.725   5.057   3.905 -0.1597  0.3628 -0.8324
   81MOL   C29145251   1.796   5.139   3.999  0.6849  0.1347  0.3422
   81MOL   O29245252   1.920   5.167   3.960 -0.6732 -0.6510  0.0946
   81MOL   C29345253   1.998   5.259   4.030  0.0707  0.4270  0.4349
   81MOL   C29445254   1.966   5.403   3.990 -0.0587  0.5673  0.4361
   81MOL   O29545255   1.745   5.184   4.100 -0.2205  0.2631 -0.4000
   81MOL   C29645256   1.784   5.031   3.782  0.5151  0.1863 -0.9975
   81MOL   C29745257   1.718   4.982   3.672  0.2982 -1.0947  0.0767
   81MOL   C29845258   1.774   4.977   3.540  0.1399  0.6975  0.2937
   81MOL   C29945259   1.707   4.917   3.435 -0.3502 -0.1066 -0.5119
   81MOL   H30045260   1.405   4.872   3.586  0.4606 -2.1251 -2.8891
   81MOL   H30145261   1.412   4.947   3.815  0.2554  0.2848 -0.4070
   81MOL   H30245262   1.537   5.049   4.008  0.8389 -0.7363  0.6595
   81MOL   H30345263   2.101   5.247   3.997 -0.1518 -0.3882  0.0241
   81MOL   H30445264   1.997   5.251   4.139  0.9382  0.3788  0.4375
   81MOL   H30545265   2.056   5.464   3.977  0.6160 -0.8303 -1.7324
   81MOL   H30645266   1.915   5.403   3.893  0.9597 -0.9803 -0.1152
   81MOL   H30745267   1.890   5.046   3.768  0.1763  2.5663 -1.2613
   81MOL   H30845268   1.873   5.016   3.525 -0.4037  2.0459  0.1846
   81MOL   H30945269   1.755   4.900   3.339  1.5430 -1.9651  0.7221
   81MOL   O31045270   2.012   5.474   4.247 -0.1659  0.1103 -0.0411
   81MOL   C31145271   1.907   5.511   4.197 -0.2375  0.1938 -0.7641
   81MOL   O31245272   1.873   5.468   4.075 -0.5562  0.5022  0.1772
   81MOL   C31345273   1.807   5.593   4.263 -0.2410 -0.4950 -0.7080
   81MOL   C31445274   1.692   5.624   4.191 -0.5568  0.2083 -0.5511
   81MOL   C31545275   1.590   5.705   4.245  0.0651  0.3799  0.0551
   81MOL   C31645276   1.473   5.738   4.174  0.2633  0.3132 -0.0247
   81MOL   C31745277   1.378   5.822   4.226 -0.7828 -0.7071  1.0871
   81MOL   C31845278   1.395   5.871   4.353 -0.8540 -0.9955  0.3318
   81MOL   C31945279   1.292   5.967   4.413  0.0883  0.5168  0.5218
   81MOL   O32045280   1.191   5.983   4.328  0.6641  0.1376  0.2213
   81MOL   C32145281   1.079   6.054   4.377 -0.3910  0.2264  0.0388
   81MOL   C32245282   0.965   6.053   4.270  0.5475 -0.0797 -0.7291
   81MOL   O32345283   1.295   6.003   4.534  0.6386  0.0206  0.5617
   81MOL   C32445284   1.514   5.839   4.431  0.1693 -0.3418  0.1737
   81MOL   C32545285   1.609   5.753   4.375 -0.5368  0.0364 -0.6043
   81MOL   C32645286   1.723   5.715   4.453  0.3011 -0.3276 -0.1542
   81MOL   C32745287   1.829   5.641   4.395  0.4469 -0.2897 -0.8328
   81MOL   H32845288   1.676   5.591   4.089  1.4123 -1.5618 -0.3031
   81MOL   H32945289   1.454   5.694   4.077 -0.2662  0.4211  0.0261
   81MOL   H33045290   1.296   5.852   4.162  0.6817  2.0281  0.4176
   81MOL   H33145291   1.101   6.156   4.410 -1.8212  0.8917 -1.0214
   81MOL   H33245292   1.032   5.997   4.458  1.1614 -0.6039  0.3766
   81MOL   H33345293   0.978   5.969   4.200 -0.9725  0.2685 -1.4416
   81MOL   H33445294   0.866   6.054   4.314  1.4710 -0.3552  1.4445
   81MOL   H33545295   1.517   5.887   4.528  0.5005  0.3376 -0.1651
   81MOL   H33645296   1.724   5.753   4.554  2.8074 -0.4272 -0.1171
   81MOL   H33745297   1.914   5.608   4.453  0.9290  0.4407 -1.1088
   81MOL   O33845298   1.149   6.144   4.101  0.2509  0.0485  1.0860
   81MOL   C33945299   1.062   6.222   4.136 -0.3867 -0.2078 -1.0755
   81MOL   O34045300   0.961   6.183   4.213  0.3212 -0.0379  0.0005
   81MOL   C34145301   1.055   6.363   4.099 -0.3379 -0.2898  0.2687
   81MOL   C34245302   0.945   6.444   4.152 -0.2731  0.1692  0.4005
   81MOL   C34345303   0.941   6.582   4.110  0.1954 -0.0772 -0.0996
   81MOL   C34445304   0.845   6.667   4.160 -0.2074  0.6222  0.1262
   81MOL   C34545305   0.842   6.804   4.120  0.3144  0.9180  0.4855
   81MOL   C34645306   0.932   6.851   4.025 -1.0311 -0.2668 -0.1430
   81MOL   C34745307   0.932   7.000   3.993  0.1352 -0.0961  0.1884
   81MOL   O34845308   0.986   7.026   3.868  0.0535  0.7910 -0.4545
   81MOL   C34945309   1.015   7.154   3.809  0.7196 -0.1123 -0.2071
   81MOL   C35045310   0.891   7.219   3.756  0.0816  0.2284 -0.3973
   81MOL   O35145311   0.883   7.087   4.069 -0.2684 -0.1026  0.8927
   81MOL   C35245312   1.029   6.768   3.969  0.5495  0.4254 -0.2831
   81MOL   C35345313   1.033   6.636   4.015  0.2368  0.0963 -0.2963
   81MOL   C35445314   1.139   6.551   3.973 -1.6933 -0.0255 -0.4116
   81MOL   C35545315   1.155   6.418   4.012 -0.3170 -0.5814 -0.3145
   81MOL   H35645316   0.882   6.404   4.230 -0.1608 -0.8287 -0.0164
   81MOL   H35745317   0.787   6.625   4.241  1.0266  2.5563  2.0831
   81MOL   H35845318   0.774   6.871   4.171  1.8062  2.0542  0.9839
   81MOL   H35945319   1.078   7.157   3.720  0.8288  1.4056 -0.0996
   81MOL   H36045320   1.052   7.213   3.893  0.3529  0.3370 -0.3544
   81MOL   H36145321   0.837   7.148   3.693  0.7700  1.0170 -1.8924
   81MOL   H36245322   0.809   7.238   3.825  1.2888 -1.1009  1.4489
   81MOL   H36345323   1.110   6.806   3.908 -0.1953 -0.3429 -1.7836
   81MOL   H36445324   1.215   6.596   3.911 -0.6416  0.2007  1.0329
   81MOL   H36545325   1.231   6.345   3.986 -1.6651 -1.9300 -0.5706
   81MOL   O36645326   0.981   7.454   3.880  0.3744 -0.1177  0.8546
   81MOL   C36745327   0.969   7.446   3.758 -0.4202  0.2957 -0.4938
   81MOL   O36845328   0.920   7.337   3.686 -0.4353  0.1209  0.3419
   81MOL   C36945329   1.002   7.562   3.667 -0.5238 -0.3497 -1.1851
   81MOL   C37045330   1.002   7.552   3.524  0.6430 -0.1594  0.1588
   81MOL   C37145331   1.031   7.668   3.448 -0.3987 -0.2379  0.2675
   81MOL   C37245332   1.013   7.656   3.313  0.1570 -0.5208  0.0428
   81MOL   C37345333   1.028   7.773   3.231 -0.1293  0.2286  0.3259
   81MOL   C37445334   1.061   7.898   3.291 -0.2129  0.4143 -0.0395
   81MOL   C37545335   1.092   8.019   3.209  0.4715 -0.0723  0.0834
   81MOL   O37645336   1.090   8.135   3.279  0.3990  0.0415 -0.3676
   81MOL   C37745337   1.112   0.011   3.209  0.2676 -0.4819  0.1036
   81MOL   C37845338   0.967   0.072   3.173  1.4027  0.3716 -0.6123
   81MOL   O37945339   1.120   8.005   3.085  0.0664 -0.2102 -0.2254
   81MOL   C38045340   1.073   7.906   3.433 -0.1277 -0.1061  0.0094
   81MOL   C38145341   1.056   7.790   3.509 -0.3142 -0.1931  0.0537
   81MOL   C38245342   1.062   7.802   3.650 -0.1382 -0.0249  0.8087
   81MOL   C38345343   1.033   7.684   3.723 -0.2632 -0.3880  0.2609
   81MOL   H38445344   0.968   7.459   3.480  1.3391  0.4399 -1.7019
   81MOL   H38545345   0.995   7.563   3.262  4.0402  1.4537 -5.3579
   81MOL   H38645346   1.020   7.779   3.123  0.2438 -0.8629  0.2268
   81MOL   H38745347   1.179   8.242   3.125  1.1063 -0.4571  0.7570
   81MOL   H38845348   1.154   0.087   3.275 -2.4138  2.2899 -1.2914
   81MOL   H38945349   0.947   0.104   3.070 -1.5080  1.7657  0.3346
   81MOL   H39045350   0.893   8.241   3.179 -0.5246  2.1464 -0.1296
   81MOL   H39145351   1.103   7.998   3.482  1.7847 -1.1228  0.8332
   81MOL   H39245352   1.082   7.896   3.699 -0.7344 -0.4136  1.8314
   81MOL   H39345353   1.048   7.689   3.830  1.0102 -0.7319  0.1063
   81MOL   O39445354   0.915   0.338   3.113 -0.1639 -0.3264 -0.0045
   81MOL   C39545355   0.911   0.297   3.229 -0.3554  0.0237 -0.5839
   81MOL   O39645356   0.939   0.173   3.271 -0.1729 -0.4353 -0.4093
   81MOL   C39745357   0.878   0.383   3.353  1.2595 -0.1930  0.3343
   81MOL   C39845358   0.863   0.327   3.481  0.9745  0.0818 -0.0589
   81MOL   C39945359   0.841   0.415   3.590  0.5765 -0.5345  0.4130
   81MOL   C40045360   0.824   0.363   3.719 -0.7791  0.8521  0.5353
   81MOL   C40145361   0.788   0.442   3.828 -0.1742  0.2514 -0.2396
   81MOL   C40245362   0.785   0.581   3.813  0.1902  0.1948  0.5733
   81MOL   C40345363   0.757   0.671   3.937  0.1415 -0.0009  0.5307
   81MOL   O40445364   0.708   0.797   3.901  0.1989  0.2871 -0.7351
   81MOL   C40545365   0.681   0.891   4.005 -0.3773  0.5114  0.2834
   81MOL   C40645366   0.637   1.020   3.947  0.4677 -0.0123 -0.2929
   81MOL   O40745367   0.771   0.632   4.053  0.0899  0.3650 -0.2958
   81MOL   C40845368   0.793   0.639   3.685  0.1477  0.4622  0.3385
   81MOL   C40945369   0.820   0.558   3.575 -0.2343 -0.5902  0.1391
   81MOL   C41045370   0.836   0.608   3.447  0.8329  0.3702 -0.2189
   81MOL   C41145371   0.858   0.523   3.340 -0.3050  0.1078  0.0059
   81MOL   H41245372   0.854   0.222   3.502 -1.9817  0.7849  2.4991
   81MOL   H41345373   0.839   0.257   3.732  0.1692  0.6676 -1.9194
   81MOL   H41445374   0.790   0.400   3.927 -0.9611  0.4030 -0.1556
   81MOL   H41545375   0.769   0.905   4.067 -1.6641  0.6887  2.0846
   81MOL   H41645376   0.608   0.846   4.072 -1.0467 -2.2405 -2.1856
   81MOL   H41745377   0.722   1.075   3.907  1.7699 -0.0562  2.3055
   81MOL   H41845378   0.575   1.007   3.859  0.6864  0.6075 -0.5426
   81MOL   H41945379   0.796   0.747   3.675  0.4931  0.4764  0.5791
   81MOL   H42045380   0.829   0.712   3.421 -0.4873 -0.4443 -3.3794
   81MOL   H42145381   0.852   0.559   3.238  0.0526  3.7084  1.1925
   81MOL   O42245382   0.365   1.031   3.988  0.3749  1.0927 -0.0146
   81MOL   C42345383   0.440   1.093   4.064 -0.3098 -0.8692  0.3148
   81MOL   O42445384   0.576   1.103   4.048  0.1254 -0.2454  0.8139
   81MOL   C42545385   0.391   1.171   4.183  0.8334  0.2238 -0.3217
   81MOL   C42645386   0.479   1.245   4.267 -0.0422 -0.2475 -0.1417
   81MOL   C42745387   0.440   1.320   4.374  1.0270  0.2544 -0.7779
   81MOL   C42845388   0.538   1.382   4.460  0.6349 -0.4007 -0.0249
   81MOL   C42945389   0.495   1.439   4.576  0.3695  0.4462 -0.3615
   81MOL   C43045390   0.361   1.450   4.614  0.5140 -0.4444 -0.5360
   81MOL   C43145391   0.320   1.502   4.746 -0.4796 -0.1287  0.3410
   81MOL   O43245392   0.426   1.538   4.825 -0.2834 -1.4553 -0.7033
   81MOL   C43345393   0.404   1.591   4.957 -0.3577  0.8313 -0.2054
   81MOL   C43445394   0.432   1.485   5.063 -0.6225  0.1265 -0.1084
   81MOL   O43545395   0.202   1.515   4.782  0.8269 -0.0408 -0.0058
   81MOL   C43645396   0.264   1.398   4.523 -0.1604  0.6169 -0.2544
   81MOL   C43745397   0.305   1.333   4.404 -0.5369 -0.6301  0.5480
   81MOL   C43845398   0.212   1.269   4.321 -0.4365  0.3047 -0.0868
   81MOL   C43945399   0.257   1.190   4.208  0.0550  0.3396  0.1637
   81MOL   H44045400   0.585   1.240   4.245  0.2973  1.1573  1.0724
   81MOL   H44145401   0.641   1.379   4.428  0.1334 -2.1632 -1.5158
   81MOL   H44245402   0.575   1.465   4.644  1.2809  3.2223 -2.4280
   81MOL   H44345403   0.303   1.630   4.960 -1.4505 -1.9720  0.7569
   81MOL   H44445404   0.477   1.669   4.976 -0.6726  1.3292 -1.0305
   81MOL   H44545405   0.435   1.526   5.164 -0.6044  0.8897 -0.4174
   81MOL   H44645406   0.354   1.410   5.049 -1.3431  0.9582 -0.5409
   81MOL   H44745407   0.157   1.404   4.539 -0.2784  0.8711 -1.0842
   81MOL   H44845408   0.110   1.303   4.332  0.1682  1.8803  0.7314
   81MOL   H44945409   0.181   1.141   4.150 -0.2329 -0.6909  1.3933
   81MOL   O45045410   0.700   1.572   5.072 -0.2222 -0.4323 -0.3434
   81MOL   C45145411   0.671   1.461   5.035  0.1172  0.4558 -0.3049
   81MOL   O45245412   0.546   1.418   5.027 -0.2932  0.6763  0.0508
   81MOL   C45345413   0.769   1.345   4.997 -0.2562  0.2395 -0.7322
   81MOL   C45445414   0.729   1.217   4.962 -0.7498  0.6377 -0.8312
   81MOL   C45545415   0.817   1.116   4.918  0.6275  0.3510 -0.2765
   81MOL   C45645416   0.765   0.998   4.862  0.0013 -0.0088  0.0645
   81MOL   C45745417   0.856   0.900   4.817 -0.0608 -0.5892  0.2996
   81MOL   C45845418   0.996   0.924   4.816  0.7127 -0.3213  0.0067
   81MOL   C45945419   1.079   0.823   4.755  0.2597 -0.3220 -0.1113
   81MOL   O46045420   1.211   0.860   4.759 -0.9844 -0.6364  0.0501
   81MOL   C46145421   1.308   0.791   4.681 -0.1774  0.4613 -0.3518
   81MOL   C46245422   1.293   0.833   4.533  0.7898  0.3735  0.5441
   81MOL   O46345423   1.044   0.706   4.719  0.1052  0.5861 -0.1675
   81MOL   C46445424   1.046   1.039   4.877  0.6247 -0.2878  0.2472
   81MOL   C46545425   0.961   1.138   4.925  0.1069  0.1538 -0.9914
   81MOL   C46645426   1.004   1.270   4.964 -0.4608 -0.1908 -0.2339
   81MOL   C46745427   0.910   1.374   4.994 -0.0249  0.1151  0.3935
   81MOL   H46845428   0.627   1.184   4.971 -0.8882  0.5237 -2.6264
   81MOL   H46945429   0.658   0.985   4.856 -0.0838  1.2784 -1.5291
   81MOL   H47045430   0.817   0.806   4.781 -1.4379  0.3456 -0.6939
   81MOL   H47145431   1.292   0.683   4.687 -2.7509  0.7822 -0.9369
   81MOL   H47245432   1.408   0.816   4.717 -0.0597  0.6690 -0.8238
   81MOL   H47345433   1.348   0.760   4.473  0.1656  0.9533 -0.7439
   81MOL   H47445434   1.189   0.817   4.506  1.0468 -2.9671  1.3757
   81MOL   H47545435   1.152   1.052   4.892  1.3490  0.0022 -4.2654
   81MOL   H47645436   1.109   1.295   4.960 -0.6167  0.3309 -1.0383
   81MOL   H47745437   0.940   1.472   5.028 -2.2333 -0.0702  3.0849
   81MOL   O47845438   1.139   1.063   4.533 -0.2011  0.4363  0.3695
   81MOL   C47945439   1.264   1.075   4.534 -0.5349  0.1281  0.0550
   81MOL   O48045440   1.348   0.963   4.517 -0.3522  0.3249  0.3151
   81MOL   C48145441   1.338   1.205   4.570  0.0477  0.6971  0.6968
   81MOL   C48245442   1.253   1.315   4.584  0.3640 -0.5837 -0.3421
   81MOL   C48345443   1.310   1.437   4.625 -0.5791 -0.3663  0.3720
   81MOL   C48445444   1.229   1.555   4.637  0.4778 -0.1150 -0.0845
   81MOL   C48545445   1.289   1.675   4.666  0.0546 -0.9177 -0.1768
   81MOL   C48645446   1.428   1.684   4.703  0.3808 -0.1181 -0.0756
   81MOL   C48745447   1.493   1.816   4.729 -0.1428  0.0188  0.1866
   81MOL   O48845448   1.582   1.809   4.824  0.2651  0.3417  0.1929
   81MOL   C48945449   1.647   1.932   4.855 -0.5216  0.0919  0.2174
   81MOL   C49045450   1.584   2.034   4.950 -0.1915 -0.4270 -0.3277
   81MOL   O49145451   1.451   1.924   4.681 -0.0716  0.0342 -0.3649
   81MOL   C49245452   1.507   1.562   4.712  0.1146 -0.9412  0.7239
   81MOL   C49345453   1.449   1.438   4.672  0.0627 -0.2289  0.8320
   81MOL   C49445454   1.525   1.321   4.661 -0.4743  0.1359 -0.0691
   81MOL   C49545455   1.475   1.205   4.605  0.0030  0.1816 -0.0798
   81MOL   H49645456   1.147   1.308   4.563 -0.1757  0.4303  1.8559
   81MOL   H49745457   1.126   1.544   4.606  0.5298  0.7089 -0.5804
   81MOL   H49845458   1.234   1.767   4.678 -2.8755 -2.4179 -1.5370
   81MOL   H49945459   1.678   1.997   4.772  0.5095 -0.5108  0.1183
   81MOL   H50045460   1.730   1.894   4.914 -1.3655 -1.2535  0.5475
   81MOL   H50145461   1.510   2.094   4.897  1.7461  2.0823 -0.3095
   81MOL   H50245462   1.529   1.986   5.031 -0.4918  0.1689 -0.1723
   81MOL   H50345463   1.614   1.570   4.724 -0.0883  0.5668  1.6931
   81MOL   H50445464   1.621   1.318   4.710 -0.6090  0.1863  0.1950
   81MOL   H50545465   1.517   1.106   4.609 -0.8443 -0.1921 -0.2674
   81MOL   O50645466   1.696   2.035   5.211  0.4119 -0.0643  0.1348
   81MOL   C50745467   1.728   2.119   5.127  0.3334 -0.5528 -0.7853
   81MOL   O50845468   1.683   2.121   4.999  0.4710 -0.1554  0.1343
   81MOL   C50945469   1.831   2.223   5.156 -0.0243  0.6095 -0.3418
   81MOL   C51045470   1.929   2.183   5.257  0.1584 -0.2199  0.9002
   81MOL   C51145471   2.034   2.270   5.295 -0.4068  0.6072 -0.2033
   81MOL   C51245472   2.118   2.231   5.407  0.9265 -0.0464  0.3771
   81MOL   C51345473   2.196   2.334   5.464 -0.3426  0.7955  0.1739
   81MOL   C51445474   2.207   2.465   5.409  0.4604  0.7485 -0.2678
   81MOL   C51545475   2.301   2.569   5.459 -0.1384 -0.3802 -0.3153
   81MOL   O51645476   2.307   2.672   5.376 -0.1218 -0.6800  0.5705
   81MOL   C51745477   2.387   2.784   5.411 -0.6670 -0.3422 -0.6136
   81MOL   C51845478   2.295   2.908   5.418 -0.4245  0.7566 -0.4623
   81MOL   O51945479   2.376   2.556   5.557 -0.5043 -0.4867 -0.3564
   81MOL   C52045480   2.134   2.486   5.289  0.5795 -0.1557  0.4494
   81MOL   C52145481   2.037   2.397   5.243 -0.2257 -0.4339 -0.3951
   81MOL   C52245482   1.950   2.431   5.142  0.2200  0.2874  0.2648
   81MOL   C52345483   1.843   2.350   5.098  0.2220  0.1896  0.5273
   81MOL   H52445484   1.903   2.094   5.313 -1.8206 -1.5314 -1.9682
   81MOL   H52545485   2.110   2.131   5.446 -1.2643 -0.4160 -0.9210
   81MOL   H52645486   2.251   2.303   5.552  0.2145  0.6458 -0.2275
   81MOL   H52745487   2.456   2.785   5.327  0.8151  1.1165  0.5987
   81MOL   H52845488   2.453   2.790   5.497  0.1573 -0.1836 -1.2624
   81MOL   H52945489   2.347   3.003   5.421 -0.4096  0.7346  0.0885
   81MOL   H53045490   2.222   2.907   5.337 -2.3950 -0.5388  1.2537
   81MOL   H53145491   2.142   2.579   5.235  1.3827 -1.8410 -2.4484
   81MOL   H53245492   1.948   2.531   5.102  0.9609  0.9334  1.7930
   81MOL   H53345493   1.773   2.380   5.022  1.0427  0.8253  0.0146
   81MOL   O53445494   2.049   2.770   5.451  0.0289 -0.4081  0.3622
   81MOL   C53545495   2.101   2.832   5.545 -0.0623  0.0187  0.1541
   81MOL   O53645496   2.213   2.905   5.534 -0.2476  0.6744 -0.1215
   81MOL   C53745497   2.032   2.851   5.679  0.2403 -0.1756 -0.3214
   81MOL   C53845498   1.902   2.801   5.693 -0.2733  0.1659  0.0461
   81MOL   C53945499   1.829   2.825   5.810 -0.8183  0.6265 -0.4613
   81MOL   C54045500   1.700   2.773   5.830  0.2882  0.1693  1.0107
   81MOL   C54145501   1.625   2.780   5.952 -1.3609  0.8189  0.4771
   81MOL   C54245502   1.688   2.855   6.057 -0.0126 -0.1298  0.1190
   81MOL   C54345503   1.602   2.893   6.178 -0.1848  0.5113  0.3152
   81MOL   O54445504   1.664   2.959   6.272  0.4288  0.0269 -0.2904
   81MOL   C54545505   1.599   2.990   6.393  0.3501  0.2643  0.1721
   81MOL   C54645506   1.563   3.144   6.392  0.0092  0.1952  0.3799
   81MOL   O54745507   1.478   2.878   6.176  0.0304 -0.1150  0.4960
   81MOL   C54845508   1.820   2.907   6.042  0.3031  0.0934  0.1405
   81MOL   C54945509   1.890   2.894   5.918 -0.0646  0.2927  0.0372
   81MOL   C55045510   2.020   2.944   5.903  0.0004 -0.4683  0.0439
   81MOL   C55145511   2.086   2.933   5.781 -0.2116 -0.2683  0.3120
   81MOL   H55245512   1.855   2.752   5.608  1.2026 -0.7484 -0.2644
   81MOL   H55345513   1.648   2.729   5.746 -0.6930  1.2152  1.0548
   81MOL   H55445514   1.524   2.743   5.961 -0.5845 -1.5322 -0.3420
   81MOL   H55545515   1.661   2.976   6.482 -0.1977 -1.6708  0.2940
   81MOL   H55645516   1.510   2.930   6.413  0.9197 -0.2675  1.1707
   81MOL   H55745517   1.497   3.180   6.314 -0.7214  1.1409  1.4148
   81MOL   H55845518   1.653   3.203   6.377  1.2345 -1.7950 -0.2107
   81MOL   H55945519   1.874   2.961   6.118 -0.2283  3.1619 -1.5823
   81MOL   H56045520   2.064   3.001   5.983 -0.8776  0.6293 -0.2418
   81MOL   H56145521   2.182   2.982   5.775 -1.5110  2.2714 -0.5053
   81MOL   H56245522   1.516   3.169   6.488 -1.4404 -0.0558 -0.2457
   82MOL     O145523   4.412   1.284   1.798  0.4642  0.2867 -0.1404
   82MOL     C245524   4.532   1.307   1.785 -0.4513 -0.3925  0.1115
   82MOL     O345525   4.628   1.223   1.751  0.5709  0.2502  0.1064
   82MOL     C445526   4.594   1.442   1.814  0.2121 -0.4247 -0.2187
   82MOL     C545527   4.511   1.551   1.845 -0.0522  0.0821  0.0292
   82MOL     C645528   4.558   1.682   1.871  0.1492  0.2127  0.2165
   82MOL     C745529   4.476   1.798   1.901  1.2870  0.1029  0.4742
   82MOL     C845530   4.527   1.929   1.915  0.3601  0.1775  0.8079
   82MOL     C945531   4.667   1.946   1.893 -0.3961  0.3682 -0.7431
   82MOL    C1045532   4.736   2.081   1.881 -0.6521 -0.2966 -0.0221
   82MOL    O1145533   4.656   2.187   1.879 -0.1151 -0.4282 -0.8957
   82MOL    C1245534   4.705   2.325   1.886 -0.1668 -0.0820  0.3081
   82MOL    C1345535   4.811   2.367   1.781  0.3095 -0.1799  0.0461
   82MOL    O1445536   4.861   2.094   1.893 -0.0780 -0.0158 -0.1007
   82MOL    C1545537   4.749   1.830   1.875  0.2565 -0.1958 -0.0699
   82MOL    C1645538   4.697   1.700   1.862 -0.0508  0.7296  0.1060
   82MOL    C1745539   4.788   1.594   1.831 -0.1155 -0.2377  0.0039
   82MOL    C1845540   4.736   1.461   1.810  0.1448  0.4540  0.4909
   82MOL    H1945541   4.404   1.534   1.846 -0.1273  0.4966 -1.2118
   82MOL    H2045542   4.369   1.808   1.907  1.0160 -0.8108 -2.0894
   82MOL    H2145543   4.455   2.009   1.922  0.4237  0.2237  0.9324
   82MOL    H2245544   4.611   2.381   1.880 -0.4547 -0.3789  1.8027
   82MOL    H2345545   4.747   2.336   1.985 -0.5657  2.6817  0.2167
   82MOL    H2445546   4.856   2.463   1.806 -0.9208  0.5168 -0.4034
   82MOL    H2545547   4.891   2.292   1.773 -0.0329 -0.4404 -1.0623
   82MOL    H2645548   4.856   1.848   1.868  0.0737  0.2861 -2.0332
   82MOL    H2745549   4.894   1.612   1.838  0.3474 -3.1284  1.3321
   82MOL    H2845550   4.803   1.379   1.788 -0.7767  0.2441 -1.6665
   82MOL    H2945551   4.581   1.142   1.740  0.7756 -0.0620  1.4924
   82MOL    O3045552   4.647   2.559   1.721 -0.1326  0.0598  0.1088
   82MOL    C3145553   4.684   2.489   1.628  0.3930  0.0604  0.2360
   82MOL    O3245554   4.757   2.382   1.649 -0.1883  0.0574 -0.4889
   82MOL    C3345555   4.675   2.535   1.489 -0.7015 -0.2527  0.3584
   82MOL    C3445556   4.760   2.474   1.393  0.3057  0.1257 -0.1508
   82MOL    C3545557   4.766   2.531   1.265  0.3037  0.3436  0.0804
   82MOL    C3645558   4.848   2.477   1.165  0.4690  0.5912  0.5986
   82MOL    C3745559   4.862   2.544   1.039  0.5067 -0.2715  0.4816
   82MOL    C3845560   4.788   2.661   1.009 -0.4849 -0.7594  0.5564
   82MOL    C3945561   4.826   2.739   0.883  0.0516 -0.4691  0.1888
   82MOL    O4045562   4.727   2.830   0.856 -0.6797  0.4298 -0.0421
   82MOL    C4145563   4.735   2.901   0.734 -0.3047  0.4327  0.2386
   82MOL    C4245564   4.603   2.980   0.705 -0.2851  0.1442  0.8235
   82MOL    O4345565   4.937   2.736   0.830  0.6699 -0.2510 -0.5364
   82MOL    C4445566   4.688   2.698   1.093 -0.1683 -1.2319 -0.4517
   82MOL    C4545567   4.680   2.643   1.227  0.0248  0.1253 -0.1519
   82MOL    C4645568   4.588   2.691   1.325 -0.5584 -0.3988  0.5600
   82MOL    C4745569   4.598   2.652   1.454  0.6274 -0.6428  0.2129
   82MOL    H4845570   4.824   2.390   1.419  0.0304  0.3160  1.1961
   82MOL    H4945571   4.912   2.391   1.181  0.5325  0.4789 -0.2354
   82MOL    H5045572   4.929   2.499   0.968 -1.5982  0.5645 -2.1220
   82MOL    H5145573   4.751   2.832   0.651 -0.0772  0.3044  0.3904
   82MOL    H5245574   4.821   2.968   0.735 -1.1345  1.5422 -0.9510
   82MOL    H5345575   4.575   2.976   0.600  0.1410  1.1800  0.6654
   82MOL    H5445576   4.525   2.919   0.750 -2.1903 -0.4635 -3.0575
   82MOL    H5545577   4.610   2.766   1.062  0.0747 -1.4078 -1.4574
   82MOL    H5645578   4.527   2.776   1.299 -0.7615 -1.2488 -1.8856
   82MOL    H5745579   4.545   2.707   1.531  3.3623  2.0976  0.2580
   82MOL    O5845580   4.692   3.191   0.552 -0.6587  0.0082 -0.5399
   82MOL    C5945581   4.659   3.207   0.670 -0.7706  0.2080  0.6209
   82MOL    O6045582   4.601   3.113   0.750  0.4435  0.0786  0.0374
   82MOL    C6145583   4.660   3.340   0.740  0.2586 -0.3454 -0.5620
   82MOL    C6245584   4.588   3.370   0.853  0.2224  0.2802 -0.5207
   82MOL    C6345585   4.591   3.497   0.913 -0.0532  0.3556  0.0553
   82MOL    C6445586   4.494   3.540   1.013  0.4231 -0.5266  0.2827
   82MOL    C6545587   4.479   3.680   1.052  0.1292 -0.1011 -0.4022
   82MOL    C6645588   4.581   3.769   1.012  0.2321 -0.3502 -0.4630
   82MOL    C6745589   4.565   3.910   1.047  0.1828  0.2256 -0.0163
   82MOL    O6845590   4.496   3.929   1.164  0.0478  0.2636 -0.5745
   82MOL    C6945591   4.483   4.059   1.221  0.0113 -0.2533  0.2829
   82MOL    C7045592   4.619   4.100   1.280  0.1745 -0.0759 -0.2391
   82MOL    O7145593   4.606   4.004   0.980  0.2004 -0.1279  0.6109
   82MOL    C7245594   4.675   3.726   0.915  0.8142  0.1116  0.5505
   82MOL    C7345595   4.672   3.597   0.860 -0.9337  0.1882  0.0247
   82MOL    C7445596   4.753   3.564   0.753 -0.0826 -0.1330  0.7086
   82MOL    C7545597   4.747   3.442   0.687  0.2667  0.4701 -0.0402
   82MOL    H7645598   4.518   3.295   0.888  1.2514  0.1592  1.3451
   82MOL    H7745599   4.419   3.468   1.042 -1.2054  1.4639  1.2077
   82MOL    H7845600   4.391   3.705   1.110  0.0412 -2.2296  0.4340
   82MOL    H7945601   4.416   4.050   1.307 -0.1503  2.6127  0.4931
   82MOL    H8045602   4.442   4.127   1.148  2.0240 -1.5035 -2.0870
   82MOL    H8145603   4.648   4.035   1.363 -2.4498 -1.2004 -0.1149
   82MOL    H8245604   4.696   4.093   1.204 -2.3154 -2.2801 -2.6687
   82MOL    H8345605   4.743   3.800   0.873  0.6482 -1.4222 -2.5230
   82MOL    H8445606   4.814   3.633   0.697 -0.2870 -0.8466 -0.4084
   82MOL    H8545607   4.799   3.427   0.593  1.5170  0.4065  0.6575
   82MOL    O8645608   4.495   4.135   1.526  0.0648  0.4488  0.0773
   82MOL    C8745609   4.551   4.227   1.465 -0.1975  0.7858 -0.7553
   82MOL    O8845610   4.597   4.222   1.337 -0.6325  0.2920  0.6786
   82MOL    C8945611   4.561   4.368   1.524 -0.0929 -0.3595 -0.0268
   82MOL    C9045612   4.531   4.394   1.661 -0.7130 -0.4063  0.4465
   82MOL    C9145613   4.552   4.519   1.719 -0.2772  0.2700 -0.6285
   82MOL    C9245614   4.531   4.536   1.855  0.4381 -0.5559 -0.2222
   82MOL    C9345615   4.560   4.660   1.918 -0.8374  0.2851  0.0235
   82MOL    C9445616   4.613   4.772   1.846 -0.3070  0.1391  0.2414
   82MOL    C9545617   4.629   4.906   1.913 -0.3099 -0.1145  0.5450
   82MOL    O9645618   4.680   5.005   1.839 -0.2638 -0.0136 -1.0825
   82MOL    C9745619   4.712   5.127   1.892 -0.2290 -0.1734  0.9694
   82MOL    C9845620   4.748   5.227   1.783 -0.5757 -0.0901 -0.3157
   82MOL    O9945621   4.588   4.928   2.031  0.4139  0.6019  0.4286
   82MOL   C10045622   4.638   4.751   1.704  0.4951  0.1710 -0.1468
   82MOL   C10145623   4.605   4.625   1.645 -0.4371 -0.2282  1.5651
   82MOL   C10245624   4.614   4.604   1.503  0.2722 -0.5730 -0.2992
   82MOL   C10345625   4.594   4.481   1.444 -0.2641 -0.5987 -0.1518
   82MOL   H10445626   4.488   4.318   1.725 -0.6261 -1.2689 -0.5178
   82MOL   H10545627   4.481   4.455   1.906 -0.4138  0.7632  1.1042
   82MOL   H10645628   4.524   4.674   2.020 -1.6916 -2.9490  0.2237
   82MOL   H10745629   4.784   5.119   1.973  0.0329 -0.6738  0.6927
   82MOL   H10845630   4.621   5.163   1.940  0.2930  1.6802  0.6088
   82MOL   H10945631   4.670   5.232   1.707  0.4318  0.7029 -1.3150
   82MOL   H11045632   4.777   5.323   1.826  2.9944 -1.2133 -0.1235
   82MOL   H11145633   4.686   4.825   1.642  0.5593 -0.3344 -0.7064
   82MOL   H11245634   4.643   4.690   1.444  1.2265  1.9667  3.6361
   82MOL   H11345635   4.611   4.465   1.338 -0.1178  0.4806 -0.2937
   82MOL   O11445636   4.744   5.119   1.535 -0.4788 -0.0553 -0.3911
   82MOL   C11545637   4.853   5.118   1.592  0.2338 -0.7007 -0.7379
   82MOL   O11645638   4.866   5.179   1.715 -0.5864 -0.2290  0.3300
   82MOL   C11745639   4.983   5.066   1.533  0.5360 -0.2939 -0.0987
   82MOL   C11845640   4.982   5.014   1.403  0.3706  0.0686 -0.0330
   82MOL   C11945641   5.106   4.971   1.343  0.5689  0.1952 -0.5355
   82MOL   C12045642   5.103   4.918   1.212 -0.1170  0.2856  0.0150
   82MOL   C12145643   5.227   4.885   1.149  0.5927  0.3303  0.3783
   82MOL   C12245644   5.350   4.894   1.223  0.0519  0.6750 -0.5113
   82MOL   C12345645   5.473   4.854   1.153 -0.4346 -0.1617  0.9129
   82MOL   O12445646   5.587   4.893   1.221  0.3788  0.0269  0.1604
   82MOL   C12545647   5.706   4.854   1.169 -0.0810  0.5703 -0.3874
   82MOL   C12645648   5.805   4.864   1.287  0.2105 -0.2114 -0.3270
   82MOL   O12745649   5.472   4.797   1.046 -0.0173  0.0797  0.0116
   82MOL   C12845650   5.348   4.946   1.357 -0.9227 -0.2354 -0.4875
   82MOL   C12945651   5.229   4.981   1.415 -0.2329 -0.3926 -0.1811
   82MOL   C13045652   5.229   5.039   1.545 -0.0443 -0.0360  0.1264
   82MOL   C13145653   5.105   5.065   1.606 -0.3379  0.5174  0.1282
   82MOL   H13245654   4.892   5.010   1.343  0.6942 -0.1137 -0.5105
   82MOL   H13345655   5.008   4.916   1.160 -0.0079 -0.2495 -0.1671
   82MOL   H13445656   5.222   4.851   1.047  0.1898 -1.3676  0.9510
   82MOL   H13545657   5.722   4.914   1.080 -0.6810 -2.0287 -2.3243
   82MOL   H13645658   5.703   4.755   1.123  2.3826  0.0417  0.5323
   82MOL   H13745659   5.906   4.882   1.248  0.8083  3.0803  2.5364
   82MOL   H13845660   5.773   4.953   1.341 -0.6751 -0.7407  0.0325
   82MOL   H13945661   5.442   4.960   1.409  1.4856  1.5177 -5.0010
   82MOL   H14045662   5.315   5.055   1.609 -1.2294 -0.7860  1.9524
   82MOL   H14145663   5.095   5.096   1.709  1.2831 -0.3637  0.5629
   82MOL   O14245664   6.042   4.817   1.438 -0.4788 -0.1554 -0.4651
   82MOL   C14345665   5.946   4.743   1.448  0.6269  0.9890 -0.4133
   82MOL   O14445666   5.819   4.755   1.379  0.3027  0.0952 -0.4253
   82MOL   C14545667   5.946   4.629   1.548 -0.5061 -0.0225  0.3793
   82MOL   C14645668   5.849   4.525   1.543  0.4567  0.3315 -0.5162
   82MOL   C14745669   5.849   4.417   1.643  0.0831 -0.3964 -0.5068
   82MOL   C14845670   5.752   4.313   1.645 -0.2921  0.1120  0.0041
   82MOL   C14945671   5.749   4.231   1.761  0.7716  0.0625 -0.4320
   82MOL   C15045672   5.850   4.224   1.849 -0.3734  0.9344  0.2726
   82MOL   C15145673   5.861   4.121   1.957 -0.6310  0.2789  0.0271
   82MOL   O15245674   5.763   4.028   1.965 -0.0411 -0.6216  0.3198
   82MOL   C15345675   5.770   3.913   2.049  0.5312 -0.2715  0.1590
   82MOL   C15445676   5.682   3.960   2.167 -0.3741 -0.0234  0.0771
   82MOL   O15545677   5.961   4.114   2.029  0.0696 -0.7742 -0.4981
   82MOL   C15645678   5.952   4.321   1.843 -0.0387 -0.2645 -0.2421
   82MOL   C15745679   5.950   4.422   1.743 -0.1522 -0.7786 -0.5778
   82MOL   C15845680   6.045   4.526   1.751  0.6096  0.0912  0.3695
   82MOL   C15945681   6.038   4.629   1.652 -0.3929  0.3603  0.2058
   82MOL   H16045682   5.782   4.511   1.459 -0.2460 -1.7213  0.3482
   82MOL   H16145683   5.668   4.330   1.579  1.0174  1.2230 -1.4224
   82MOL   H16245684   5.664   4.163   1.762  2.5744 -2.2382  0.4718
   82MOL   H16345685   5.865   3.881   2.094  0.6291 -1.1309 -0.6567
   82MOL   H16445686   5.730   3.832   1.989  0.6289  1.4527 -2.2935
   82MOL   H16545687   5.669   3.874   2.232 -3.1746 -0.6726 -1.2406
   82MOL   H16645688   5.721   4.051   2.213 -1.1371 -0.0980  0.8893
   82MOL   H16745689   6.021   4.337   1.925 -1.1368 -1.7755  1.0153
   82MOL   H16845690   6.112   4.529   1.835  0.6131  0.3602  0.3554
   82MOL   H16945691   6.108   4.710   1.666  0.4092 -0.3214  0.2203
   82MOL   O17045692   5.459   3.791   2.124 -0.0656 -0.6506 -0.1148
   82MOL   C17145693   5.464   3.908   2.081  0.3153  0.5260 -0.3615
   82MOL   O17245694   5.562   3.996   2.108  0.2046  0.4452  0.6353
   82MOL   C17345695   5.368   3.959   1.985  0.6170  0.6282  0.1159
   82MOL   C17445696   5.399   4.069   1.900  0.6069  0.5790 -0.3653
   82MOL   C17545697   5.306   4.116   1.801 -0.4302 -0.0366  0.4312
   82MOL   C17645698   5.333   4.231   1.724 -0.2841 -0.8555  0.2337
   82MOL   C17745699   5.233   4.279   1.633  0.1221 -0.1428  0.2702
   82MOL   C17845700   5.107   4.215   1.631  0.1389  0.3173  0.7702
   82MOL   C17945701   4.993   4.268   1.549 -0.0503  0.0529 -0.2761
   82MOL   O18045702   5.027   4.392   1.495 -0.4668 -0.6273  0.3088
   82MOL   C18145703   4.918   4.470   1.449 -0.2252  0.1315 -0.1541
   82MOL   C18245704   4.939   4.611   1.493  0.1743 -0.2624 -1.1432
   82MOL   O18345705   4.886   4.210   1.536  0.5108 -0.5293  0.5510
   82MOL   C18445706   5.082   4.100   1.712 -0.0715 -0.2284  0.5989
   82MOL   C18545707   5.180   4.049   1.799  0.4710  0.1117 -0.2491
   82MOL   C18645708   5.150   3.937   1.879  0.2697  0.2535  0.0107
   82MOL   C18745709   5.243   3.891   1.972 -0.0376  0.7224 -0.2602
   82MOL   H18845710   5.499   4.110   1.906  0.9911 -0.6200  1.9861
   82MOL   H18945711   5.425   4.286   1.741 -1.3086  0.8101  0.4776
   82MOL   H19045712   5.257   4.368   1.578  0.1263  0.3858  1.1129
   82MOL   H19145713   4.822   4.447   1.494 -0.0863 -0.5750 -0.2168
   82MOL   H19245714   4.905   4.465   1.341  1.8114  1.3897 -0.4806
   82MOL   H19345715   5.027   4.663   1.455 -1.4539  3.4976  0.0069
   82MOL   H19445716   4.860   4.673   1.451 -0.5494  1.4830  2.6139
   82MOL   H19545717   4.981   4.064   1.719 -0.6897  1.3629 -0.0553
   82MOL   H19645718   5.057   3.885   1.861  2.2300 -4.5626  2.9591
   82MOL   H19745719   5.224   3.801   2.028 -2.1607  0.9684 -0.5634
   82MOL   O19845720   5.137   4.737   1.655 -0.0855 -0.6379  0.3636
   82MOL   C19945721   5.047   4.665   1.703  0.5669  1.0941  0.3543
   82MOL   O20045722   4.942   4.623   1.632 -0.1039  0.5336  0.0588
   82MOL   C20145723   5.039   4.623   1.849 -1.1871  0.6214  0.7425
   82MOL   C20245724   5.141   4.669   1.928  0.3470  1.0470  0.2493
   82MOL   C20345725   5.138   4.639   2.068  0.0224 -0.2406  0.6373
   82MOL   C20445726   5.244   4.683   2.152 -0.8614 -0.3163  0.5264
   82MOL   C20545727   5.238   4.666   2.289  0.5573 -0.4951  0.0675
   82MOL   C20645728   5.124   4.614   2.350 -0.0945  0.0972  0.4075
   82MOL   C20745729   5.108   4.620   2.503  0.6695  0.0846  0.3551
   82MOL   O20845730   5.159   4.739   2.550  0.2137 -0.3243 -0.6975
   82MOL   C20945731   5.107   4.786   2.678  0.3348 -0.1501  0.0518
   82MOL   C21045732   5.200   4.886   2.744 -0.5353  0.8540 -0.3777
   82MOL   O21145733   5.032   4.544   2.571  0.0343  0.3592 -0.2003
   82MOL   C21245734   5.026   4.548   2.266 -0.7655 -0.0932 -0.1772
   82MOL   C21345735   5.031   4.560   2.124 -0.9662  0.1721 -0.4009
   82MOL   C21445736   4.928   4.505   2.039 -0.3675 -0.0274 -0.1469
   82MOL   C21545737   4.930   4.546   1.900 -0.1295  0.5101  0.3301
   82MOL   H21645738   5.226   4.725   1.891 -0.4819  1.0044 -1.7642
   82MOL   H21745739   5.327   4.732   2.104 -0.8642  2.8234  3.5190
   82MOL   H21845740   5.312   4.700   2.360 -0.3123  0.6088  0.4636
   82MOL   H21945741   5.096   4.700   2.745  2.8287 -1.2974 -0.9475
   82MOL   H22045742   5.007   4.825   2.660  0.8663  0.4120 -1.7851
   82MOL   H22145743   5.286   4.827   2.774  0.8344  0.9064 -4.0114
   82MOL   H22245744   5.233   4.955   2.667  0.1096  0.8940 -0.0685
   82MOL   H22345745   4.944   4.490   2.307 -1.5186  0.2477 -1.1710
   82MOL   H22445746   4.841   4.455   2.079 -2.4484  0.8181 -3.4803
   82MOL   H22545747   4.846   4.540   1.833 -1.2283 -1.6749  1.8595
   82MOL   O22645748   5.005   5.084   2.741  0.1067 -0.6544  0.1332
   82MOL   C22745749   5.056   5.045   2.847 -0.6254 -0.4250  0.2774
   82MOL   O22845750   5.146   4.948   2.860 -0.0813  0.3575  0.1591
   82MOL   C22945751   5.023   5.096   2.987 -0.5527  0.1455 -0.5170
   82MOL   C23045752   4.917   5.191   3.005  0.1373 -0.2066 -0.0333
   82MOL   C23145753   4.885   5.238   3.138  0.5665  0.7656 -0.1711
   82MOL   C23245754   4.788   5.340   3.154  0.2047  0.0540  0.8420
   82MOL   C23345755   4.754   5.381   3.283 -0.7399 -0.0073  0.3330
   82MOL   C23445756   4.821   5.330   3.398 -0.0388  0.6779 -0.0756
   82MOL   C23545757   4.783   5.373   3.530  0.2900  0.3690 -0.2649
   82MOL   O23645758   4.661   5.435   3.532 -0.5944 -0.6184  0.0464
   82MOL   C23745759   4.587   5.463   3.649 -0.2033  0.2083 -0.0617
   82MOL   C23845760   4.442   5.407   3.626 -0.1365 -0.6037 -0.4183
   82MOL   O23945761   4.838   5.337   3.631 -0.0844 -0.6717 -0.2192
   82MOL   C24045762   4.918   5.229   3.377  0.0107 -1.1010 -0.2188
   82MOL   C24145763   4.950   5.183   3.250 -0.0773 -0.8343  0.3636
   82MOL   C24245764   5.053   5.087   3.230 -0.1055  0.1882  0.4104
   82MOL   C24345765   5.088   5.042   3.103 -0.1564 -0.8754  0.1674
   82MOL   H24445766   4.866   5.236   2.921 -0.6958  0.8370  1.0109
   82MOL   H24545767   4.742   5.386   3.067  0.9718 -0.9512 -0.1077
   82MOL   H24645768   4.687   5.465   3.279 -1.2868 -0.4426  0.3082
   82MOL   H24745769   4.580   5.571   3.658 -0.1121  0.3976 -1.9723
   82MOL   H24845770   4.637   5.426   3.738 -0.6226  1.1007  0.5519
   82MOL   H24945771   4.395   5.417   3.723  0.0463 -0.2157 -0.3694
   82MOL   H25045772   4.386   5.470   3.558  3.0743  1.6630 -1.1047
   82MOL   H25145773   4.968   5.187   3.463  1.3219 -0.7586 -0.8026
   82MOL   H25245774   5.109   5.047   3.313  0.7764 -1.2747 -0.8603
   82MOL   H25345775   5.163   4.965   3.100  3.6057  2.5911  0.7972
   82MOL   O25445776   4.401   5.315   3.369  0.0941 -0.4343  0.1288
   82MOL   C25545777   4.427   5.229   3.458  0.3974 -0.7806  0.3402
   82MOL   O25645778   4.437   5.266   3.595  0.7712 -0.4063  0.3046
   82MOL   C25745779   4.490   5.099   3.435  0.3820  0.4743  0.5135
   82MOL   C25845780   4.545   5.077   3.303  0.7537  0.3422  0.2557
   82MOL   C25945781   4.586   4.945   3.268  0.3874 -0.3100  0.0880
   82MOL   C26045782   4.658   4.926   3.146  0.0481 -0.1168  0.0465
   82MOL   C26145783   4.697   4.791   3.120  0.0839 -0.0018  0.4766
   82MOL   C26245784   4.654   4.679   3.201 -0.6274  0.3972  0.1227
   82MOL   C26345785   4.696   4.542   3.164 -0.4668 -0.3136 -0.3247
   82MOL   O26445786   4.672   4.454   3.263 -0.6451 -0.1677 -0.0564
   82MOL   C26545787   4.717   4.326   3.252 -0.2647  0.2530 -0.4001
   82MOL   C26645788   4.631   4.237   3.169 -0.1347  0.3480 -0.6265
   82MOL   O26745789   4.759   4.515   3.066  0.0274  0.3861  0.3579
   82MOL   C26845790   4.597   4.711   3.326  0.6099  0.1817 -0.2045
   82MOL   C26945791   4.561   4.839   3.362  0.4811  0.0383  0.1126
   82MOL   C27045792   4.499   4.864   3.487  0.1598  0.1290 -0.3940
   82MOL   C27145793   4.460   4.994   3.522  0.1477 -0.1839  0.0158
   82MOL   H27245794   4.572   5.163   3.242  1.0551 -0.2691 -0.4928
   82MOL   H27345795   4.687   5.010   3.084 -0.7706 -1.2558 -1.9284
   82MOL   H27445796   4.761   4.784   3.034 -0.6604 -0.7095 -0.0193
   82MOL   H27545797   4.719   4.286   3.353 -1.3630  3.1191  0.8117
   82MOL   H27645798   4.819   4.317   3.216 -0.0383  0.5842  0.1674
   82MOL   H27745799   4.530   4.242   3.210  0.6004  0.0044  1.2765
   82MOL   H27845800   4.635   4.280   3.069  1.3760  2.3467  0.2607
   82MOL   H27945801   4.590   4.640   3.406 -0.1468  0.7560  0.2487
   82MOL   H28045802   4.476   4.779   3.549 -2.1621 -0.5231 -2.0791
   82MOL   H28145803   4.413   5.010   3.618 -1.5876 -0.8811 -0.7115
   82MOL   O28245804   4.725   4.116   2.944  0.2567  0.4065 -0.8313
   82MOL   C28345805   4.729   4.062   3.060 -0.7829  0.3790  0.9893
   82MOL   O28445806   4.672   4.105   3.167 -0.0599 -0.0834 -0.0306
   82MOL   C28545807   4.809   3.942   3.086 -0.0372 -0.4003  0.4936
   82MOL   C28645808   4.801   3.876   3.210 -0.9229  0.4747  0.1733
   82MOL   C28745809   4.870   3.754   3.233  0.1842 -1.0759 -0.0904
   82MOL   C28845810   4.878   3.691   3.361  0.7183 -0.0642 -0.4301
   82MOL   C28945811   4.944   3.568   3.378 -0.0105  0.2330  0.4060
   82MOL   C29045812   4.998   3.499   3.270  0.3542  0.4466  0.4418
   82MOL   C29145813   5.047   3.362   3.285  0.3428 -0.2098  0.2348
   82MOL   O29245814   5.075   3.298   3.169  0.7474 -0.7027  0.5554
   82MOL   C29345815   5.128   3.169   3.154  0.0363  0.2383 -0.2537
   82MOL   C29445816   5.014   3.072   3.166  0.0602  0.7715  0.2878
   82MOL   O29545817   5.059   3.309   3.400 -0.3046 -0.5521 -0.2552
   82MOL   C29645818   4.994   3.564   3.141  0.2170 -0.3965 -0.9357
   82MOL   C29745819   4.940   3.694   3.126  0.4172  0.0470 -0.0066
   82MOL   C29845820   4.945   3.761   3.004 -0.4496  0.2715  0.0051
   82MOL   C29945821   4.883   3.884   2.981 -0.1791 -0.0917  0.3671
   82MOL   H30045822   4.746   3.922   3.291 -0.3682  1.8280 -0.1999
   82MOL   H30145823   4.824   3.743   3.439 -2.0349 -1.2298 -1.4951
   82MOL   H30245824   4.953   3.514   3.472 -1.6841  0.5672  0.7626
   82MOL   H30345825   5.203   3.157   3.232  0.9202  1.0205 -0.9615
   82MOL   H30445826   5.189   3.160   3.064  0.4606 -1.0649  0.1651
   82MOL   H30545827   5.060   2.973   3.163  0.8829  1.1550 -0.1442
   82MOL   H30645828   4.957   3.090   3.257 -0.7953 -0.6291  0.0368
   82MOL   H30745829   5.034   3.518   3.051 -0.2518  0.7696 -1.7580
   82MOL   H30845830   4.995   3.714   2.921  1.8342 -0.3234  1.6743
   82MOL   H30945831   4.889   3.942   2.891 -0.7454  0.8965  0.9567
   82MOL   O31045832   4.844   2.887   3.067  0.6030  0.3810  1.1230
   82MOL   C31145833   4.844   2.998   3.018  0.1151 -0.1555 -0.2284
   82MOL   O31245834   4.926   3.095   3.059  0.0267 -0.2467  0.1409
   82MOL   C31345835   4.769   3.035   2.899  0.5234  0.0855 -0.2800
   82MOL   C31445836   4.681   2.936   2.847 -0.4667  0.1155  0.3158
   82MOL   C31545837   4.603   2.963   2.725  0.0973  0.5400 -0.4814
   82MOL   C31645838   4.508   2.862   2.684 -0.1851  0.2541 -0.8380
   82MOL   C31745839   4.429   2.890   2.569 -0.5217 -0.1485  0.2998
   82MOL   C31845840   4.438   3.020   2.507 -0.4211 -0.1948 -1.1437
   82MOL   C31945841   4.344   3.052   2.400  0.6532  0.1360  0.8490
   82MOL   O32045842   4.256   2.949   2.366 -0.1350 -0.3893  0.0492
   82MOL   C32145843   4.176   2.962   2.255  0.4183 -0.6935  0.7860
   82MOL   C32245844   4.224   2.868   2.139  0.2866  0.2772  0.0327
   82MOL   O32345845   4.333   3.167   2.354  0.4402  0.4966  0.1401
   82MOL   C32445846   4.521   3.121   2.557  0.1925  0.4123  0.5303
   82MOL   C32545847   4.607   3.093   2.664 -0.2158  0.2338  0.1338
   82MOL   C32645848   4.694   3.188   2.720  0.1567 -0.5737 -0.3667
   82MOL   C32745849   4.776   3.159   2.835 -0.1403  0.4643  1.2708
   82MOL   H32845850   4.674   2.836   2.888 -0.8097  0.1725  0.3939
   82MOL   H32945851   4.505   2.770   2.740  1.3278  0.9290  0.4132
   82MOL   H33045852   4.375   2.813   2.515  0.2550  0.4074 -1.3003
   82MOL   H33145853   4.169   3.068   2.229 -0.1566 -0.8461  0.3148
   82MOL   H33245854   4.075   2.943   2.291 -0.4174 -0.1200 -1.2002
   82MOL   H33345855   4.332   2.855   2.150 -0.1759 -3.4854  0.7517
   82MOL   H33445856   4.175   2.771   2.135  0.4869  0.2248 -1.5071
   82MOL   H33545857   4.522   3.215   2.503  0.0721  0.3211  0.3664
   82MOL   H33645858   4.689   3.293   2.697 -1.8771 -0.3711  0.8754
   82MOL   H33745859   4.841   3.238   2.870  1.7800 -0.3318 -0.3617
   82MOL   O33845860   3.981   2.919   2.005  0.6144  0.7839 -0.3578
   82MOL   C33945861   4.092   2.967   1.962 -0.5301  0.5796 -0.0950
   82MOL   O34045862   4.208   2.947   2.021 -0.2483 -0.3686  0.0905
   82MOL   C34145863   4.103   3.052   1.846  0.0714 -0.3832  0.2729
   82MOL   C34245864   4.225   3.109   1.798  0.2196 -0.0442 -0.0147
   82MOL   C34345865   4.230   3.198   1.692 -0.1175 -0.4736  0.3290
   82MOL   C34445866   4.347   3.244   1.638 -0.2212  0.3220 -0.4661
   82MOL   C34545867   4.354   3.324   1.525  0.8642  0.0762 -0.3893
   82MOL   C34645868   4.235   3.374   1.463 -0.8141 -0.3128  0.1118
   82MOL   C34745869   4.248   3.459   1.347  0.3272 -0.9831 -0.7540
   82MOL   O34845870   4.124   3.518   1.317 -0.0377 -0.2476  0.3562
   82MOL   C34945871   4.115   3.583   1.186  0.4349 -0.6272  0.1341
   82MOL   C35045872   3.993   3.668   1.197  0.5434 -0.4260  0.0964
   82MOL   O35145873   4.352   3.474   1.285  0.1846 -1.1497  0.2450
   82MOL   C35245874   4.113   3.331   1.517  0.0277  0.2718 -0.0672
   82MOL   C35345875   4.109   3.238   1.629  0.1292 -0.3368  0.1996
   82MOL   C35445876   3.984   3.194   1.678 -0.0229 -0.0744  0.2591
   82MOL   C35545877   3.985   3.088   1.770  0.0904 -0.0619 -0.6411
   82MOL   H35645878   4.319   3.085   1.844  0.9742  2.0111 -0.4778
   82MOL   H35745879   4.441   3.209   1.680 -1.3537 -1.9939  0.2061
   82MOL   H35845880   4.451   3.352   1.486  2.0642  1.4464  3.4195
   82MOL   H35945881   4.114   3.515   1.101 -0.1872  0.4759 -0.7576
   82MOL   H36045882   4.195   3.655   1.168 -0.2250 -0.2978 -1.5674
   82MOL   H36145883   3.937   3.680   1.104  0.1980 -1.2386  0.1949
   82MOL   H36245884   3.918   3.624   1.263 -0.8924  2.4145  0.4345
   82MOL   H36345885   4.024   3.368   1.468  0.5524 -1.2633 -2.2839
   82MOL   H36445886   3.889   3.231   1.644 -0.4019 -0.2621  1.0949
   82MOL   H36545887   3.889   3.051   1.803  0.2720  0.5878  0.6358
   82MOL   O36645888   4.014   3.785   1.445  0.4565 -0.8637 -0.1067
   82MOL   C36745889   4.046   3.857   1.350  0.5306  0.2923  0.0438
   82MOL   O36845890   4.037   3.804   1.220 -0.5627 -0.2457 -0.2110
   82MOL   C36945891   4.087   3.996   1.353  0.0629 -1.1406  0.2486
   82MOL   C37045892   4.113   4.063   1.478 -0.5005  0.2908  0.5755
   82MOL   C37145893   4.140   4.200   1.474 -0.2564  0.4280 -0.7061
   82MOL   C37245894   4.175   4.267   1.592 -0.0593 -0.0746 -0.5843
   82MOL   C37345895   4.201   4.408   1.591  1.2384  0.0365 -0.3139
   82MOL   C37445896   4.205   4.481   1.467 -0.3076 -0.2215 -0.4644
   82MOL   C37545897   4.235   4.622   1.459  0.1400 -0.4960 -0.1932
   82MOL   O37645898   4.252   4.679   1.578  0.0905 -0.2491 -1.4821
   82MOL   C37745899   4.247   4.819   1.579  0.1777  0.5907  0.2531
   82MOL   C37845900   4.289   4.857   1.717  0.1421 -0.0329  0.1787
   82MOL   O37945901   4.255   4.685   1.359  0.2836 -0.1522  0.0329
   82MOL   C38045902   4.180   4.409   1.347  0.1080 -0.0166  0.1137
   82MOL   C38145903   4.147   4.272   1.350  0.1623  0.1772  0.1129
   82MOL   C38245904   4.125   4.208   1.224 -0.5995  0.1916 -0.0290
   82MOL   C38345905   4.087   4.077   1.235  0.0609  0.6248  0.5995
   82MOL   H38445906   4.127   4.018   1.575  0.2595 -0.9166 -0.0834
   82MOL   H38545907   4.184   4.214   1.685 -0.1664 -0.2249 -0.6612
   82MOL   H38645908   4.223   4.459   1.683 -1.5306 -1.4007  1.2054
   82MOL   H38745909   4.143   4.848   1.569 -0.1718 -0.0183  1.8867
   82MOL   H38845910   4.310   4.866   1.503  0.3652 -1.3735 -0.8517
   82MOL   H38945911   4.233   4.801   1.792 -1.0955  1.1596  0.1699
   82MOL   H39045912   4.395   4.835   1.735  0.2551  2.1052  2.4407
   82MOL   H39145913   4.177   4.464   1.254 -2.0606 -2.7659 -1.5091
   82MOL   H39245914   4.113   4.255   1.128 -0.2343 -0.1722 -0.2561
   82MOL   H39345915   4.057   4.029   1.142  1.0919 -1.6592  1.3962
   82MOL   O39445916   4.450   5.084   1.657 -0.1669 -0.0347  0.5201
   82MOL   C39545917   4.354   5.094   1.726  0.9308  0.6070  0.0638
   82MOL   O39645918   4.270   4.988   1.761 -0.4473  0.3478  0.0094
   82MOL   C39745919   4.300   5.223   1.780 -0.5083  0.5790  0.5449
   82MOL   C39845920   4.186   5.230   1.865  0.6660 -0.1098  0.9848
   82MOL   C39945921   4.136   5.354   1.908  0.0087 -0.3057  0.1161
   82MOL   C40045922   4.023   5.355   1.993  0.2798 -0.0095 -0.9072
   82MOL   C40145923   3.966   5.475   2.038  0.9775 -0.0049 -0.1606
   82MOL   C40245924   4.026   5.602   1.992  0.4806  0.7920  0.2389
   82MOL   C40345925   3.966   5.724   2.039 -0.1701  0.5745  0.1844
   82MOL   O40445926   3.878   5.702   2.137 -0.3913  0.6133 -0.0393
   82MOL   C40545927   3.802   5.816   2.174  1.1970  0.0836  0.1241
   82MOL   C40645928   3.676   5.829   2.083 -0.5399  0.2630 -0.0556
   82MOL   O40745929   3.984   5.839   1.996 -0.2416 -0.3088 -0.0705
   82MOL   C40845930   4.142   5.600   1.912 -1.0740 -0.1213  0.0729
   82MOL   C40945931   4.190   5.475   1.872  0.5484  0.4564 -0.4981
   82MOL   C41045932   4.306   5.468   1.792  0.3889  0.3662  0.0464
   82MOL   C41145933   4.361   5.345   1.747  0.0393 -0.1300 -0.6264
   82MOL   H41245934   4.139   5.136   1.893 -2.1778  0.8734 -0.2886
   82MOL   H41345935   3.972   5.263   2.018 -0.1640  0.7770  1.1635
   82MOL   H41445936   3.869   5.464   2.085  0.1169 -0.6328 -1.9947
   82MOL   H41545937   3.859   5.909   2.182 -0.0431  0.9965 -1.3963
   82MOL   H41645938   3.769   5.812   2.278 -1.8716  2.4333 -0.6770
   82MOL   H41745939   3.618   5.921   2.089 -0.6715  0.1240  0.8565
   82MOL   H41845940   3.716   5.828   1.981  1.4849 -2.5985  0.6815
   82MOL   H41945941   4.192   5.689   1.875  1.2824 -1.5685 -0.3716
   82MOL   H42045942   4.350   5.561   1.758 -0.1150  0.2129 -1.0662
   82MOL   H42145943   4.445   5.345   1.679  1.6739  0.8661  1.3477
   82MOL   O42245944   3.656   5.599   1.946 -0.0569 -0.1090 -0.2120
   82MOL   C42345945   3.598   5.609   2.049  0.3942  0.5507 -0.6069
   82MOL   O42445946   3.588   5.723   2.119  0.2835 -0.1689 -0.1126
   82MOL   C42545947   3.539   5.489   2.117  0.6214  0.6044 -0.5711
   82MOL   C42645948   3.459   5.512   2.235 -0.0940  0.3114  0.2074
   82MOL   C42745949   3.411   5.399   2.303  0.0071 -1.7399 -0.5445
   82MOL   C42845950   3.329   5.417   2.420 -0.7257  0.6636  0.5224
   82MOL   C42945951   3.265   5.305   2.475 -0.5523  0.5490  0.7834
   82MOL   C43045952   3.286   5.177   2.420 -0.6849  0.1223  0.5807
   82MOL   C43145953   3.225   5.057   2.490  0.6300 -0.4102 -0.1247
   82MOL   O43245954   3.274   4.938   2.454 -0.1427  0.2079  0.3400
   82MOL   C43345955   3.211   4.819   2.493  0.7989  0.0387  0.5257
   82MOL   C43445956   3.292   4.709   2.426  0.2906  0.0102 -0.4002
   82MOL   O43545957   3.137   5.066   2.574 -0.1593 -0.5234  0.6070
   82MOL   C43645958   3.364   5.161   2.305  0.3060  0.2521  0.5181
   82MOL   C43745959   3.430   5.270   2.248  0.4248 -0.3985  0.3709
   82MOL   C43845960   3.497   5.248   2.127 -0.4805 -0.4570  0.4686
   82MOL   C43945961   3.554   5.363   2.067  0.1423  0.3024  0.6838
   82MOL   H44045962   3.434   5.613   2.264  0.5023  0.1009  1.4811
   82MOL   H44145963   3.303   5.517   2.452 -1.0670  1.2499 -1.5029
   82MOL   H44245964   3.205   5.319   2.564 -1.2108 -0.5074  0.5078
   82MOL   H44345965   3.105   4.812   2.471  0.7720 -2.2602  1.3643
   82MOL   H44445966   3.218   4.819   2.601 -1.7136  0.2127  0.7022
   82MOL   H44545967   3.400   4.721   2.417  0.2197  0.7963 -0.1713
   82MOL   H44645968   3.277   4.637   2.507 -0.7311  0.0042 -0.5919
   82MOL   H44745969   3.374   5.063   2.259  1.0917  1.0912 -1.1425
   82MOL   H44845970   3.499   5.147   2.090 -1.2993  0.0335 -0.9124
   82MOL   H44945971   3.612   5.357   1.976  2.5737 -2.4197  2.3128
   82MOL   O45045972   3.356   4.801   2.179 -0.0260  0.0977 -0.5838
   82MOL   C45145973   3.270   4.717   2.188 -1.2368  0.1169 -0.1054
   82MOL   O45245974   3.233   4.660   2.306 -0.0885 -1.0372  0.8184
   82MOL   C45345975   3.201   4.662   2.062  0.3591  0.8849  0.7079
   82MOL   C45445976   3.239   4.722   1.940  0.6246 -0.8130  0.3173
   82MOL   C45545977   3.196   4.667   1.818  0.2601 -0.3797 -0.3570
   82MOL   C45645978   3.251   4.720   1.697  0.0997 -0.0661 -0.0752
   82MOL   C45745979   3.205   4.666   1.573 -0.6010 -0.3738  0.0457
   82MOL   C45845980   3.112   4.557   1.571 -0.5886  0.2976 -0.1265
   82MOL   C45945981   3.055   4.515   1.443  0.0210 -0.0512 -0.5263
   82MOL   O46045982   2.948   4.427   1.450  0.0389 -0.4152  0.5850
   82MOL   C46145983   2.883   4.393   1.322 -0.1718 -0.4145 -0.2223
   82MOL   C46245984   2.754   4.311   1.340 -0.3285  0.2746 -0.2610
   82MOL   O46345985   3.093   4.564   1.335  0.3630 -0.3063 -0.2557
   82MOL   C46445986   3.059   4.513   1.693 -0.0152 -0.0499 -0.4708
   82MOL   C46545987   3.098   4.563   1.815 -0.2178 -0.3495  0.2553
   82MOL   C46645988   3.053   4.507   1.935  0.3542 -0.5932 -0.2571
   82MOL   C46745989   3.109   4.558   2.054  0.0980  0.1495  0.0710
   82MOL   H46845990   3.314   4.800   1.939  1.1238 -1.2674  1.3202
   82MOL   H46945991   3.326   4.798   1.700  1.8507 -1.6589 -1.4916
   82MOL   H47045992   3.242   4.701   1.478 -0.7127 -2.4243 -0.7753
   82MOL   H47145993   2.963   4.354   1.258  2.0289  1.6746  1.1551
   82MOL   H47245994   2.852   4.483   1.270 -0.9961  0.2267  1.3743
   82MOL   H47345995   2.712   4.261   1.253  1.8066 -1.3643 -0.4053
   82MOL   H47445996   2.768   4.228   1.410 -1.7015  0.3815  0.1429
   82MOL   H47545997   2.977   4.443   1.687  1.1060 -1.3153 -1.3592
   82MOL   H47645998   2.985   4.423   1.941 -0.8736  0.6009  4.2627
   82MOL   H47745999   3.063   4.512   2.141 -0.7237 -0.4027 -0.6469
   82MOL   O47846000   2.510   4.236   1.452 -0.1379 -1.5595  0.2732
   82MOL   C47946001   2.539   4.356   1.436 -0.1919 -0.7210  0.1629
   82MOL   O48046002   2.648   4.402   1.375 -0.1910  0.1355  0.9290
   82MOL   C48146003   2.451   4.462   1.486 -0.8339 -0.7454  0.0756
   82MOL   C48246004   2.314   4.436   1.483 -0.5782 -0.1014 -0.6073
   82MOL   C48346005   2.229   4.519   1.551  0.0128 -0.7381 -0.6618
   82MOL   C48446006   2.093   4.502   1.536  0.3787  0.1723  0.6127
   82MOL   C48546007   1.996   4.586   1.588  0.0936  0.6310 -0.3398
   82MOL   C48646008   2.036   4.689   1.676 -0.4826  0.4725  0.1109
   82MOL   C48746009   1.940   4.782   1.741 -0.3401 -0.1639  0.5284
   82MOL   O48846010   1.999   4.896   1.793  0.2280 -0.2090  0.1220
   82MOL   C48946011   1.916   5.003   1.823 -0.0057  0.0892  0.4328
   82MOL   C49046012   1.936   5.120   1.728  0.1324  0.0946 -0.6301
   82MOL   O49146013   1.819   4.763   1.734  0.1837 -0.2272  0.1704
   82MOL   C49246014   2.180   4.707   1.690 -0.0085 -0.4257 -0.4463
   82MOL   C49346015   2.276   4.638   1.616 -0.5032 -0.1632 -0.0280
   82MOL   C49446016   2.411   4.666   1.609  0.4225 -0.2352  0.2338
   82MOL   C49546017   2.504   4.580   1.548  0.4987 -0.4299  0.0755
   82MOL   H49646018   2.275   4.352   1.427 -2.1103 -0.5678  1.0891
   82MOL   H49746019   2.057   4.422   1.473  0.9091  0.4490 -0.0518
   82MOL   H49846020   1.892   4.562   1.570  0.3871 -1.6801  0.8219
   82MOL   H49946021   1.941   5.033   1.924 -0.6430  1.9321  0.0548
   82MOL   H50046022   1.815   4.967   1.841 -0.3936  0.1782 -1.3916
   82MOL   H50146023   2.035   5.113   1.683  0.0187 -2.7880 -0.5160
   82MOL   H50246024   1.858   5.116   1.651 -0.1865 -1.2398 -0.2455
   82MOL   H50346025   2.213   4.798   1.737  1.2806  0.2876 -2.6449
   82MOL   H50446026   2.443   4.759   1.653 -1.2133  1.1556 -1.4180
   82MOL   H50546027   2.611   4.594   1.550  0.6594 -1.6906  0.9950
   82MOL   O50646028   1.704   5.278   1.762 -0.9289  0.5897 -0.0070
   82MOL   C50746029   1.813   5.313   1.797  0.3334  0.5084 -0.1460
   82MOL   O50846030   1.927   5.244   1.793 -0.2958  0.1024  0.3187
   82MOL   C50946031   1.827   5.444   1.861  0.3728  0.1889 -0.2558
   82MOL   C51046032   1.941   5.486   1.934  0.7956 -0.5745  0.1140
   82MOL   C51146033   1.956   5.611   1.998 -0.0957 -0.2248  0.0081
   82MOL   C51246034   2.073   5.652   2.064 -0.0248 -0.1749  0.2299
   82MOL   C51346035   2.084   5.777   2.132  0.9686 -0.0133  0.2911
   82MOL   C51446036   1.974   5.857   2.133 -0.3374 -0.0639  0.6076
   82MOL   C51546037   1.979   5.992   2.192 -0.4917 -0.4375 -0.3847
   82MOL   O51646038   2.106   6.018   2.232 -0.1301  0.3167 -0.3234
   82MOL   C51746039   2.145   6.138   2.301 -0.8235  0.1664  0.0626
   82MOL   C51846040   2.110   6.147   2.454 -0.4668  0.2188  0.1309
   82MOL   O51946041   1.885   6.073   2.188  0.2802 -0.0612 -0.8094
   82MOL   C52046042   1.854   5.817   2.069 -0.2962 -0.1789  0.7561
   82MOL   C52146043   1.844   5.692   2.003 -0.3855  0.0055 -0.4630
   82MOL   C52246044   1.724   5.652   1.939 -0.2704  0.0170 -0.3683
   82MOL   C52346045   1.718   5.531   1.860  0.4375 -0.4289 -0.1327
   82MOL   H52446046   2.014   5.407   1.941 -0.0336 -1.5701 -2.1599
   82MOL   H52546047   2.161   5.588   2.068 -2.5774 -3.8888 -0.2458
   82MOL   H52646048   2.178   5.807   2.175  1.3773  0.4050 -0.8629
   82MOL   H52746049   2.111   6.218   2.236 -0.2543 -0.3168 -0.8331
   82MOL   H52846050   2.252   6.130   2.287 -0.9412 -0.5905 -0.4106
   82MOL   H52946051   2.101   6.048   2.499  1.6984 -0.8484 -1.7562
   82MOL   H53046052   2.190   6.207   2.497  0.5639 -1.4719  0.5955
   82MOL   H53146053   1.771   5.886   2.062 -1.9596 -2.0434  1.6511
   82MOL   H53246054   1.635   5.714   1.936 -1.4719 -1.6436  0.2335
   82MOL   H53346055   1.629   5.508   1.803 -1.2868  0.0136  2.3018
   82MOL   O53446056   1.979   6.134   2.680  0.4019 -1.1092  0.1784
   82MOL   C53546057   1.946   6.216   2.593 -0.0295 -0.5482  0.6978
   82MOL   O53646058   1.994   6.222   2.462  0.7394 -0.1551  0.2052
   82MOL   C53746059   1.844   6.323   2.621 -0.9745  0.1979  0.4507
   82MOL   C53846060   1.780   6.383   2.507 -0.8668  0.3425  0.2525
   82MOL   C53946061   1.693   6.490   2.525  0.0761  0.4528  0.3286
   82MOL   C54046062   1.634   6.542   2.404  0.5375 -0.6404  0.2709
   82MOL   C54146063   1.553   6.655   2.421 -0.1482 -0.3557 -0.1030
   82MOL   C54246064   1.525   6.711   2.545 -0.3315 -0.1823  0.3642
   82MOL   C54346065   1.441   6.827   2.560  0.2491 -0.0053 -0.0550
   82MOL   O54446066   1.424   6.904   2.450 -0.0419 -0.5304 -0.0053
   82MOL   C54546067   1.335   7.022   2.445 -0.4556  0.4027 -0.1530
   82MOL   C54646068   1.406   7.153   2.490  0.0380 -0.0594 -0.0540
   82MOL   O54746069   1.384   6.853   2.666  0.1975 -0.3684  0.1642
   82MOL   C54846070   1.579   6.649   2.664 -0.8108 -0.2269 -0.2492
   82MOL   C54946071   1.666   6.543   2.653 -0.2635  0.4768  0.3371
   82MOL   C55046072   1.737   6.485   2.761 -0.2818  0.4012  0.0260
   82MOL   C55146073   1.819   6.375   2.749  0.0858  0.4865 -0.1767
   82MOL   H55246074   1.805   6.351   2.407  2.0106  2.0908  0.3442
   82MOL   H55346075   1.655   6.504   2.305  0.8806  1.4726 -0.4856
   82MOL   H55446076   1.491   6.694   2.341  0.4636 -0.5411 -0.6768
   82MOL   H55546077   1.246   7.003   2.505 -0.1532 -1.4540 -0.2469
   82MOL   H55646078   1.302   7.030   2.341  1.0999  0.2562 -0.6710
   82MOL   H55746079   1.492   7.183   2.430  0.4002  1.5153  1.2344
   82MOL   H55846080   1.446   7.150   2.591 -1.0095 -0.1018  0.3709
   82MOL   H55946081   1.549   6.679   2.763  0.2159 -1.3283  0.4137
   82MOL   H56046082   1.724   6.530   2.859  2.2597 -0.5191  0.8214
   82MOL   H56146083   1.880   6.342   2.832  1.4995  1.3036 -0.8711
   82MOL   H56246084   1.330   7.231   2.495  0.3694  0.2404  0.2969
   83MOL     O146085   5.958   3.825   2.566 -0.1694 -0.1629 -0.4576
   83MOL     C246086   5.925   3.937   2.536 -0.0111  0.3978  0.1927
   83MOL     O346087   5.806   3.967   2.482 -0.4829 -0.4785 -0.3245
   83MOL     C446088   6.031   4.046   2.520 -0.3531 -0.6796  0.0824
   83MOL     C546089   6.163   4.023   2.563  0.2881  0.3269  0.3107
   83MOL     C646090   6.262   4.110   2.537  0.3071  0.4122 -0.2699
   83MOL     C746091   6.394   4.094   2.592 -0.1060  0.3985 -0.0911
   83MOL     C846092   6.488   4.199   2.562  0.0590 -0.4975  0.2257
   83MOL     C946093   6.468   4.310   2.482  0.2793  0.4375 -0.0103
   83MOL    C1046094   6.575   4.409   2.476  0.3692 -0.0031  0.1710
   83MOL    O1146095   6.534   4.530   2.435 -0.6431  0.2879 -0.7993
   83MOL    C1246096   6.620   4.639   2.457  0.5261  0.4887 -0.0970
   83MOL    C1346097   6.712   4.654   2.340 -0.6077  0.3997 -0.7276
   83MOL    O1446098   6.689   4.389   2.519  0.0888  0.0088  0.2970
   83MOL    C1546099   6.337   4.316   2.422 -0.1812  0.8748  0.3012
   83MOL    C1646100   6.235   4.226   2.461  0.0078  0.5521 -0.2846
   83MOL    C1746101   6.105   4.251   2.420 -0.0324 -0.7406 -0.6166
   83MOL    C1846102   6.001   4.161   2.445  0.2856 -0.4764 -0.4776
   83MOL    H1946103   6.181   3.936   2.623 -1.4473 -2.1673 -2.6065
   83MOL    H2046104   6.424   4.006   2.647 -1.8977  1.1536  2.1906
   83MOL    H2146105   6.587   4.182   2.602  0.4952  1.8468  0.1902
   83MOL    H2246106   6.546   4.719   2.469 -2.0442 -0.9293 -5.0533
   83MOL    H2346107   6.662   4.624   2.556 -2.1296 -0.7231  0.9082
   83MOL    H2446108   6.769   4.562   2.327 -1.6989 -0.1795 -1.4595
   83MOL    H2546109   6.653   4.669   2.249 -0.8318  0.0121 -0.6459
   83MOL    H2646110   6.301   4.393   2.356 -0.1043 -1.2177 -2.2520
   83MOL    H2746111   6.084   4.334   2.354  1.2536 -0.0529 -0.1808
   83MOL    H2846112   5.905   4.197   2.411 -0.1869  0.0201  1.3261
   83MOL    H2946113   5.787   4.060   2.481  0.4233 -0.2976 -1.0106
   83MOL    O3046114   6.651   4.922   2.424  0.9272 -0.1878 -0.0364
   83MOL    C3146115   6.758   4.891   2.378 -0.4920  0.2057  0.1045
   83MOL    O3246116   6.801   4.766   2.342  0.0253  0.1532 -0.3183
   83MOL    C3346117   6.871   4.988   2.362  0.9762 -0.0687  0.7867
   83MOL    C3446118   7.000   4.953   2.312  0.8415 -0.7675  1.3017
   83MOL    C3546119   7.106   5.047   2.314  0.7554 -0.1512 -0.1986
   83MOL    C3646120   7.233   5.016   2.268  0.2208  0.5239 -0.0270
   83MOL    C3746121   7.339   5.114   2.265 -0.4232  0.1512  0.4176
   83MOL    C3846122   7.319   5.247   2.317  0.6435  0.0599  0.7406
   83MOL    C3946123   7.437   5.339   2.335  0.0498  0.3134  0.3673
   83MOL    O4046124   7.546   5.299   2.258  0.3954 -0.8380  0.1643
   83MOL    C4146125   7.672   5.366   2.286  0.1884  1.1350 -0.0587
   83MOL    C4246126   7.690   5.495   2.215  0.0712 -0.2383 -0.2393
   83MOL    O4346127   7.433   5.446   2.390 -0.0279  0.4864 -0.4246
   83MOL    C4446128   7.187   5.277   2.357  0.0445  0.2696 -0.5012
   83MOL    C4546129   7.085   5.180   2.356 -0.0680  0.2660  0.9916
   83MOL    C4646130   6.957   5.220   2.399  0.3028  0.0451 -0.2232
   83MOL    C4746131   6.847   5.123   2.392 -0.2288 -0.0997 -0.6092
   83MOL    H4846132   7.012   4.854   2.272 -2.2307 -1.5395  2.1461
   83MOL    H4946133   7.244   4.915   2.233  0.0358 -0.3138  2.2632
   83MOL    H5046134   7.437   5.086   2.230  0.2301  0.6888  1.7911
   83MOL    H5146135   7.740   5.294   2.240  0.2714  1.1161  0.0902
   83MOL    H5246136   7.695   5.376   2.393 -1.4073  1.8023  0.2309
   83MOL    H5346137   7.654   5.493   2.112  0.7916  2.0053 -0.5540
   83MOL    H5446138   7.628   5.572   2.261  2.3998  0.4295  1.8518
   83MOL    H5546139   7.168   5.379   2.387 -0.9346 -0.2736  0.7598
   83MOL    H5646140   6.942   5.324   2.426 -2.2719 -0.4603  0.4249
   83MOL    H5746141   6.749   5.146   2.432  0.8266  1.8962  0.9402
   83MOL    O5846142   7.848   5.522   1.984  0.4520 -0.0713  0.1293
   83MOL    C5946143   7.898   5.550   2.096  0.2155  0.0178  0.7855
   83MOL    O6046144   7.829   5.536   2.212 -0.2833  0.2301 -0.3102
   83MOL    C6146145   8.038   5.604   2.111 -0.0810  0.4223  0.0086
   83MOL    C6246146   8.124   5.619   2.001  0.5364 -0.6230 -0.5694
   83MOL    C6346147   0.004   5.678   2.018  0.2535  0.1630  0.1962
   83MOL    C6446148   0.087   5.696   1.906  0.5502 -0.5994 -0.0592
   83MOL    C6546149   0.215   5.753   1.926 -0.4990  0.0677  0.2124
   83MOL    C6646150   0.263   5.786   2.054 -0.4683 -0.5743  0.1553
   83MOL    C6746151   0.405   5.827   2.065 -0.2481 -0.3459  0.3169
   83MOL    O6846152   0.434   5.873   2.182  0.4776 -0.1957  0.2285
   83MOL    C6946153   0.558   5.946   2.196  0.0341  0.4787 -0.4717
   83MOL    C7046154   0.653   5.875   2.298  0.9318 -0.0715 -0.0039
   83MOL    O7146155   0.478   5.824   1.963  0.1605  0.1974 -0.3282
   83MOL    C7246156   0.173   5.765   2.164  0.8016  0.2436 -0.4219
   83MOL    C7346157   0.045   5.715   2.150  0.3657 -0.0535  0.7351
   83MOL    C7446158   8.217   5.689   2.263  0.0334  0.4002 -0.5734
   83MOL    C7546159   8.088   5.637   2.237  0.4983 -0.3494 -0.7127
   83MOL    H7646160   8.088   5.589   1.904 -1.5365 -1.4404  0.4191
   83MOL    H7746161   0.054   5.657   1.810 -1.0682  1.1657 -0.2344
   83MOL    H7846162   0.279   5.762   1.839 -1.3505 -3.4577 -0.9085
   83MOL    H7946163   0.544   6.049   2.228 -0.0463 -0.2521  1.9679
   83MOL    H8046164   0.614   5.944   2.103 -0.4323  0.2311 -0.7489
   83MOL    H8146165   0.747   5.928   2.315  0.6267 -0.4412  3.0485
   83MOL    H8246166   0.611   5.883   2.398  1.5479 -1.5121  0.3910
   83MOL    H8346167   0.211   5.784   2.264 -0.0541  0.6749 -0.1732
   83MOL    H8446168   8.243   5.701   2.367  1.5482  1.2698 -1.0405
   83MOL    H8546169   8.024   5.638   2.324 -1.7527  0.0802 -2.3263
   83MOL    O8646170   0.854   5.796   2.127  0.4030 -0.3710 -0.1767
   83MOL    C8746171   0.778   5.708   2.168 -0.1592  0.2206 -0.1650
   83MOL    O8846172   0.683   5.739   2.266 -0.4426  0.1285  0.9958
   83MOL    C8946173   0.765   5.571   2.122  0.3438 -0.7928  0.4336
   83MOL    C9046174   0.640   5.499   2.142 -0.5866 -0.5698  0.7075
   83MOL    C9146175   0.623   5.368   2.099  0.3796 -1.0611  0.4705
   83MOL    C9246176   0.494   5.302   2.112 -0.3684  0.2656 -0.8612
   83MOL    C9346177   0.476   5.177   2.055 -0.0122 -0.1440 -0.3875
   83MOL    C9446178   0.581   5.104   1.995 -0.4795 -0.2457  0.1438
   83MOL    C9546179   0.565   4.965   1.931 -0.2929  0.0763 -0.8077
   83MOL    O9646180   0.672   4.933   1.858 -0.0130 -0.6905 -0.7311
   83MOL    C9746181   0.684   4.806   1.795  0.5770 -0.7056  0.8909
   83MOL    C9846182   0.816   4.796   1.718 -0.3237 -0.0218 -0.6672
   83MOL    O9946183   0.469   4.888   1.953 -0.3138 -0.2032 -0.3186
   83MOL   C10046184   0.698   5.180   1.967  0.2598  0.4407 -0.1337
   83MOL   C10146185   0.723   5.307   2.018  0.2591  0.3518 -0.0864
   83MOL   C10246186   0.842   5.377   1.995 -0.0873  0.3198 -0.4941
   83MOL   C10346187   0.867   5.508   2.040  0.7135  0.0812 -0.9274
   83MOL   H10446188   0.558   5.548   2.191 -0.0521  1.3263 -0.2401
   83MOL   H10546189   0.430   5.337   2.192  0.3166  0.3910 -0.3610
   83MOL   H10646190   0.379   5.133   2.071  0.2575 -0.6752 -0.2225
   83MOL   H10746191   0.603   4.786   1.725  0.3367  0.1880  0.9164
   83MOL   H10846192   0.679   4.732   1.875 -1.6200 -0.0508  1.3921
   83MOL   H10946193   0.818   4.848   1.622  1.6014  0.2689 -0.4841
   83MOL   H11046194   0.896   4.839   1.777 -0.0191  1.5623 -2.2011
   83MOL   H11146195   0.780   5.136   1.913  1.0911  0.8175  0.8076
   83MOL   H11246196   0.908   5.322   1.930  0.0464 -1.0633  0.8076
   83MOL   H11346197   0.962   5.557   2.024  1.8586 -1.9668 -0.6411
   83MOL   O11446198   0.912   4.642   1.505 -0.3013 -0.0578 -0.0244
   83MOL   C11546199   0.896   4.593   1.616 -1.1368 -0.1108 -0.2089
   83MOL   O11646200   0.838   4.656   1.717  0.0940  0.3802 -0.0587
   83MOL   C11746201   0.922   4.445   1.651  0.4982  0.2125  0.0671
   83MOL   C11846202   0.930   4.395   1.790 -0.3579 -0.4978 -0.3446
   83MOL   C11946203   0.949   4.260   1.820  0.4558  0.2555 -0.7272
   83MOL   C12046204   0.947   4.220   1.950 -0.1354  0.3861  0.4581
   83MOL   C12146205   0.964   4.083   1.985  0.1289 -0.4949  0.3291
   83MOL   C12246206   0.980   3.987   1.878 -0.0452 -0.6287 -0.1750
   83MOL   C12346207   0.997   3.841   1.906 -0.1525  0.5266  0.5295
   83MOL   O12446208   0.994   3.764   1.795 -0.1259  0.0885 -0.1686
   83MOL   C12546209   0.983   3.630   1.805  0.6023 -0.2823 -0.6438
   83MOL   C12646210   1.119   3.560   1.777 -0.6227  0.0588  0.4446
   83MOL   O12746211   1.025   3.799   2.015  0.0864  0.1453  0.3011
   83MOL   C12846212   0.969   4.028   1.745  0.7637  0.0721  0.3461
   83MOL   C12946213   0.958   4.166   1.718 -0.8296 -0.1287  0.3039
   83MOL   C13046214   0.950   4.206   1.585  0.0868  0.5480 -0.3847
   83MOL   C13146215   0.922   4.343   1.551  0.1426 -0.6734  0.1599
   83MOL   H13246216   0.919   4.462   1.873 -3.1001  0.2478 -1.2448
   83MOL   H13346217   0.942   4.284   2.037 -0.1432  0.0807  0.6819
   83MOL   H13446218   0.964   4.052   2.088  1.7290 -0.3171  0.4070
   83MOL   H13546219   0.908   3.580   1.744 -2.0754  2.3693  0.3532
   83MOL   H13646220   0.947   3.612   1.907 -0.2136 -0.2740 -0.9267
   83MOL   H13746221   1.203   3.627   1.795  0.4023 -1.3800  1.1043
   83MOL   H13846222   1.122   3.466   1.832  2.8814  0.1306  0.4616
   83MOL   H13946223   0.973   3.956   1.664 -1.5429  0.7534 -0.4126
   83MOL   H14046224   0.969   4.140   1.502  1.8193  1.3857 -0.6747
   83MOL   H14146225   0.926   4.376   1.448 -2.0103 -0.4860  0.1144
   83MOL   O14246226   1.357   3.464   1.670  0.4247  0.0067  0.1637
   83MOL   C14346227   1.257   3.470   1.600  0.5841 -0.5963  0.0339
   83MOL   O14446228   1.129   3.516   1.642 -0.9129 -0.4432 -0.4679
   83MOL   C14546229   1.260   3.413   1.461  0.5528 -0.1690 -0.2674
   83MOL   C14646230   1.169   3.457   1.363 -0.3804  0.4801 -0.9891
   83MOL   C14746231   1.178   3.403   1.234  0.0071 -0.6181 -0.8229
   83MOL   C14846232   1.087   3.442   1.137  0.6222  0.1274 -0.2998
   83MOL   C14946233   1.080   3.381   1.012  0.6024  0.0280 -0.0328
   83MOL   C15046234   1.177   3.284   0.983  0.8745 -1.3421 -0.0674
   83MOL   C15146235   1.171   3.215   0.850 -0.7219 -0.5028 -0.5308
   83MOL   O15246236   1.059   3.231   0.777  0.1101 -0.3471 -0.1593
   83MOL   C15346237   1.063   3.196   0.638 -0.0247 -0.1320  0.3815
   83MOL   C15446238   1.109   3.323   0.565  0.2102  0.1406  0.0903
   83MOL   O15546239   1.265   3.141   0.816  0.1953  0.3266  0.0914
   83MOL   C15646240   1.268   3.243   1.080  0.1417 -0.4091 -0.1935
   83MOL   C15746241   1.269   3.300   1.209 -0.1217 -0.8747  0.2532
   83MOL   C15846242   1.359   3.253   1.306 -0.2632 -0.0846  0.0888
   83MOL   C15946243   1.357   3.315   1.431  0.1593  0.2491 -0.0238
   83MOL   H16046244   1.083   3.515   1.394 -1.2899 -1.9936  1.2925
   83MOL   H16146245   1.012   3.517   1.161  0.1008 -0.2852 -0.6452
   83MOL   H16246246   1.011   3.419   0.939  0.7226 -0.6195 -0.4820
   83MOL   H16346247   0.965   3.180   0.591 -0.1799  2.6516 -0.3156
   83MOL   H16446248   1.135   3.119   0.610  0.7412  0.2617  1.2344
   83MOL   H16546249   1.097   3.308   0.457 -0.4723 -2.2004  0.4495
   83MOL   H16646250   1.045   3.405   0.598 -0.3736 -0.3103  0.0927
   83MOL   H16746251   1.347   3.173   1.054  0.9307  0.9926 -1.6003
   83MOL   H16846252   1.416   3.164   1.286  0.0095 -0.9404  4.1187
   83MOL   H16946253   1.429   3.280   1.503  1.6133  1.4583 -0.8649
   83MOL   O17046254   1.305   3.206   0.417 -0.5314 -0.4185  0.1290
   83MOL   C17146255   1.336   3.283   0.506 -0.1091 -0.1807 -0.2664
   83MOL   O17246256   1.248   3.341   0.590 -0.3301  0.0073 -0.2194
   83MOL   C17346257   1.480   3.314   0.532 -0.3443 -0.1209 -0.1956
   83MOL   C17446258   1.575   3.259   0.440 -0.6812 -0.2235 -0.5311
   83MOL   C17546259   1.716   3.283   0.454  0.2185 -0.2680 -0.0747
   83MOL   C17646260   1.811   3.234   0.364 -0.0914  0.6636  0.0647
   83MOL   C17746261   1.945   3.242   0.392 -0.0839  0.5179  0.1340
   83MOL   C17846262   1.994   3.315   0.507  0.3168  0.1330  0.2436
   83MOL   C17946263   2.139   3.337   0.533  0.4870 -0.8710  0.1688
   83MOL   O18046264   2.212   3.253   0.458 -0.2709 -0.3163  0.5958
   83MOL   C18146265   2.349   3.243   0.486  0.0133  0.7652  0.2260
   83MOL   C18246266   2.399   3.102   0.528 -0.2718 -0.2142  0.5673
   83MOL   O18346267   2.176   3.422   0.617  0.0555 -0.1141  0.4436
   83MOL   C18446268   1.898   3.377   0.599  0.0927  0.3778  0.2959
   83MOL   C18546269   1.763   3.358   0.564 -0.1951 -0.7813 -0.1023
   83MOL   C18646270   1.667   3.411   0.650 -0.2734  0.3228 -0.2304
   83MOL   C18746271   1.531   3.391   0.639  0.0705 -0.0472 -0.0939
   83MOL   H18846272   1.542   3.189   0.364 -0.8445  2.8031 -3.3755
   83MOL   H18946273   1.781   3.166   0.285  2.0342  1.5599 -1.5377
   83MOL   H19046274   2.014   3.193   0.325 -2.3712 -0.1476 -1.8116
   83MOL   H19146275   2.378   3.303   0.572  1.0366  1.3551 -0.5172
   83MOL   H19246276   2.410   3.281   0.404  1.0076  0.2685  0.7254
   83MOL   H19346277   2.508   3.099   0.538 -0.1923 -2.3119 -0.6872
   83MOL   H19446278   2.368   3.083   0.630  1.5725  0.1882  1.2240
   83MOL   H19546279   1.934   3.430   0.686  2.5645  0.2265 -0.6007
   83MOL   H19646280   1.699   3.461   0.741 -0.1880 -1.2364  0.6125
   83MOL   H19746281   1.464   3.422   0.717  1.0702 -0.1105  0.7992
   83MOL   O19846282   2.201   2.926   0.598 -0.2195  0.1962  0.3129
   83MOL   C19946283   2.260   2.914   0.490  0.5696 -0.2863  0.0603
   83MOL   O20046284   2.357   2.991   0.447 -0.1526  0.0036  0.0413
   83MOL   C20146285   2.238   2.804   0.395 -0.0977  0.0869  0.5229
   83MOL   C20246286   2.218   2.675   0.458  0.2447 -1.8048  0.3970
   83MOL   C20346287   2.202   2.557   0.377 -1.2694 -0.0164  0.3937
   83MOL   C20446288   2.185   2.429   0.438 -0.4562 -0.0749  0.2877
   83MOL   C20546289   2.179   2.315   0.359 -0.6528 -0.1626 -0.8737
   83MOL   C20646290   2.192   2.325   0.221  0.2635  0.1634  0.1252
   83MOL   C20746291   2.173   2.200   0.142  0.2759 -0.0752  0.1388
   83MOL   O20846292   2.182   2.210   0.012  0.1144 -0.3792 -0.4696
   83MOL   C20946293   2.151   2.112   8.171  0.0343  0.3724 -0.1209
   83MOL   C21046294   2.253   1.991   8.173 -0.3567 -0.3091  0.0876
   83MOL   O21146295   2.140   2.091   0.192  0.1232 -0.2850  0.2719
   83MOL   C21246296   2.213   2.448   0.154  0.2507 -0.0105 -0.5731
   83MOL   C21346297   2.219   2.564   0.237 -0.0248  0.5230  0.0221
   83MOL   C21446298   2.250   2.690   0.180  0.4444 -0.7617 -0.0671
   83MOL   C21546299   2.248   2.808   0.256 -0.0040 -0.5619 -0.4808
   83MOL   H21646300   2.227   2.660   0.565 -0.1508  1.0884  0.8835
   83MOL   H21746301   2.161   2.408   0.541  0.0058  3.4824  1.1942
   83MOL   H21846302   2.176   2.221   0.412 -0.0955  0.1542 -0.2746
   83MOL   H21946303   2.147   2.156   8.072 -1.4626  0.8405  0.1310
   83MOL   H22046304   2.053   2.067   8.193 -0.8711  1.8421 -1.0996
   83MOL   H22146305   2.342   2.014   8.233 -1.3238 -0.1217  1.4725
   83MOL   H22246306   2.213   1.909   8.231  2.6436 -1.1017  1.1312
   83MOL   H22346307   2.223   2.455   0.047 -2.0253 -0.8189 -0.8770
   83MOL   H22446308   2.278   2.688   0.075  2.1233 -1.8980  0.3769
   83MOL   H22546309   2.272   2.907   0.222  0.0341  0.0711  1.3528
   83MOL   O22646310   2.445   2.087   8.004  0.4640  0.3710  0.1429
   83MOL   C22746311   2.372   1.992   7.969  0.4702 -0.0650 -1.1118
   83MOL   O22846312   2.283   1.938   8.044  0.3418 -0.7372 -0.1513
   83MOL   C22946313   2.399   1.916   7.847  0.0258  0.1404 -0.8124
   83MOL   C23046314   2.294   1.837   7.790 -0.0198 -0.9627  0.3034
   83MOL   C23146315   2.317   1.784   7.661 -0.4225 -0.6433 -1.2564
   83MOL   C23246316   2.208   1.726   7.594 -0.1011  0.1348 -0.0969
   83MOL   C23346317   2.232   1.657   7.473  0.2103 -0.3066  0.0783
   83MOL   C23446318   2.360   1.651   7.417  0.1923  0.4316 -0.8017
   83MOL   C23546319   2.384   1.570   7.297  0.3210  0.5736 -0.0236
   83MOL   O23646320   2.510   1.515   7.296  0.2422 -0.3810  0.0094
   83MOL   C23746321   2.549   1.423   7.205 -0.2096 -0.0899  0.0562
   83MOL   C23846322   2.698   1.423   7.202  0.0189  1.1589  0.1922
   83MOL   O23946323   2.293   1.546   7.212 -0.0942  0.3725 -0.5545
   83MOL   C24046324   2.467   1.714   7.485 -0.0692  0.2314 -0.0124
   83MOL   C24146325   2.446   1.792   7.601 -0.1939  0.2247  0.2395
   83MOL   C24246326   2.546   1.866   7.660  0.2031  0.4426  0.1098
   83MOL   C24346327   2.524   1.933   7.784  0.7346 -0.6333  0.0727
   83MOL   H24446328   2.197   1.831   7.837 -0.2892  0.3369 -0.0651
   83MOL   H24546329   2.112   1.708   7.640  1.5102 -1.8362  2.6887
   83MOL   H24646330   2.145   1.613   7.426  1.0836 -1.4304 -0.4864
   83MOL   H24746331   2.511   1.453   7.108  0.4070 -2.9345 -1.1268
   83MOL   H24846332   2.515   1.321   7.221  1.6942 -1.3892 -3.6231
   83MOL   H24946333   2.740   1.398   7.300 -0.2817 -1.4474 -0.3038
   83MOL   H25046334   2.734   1.354   7.125 -1.0100 -0.0684  0.7933
   83MOL   H25146335   2.569   1.716   7.451 -1.1377  1.8274 -3.3663
   83MOL   H25246336   2.640   1.876   7.608  0.8261  1.6632  1.4483
   83MOL   H25346337   2.605   1.982   7.835  1.7878 -1.5939 -0.6321
   83MOL   O25446338   2.729   1.526   6.947  0.2228  0.0634 -0.1098
   83MOL   C25546339   2.756   1.596   7.043  0.0567  0.6406 -0.0853
   83MOL   O25646340   2.748   1.551   7.175 -0.2435  0.5906  0.1743
   83MOL   C25746341   2.793   1.742   7.035  0.7136  0.1650 -0.2327
   83MOL   C25846342   2.777   1.827   6.922  0.2520 -0.1037 -0.2649
   83MOL   C25946343   2.820   1.963   6.921 -1.1896  0.2978  0.0027
   83MOL   C26046344   2.805   2.035   6.807 -0.6939  0.5514  0.7211
   83MOL   C26146345   2.842   2.171   6.800  0.1403 -0.3280  0.6507
   83MOL   C26246346   2.897   2.232   6.916  0.6240  0.3322  0.0984
   83MOL   C26346347   2.939   2.373   6.902 -0.4694  0.4000  0.9052
   83MOL   O26446348   2.859   2.441   6.813 -0.3046  0.0928  0.2320
   83MOL   C26546349   2.905   2.558   6.751 -0.4546 -0.3432  0.6902
   83MOL   C26646350   2.828   2.683   6.801 -0.0815  0.6321  0.1720
   83MOL   O26746351   3.034   2.420   6.962 -0.4068 -0.3833  0.6334
   83MOL   C26846352   2.922   2.154   7.031 -0.6022  0.1576 -0.5781
   83MOL   C26946353   2.878   2.020   7.036  0.1372 -0.6194 -0.1049
   83MOL   C27046354   2.888   1.942   7.156  0.1122 -0.3278 -0.1195
   83MOL   C27146355   2.854   1.804   7.154  0.4582  0.1181  0.5215
   83MOL   H27246356   2.732   1.783   6.835 -1.2795 -3.0483  1.9230
   83MOL   H27346357   2.744   1.988   6.731 -0.3655  1.0410  0.1414
   83MOL   H27446358   2.829   2.222   6.706 -0.4236  0.1147  0.9635
   83MOL   H27546359   2.902   2.548   6.642 -0.6906  1.7080  0.4976
   83MOL   H27646360   3.012   2.574   6.765 -1.0545  2.5938  2.1652
   83MOL   H27746361   2.720   2.671   6.790  0.2132 -2.5269  0.2572
   83MOL   H27846362   2.860   2.670   6.904 -1.2485  1.2810  0.6241
   83MOL   H27946363   2.974   2.198   7.115 -2.0214 -1.0378  0.9620
   83MOL   H28046364   2.918   1.990   7.248  1.4480  2.6576 -2.0262
   83MOL   H28146365   2.865   1.752   7.248  0.8550 -1.1596 -0.2200
   83MOL   O28246366   3.041   2.812   6.886  0.0733 -0.4408 -0.3728
   83MOL   C28346367   2.987   2.862   6.794  0.4950 -0.5058  0.9086
   83MOL   O28446368   2.877   2.803   6.744 -0.1029 -0.0381 -0.7081
   83MOL   C28546369   3.013   2.992   6.734 -0.8567 -0.3561 -0.3513
   83MOL   C28646370   2.971   3.020   6.602 -0.3112 -0.0133  0.5373
   83MOL   C28746371   3.009   3.138   6.544  0.3700  0.0413 -0.8537
   83MOL   C28846372   2.954   3.163   6.420  0.1535  0.2041  0.1481
   83MOL   C28946373   3.002   3.275   6.346  0.1592  0.3246  0.2511
   83MOL   C29046374   3.089   3.369   6.405 -0.8379 -0.1162  0.0809
   83MOL   C29146375   3.134   3.485   6.323  0.2566 -0.4310  0.0819
   83MOL   O29246376   3.093   3.484   6.187  0.2518  0.8469 -0.5054
   83MOL   C29346377   3.125   3.590   6.099 -0.8619 -0.4534 -0.3037
   83MOL   C29446378   3.030   3.707   6.122  0.1724 -0.1196 -0.2470
   83MOL   O29546379   3.211   3.570   6.365  0.0522 -0.1761 -0.1550
   83MOL   C29646380   3.133   3.347   6.539  0.1451 -0.1011 -0.4266
   83MOL   C29746381   3.087   3.235   6.608 -0.4323  1.1920 -0.7328
   83MOL   C29846382   3.138   3.211   6.734  1.0441 -0.2321  0.2920
   83MOL   C29946383   3.099   3.092   6.799  0.1357 -0.5490  0.1346
   83MOL   H30046384   2.911   2.940   6.560 -0.4928  1.6883 -2.6010
   83MOL   H30146385   2.894   3.086   6.375 -2.5457  1.4439  1.5592
   83MOL   H30246386   2.965   3.286   6.245 -1.5651  0.4469  0.8704
   83MOL   H30346387   3.096   3.560   5.998 -2.1618 -2.2889  0.5942
   83MOL   H30446388   3.232   3.610   6.101 -1.0113  0.3787 -0.3689
   83MOL   H30546389   3.019   3.759   6.027  0.3987 -1.1431 -0.8378
   83MOL   H30646390   2.930   3.676   6.150  0.3058  0.0751  0.4525
   83MOL   H30746391   3.210   3.409   6.582  0.5090 -0.2539 -0.8523
   83MOL   H30846392   3.190   3.286   6.790 -0.0552  0.1421  0.8353
   83MOL   H30946393   3.130   3.080   6.902 -1.0115 -2.1740  0.3130
   83MOL   O31046394   3.247   3.881   6.108 -0.4695 -0.8014  0.4028
   83MOL   C31146395   3.171   3.885   6.204  0.4996  0.6316 -0.6261
   83MOL   O31246396   3.061   3.803   6.221  0.4233  0.6007  0.5292
   83MOL   C31346397   3.196   3.964   6.326 -0.0573 -0.6531  0.6387
   83MOL   C31446398   3.093   3.994   6.415 -0.3292 -0.6592 -0.7197
   83MOL   C31546399   3.123   4.057   6.544  0.5229 -0.0563 -0.2895
   83MOL   C31646400   3.031   4.058   6.648  1.0825 -0.0746  0.5827
   83MOL   C31746401   3.066   4.114   6.769 -0.1465 -0.0803 -0.4150
   83MOL   C31846402   3.186   4.181   6.785  0.2056  0.1580 -0.3094
   83MOL   C31946403   3.207   4.251   6.916  0.1113 -0.2067 -0.0236
   83MOL   O32046404   3.327   4.280   6.939  0.3702  0.8062  0.3264
   83MOL   C32146405   3.381   4.336   7.065 -0.7735  0.4004 -0.0539
   83MOL   C32246406   3.417   4.480   7.052  0.4117 -0.3183  0.0126
   83MOL   O32346407   3.116   4.285   6.995 -0.5987 -0.3233 -0.6277
   83MOL   C32446408   3.283   4.164   6.686  0.4423  0.5217 -0.5548
   83MOL   C32546409   3.252   4.105   6.562 -0.1421  0.5471  0.1919
   83MOL   C32646410   3.358   4.082   6.467 -0.0418 -0.0440 -0.0941
   83MOL   C32746411   3.328   4.010   6.348  0.3402  0.0224 -0.2592
   83MOL   H32846412   2.994   3.953   6.399 -0.1081 -1.3885 -0.2635
   83MOL   H32946413   2.932   4.017   6.631  0.1989  2.5426 -0.7607
   83MOL   H33046414   2.986   4.102   6.842  0.9795  1.7161  1.1683
   83MOL   H33146415   3.468   4.271   7.078 -0.6711 -0.1045 -2.9034
   83MOL   H33246416   3.321   4.325   7.156 -0.1733  2.0382  0.5522
   83MOL   H33346417   3.487   4.512   7.129 -2.5764  2.0103  1.8799
   83MOL   H33446418   3.457   4.499   6.952  0.1788  0.4450  0.0616
   83MOL   H33546419   3.379   4.210   6.707  0.1529  0.0555  1.8408
   83MOL   H33646420   3.458   4.119   6.483  0.2104 -0.5907 -0.3995
   83MOL   H33746421   3.408   3.982   6.281  0.8628  2.4503 -0.6711
   83MOL   O33846422   3.312   4.686   6.901 -0.4563  0.3951 -0.4207
   83MOL   C33946423   3.252   4.655   7.005 -0.4925 -0.3448  0.5016
   83MOL   O34046424   3.297   4.556   7.080  0.0011  0.8315  0.6786
   83MOL   C34146425   3.135   4.723   7.065 -0.4225  0.1857  0.0757
   83MOL   C34246426   3.100   4.699   7.205 -0.4537 -0.3975 -0.5642
   83MOL   C34346427   2.990   4.755   7.265 -0.3216 -0.0152  0.1106
   83MOL   C34446428   2.949   4.721   7.395  0.6521 -0.5424 -0.4005
   83MOL   C34546429   2.832   4.786   7.450 -0.2398  0.1560 -0.6210
   83MOL   C34646430   2.765   4.894   7.376  0.8842 -0.4283  0.3967
   83MOL   C34746431   2.640   4.950   7.428  0.5405 -0.7799 -0.4054
   83MOL   O34846432   2.573   4.863   7.502 -0.4842  0.4505  0.8763
   83MOL   C34946433   2.441   4.889   7.548 -0.9861 -0.5604  1.5209
   83MOL   C35046434   2.350   4.823   7.443  0.2959  0.8936  0.4069
   83MOL   O35146435   2.594   5.063   7.398 -0.0501 -0.0365  0.2231
   83MOL   C35246436   2.811   4.930   7.248 -0.0084  0.6646 -0.1450
   83MOL   C35346437   2.920   4.857   7.191 -1.2134  0.8006  0.6947
   83MOL   C35446438   2.954   4.887   7.056  0.0675 -1.1359  0.0451
   83MOL   C35546439   3.061   4.818   6.995  0.4126 -0.1179  0.5663
   83MOL   H35646440   3.155   4.625   7.261  1.6516  1.7803  0.3985
   83MOL   H35746441   2.999   4.646   7.455 -0.5390  0.7265  2.2729
   83MOL   H35846442   2.795   4.764   7.549 -1.5895  0.0915 -1.1401
   83MOL   H35946443   2.424   4.996   7.561 -1.8864 -0.3240 -1.2404
   83MOL   H36046444   2.433   4.837   7.643  0.3264 -1.7975  0.9668
   83MOL   H36146445   2.255   4.875   7.435 -1.5309 -2.4732 -0.6113
   83MOL   H36246446   2.392   4.822   7.342  0.8586  2.0730  0.6182
   83MOL   H36346447   2.749   4.995   7.188 -0.6401 -0.9672 -1.3127
   83MOL   H36446448   2.895   4.952   6.993 -0.1499 -0.3217  1.0633
   83MOL   H36546449   3.091   4.842   6.894  0.2064 -2.7023 -0.1506
   83MOL   O36646450   2.509   4.621   7.389 -0.0497  0.0999 -0.5985
   83MOL   C36746451   2.410   4.596   7.458  0.5348 -0.0981  0.7800
   83MOL   O36846452   2.326   4.691   7.495  0.1314 -0.5183  0.2898
   83MOL   C36946453   2.366   4.462   7.503 -0.4042  0.2474  0.3343
   83MOL   C37046454   2.242   4.444   7.562  0.6545 -0.8356 -0.4928
   83MOL   C37146455   2.190   4.316   7.587 -0.3708  0.1997 -0.2135
   83MOL   C37246456   2.058   4.290   7.631 -0.9137 -0.1209  0.0173
   83MOL   C37346457   2.010   4.158   7.645  0.0721  0.1784 -0.0144
   83MOL   C37446458   2.094   4.046   7.624  0.6731  0.1858  1.0226
   83MOL   C37546459   2.050   3.909   7.623  0.4870 -0.8630 -0.2520
   83MOL   O37646460   1.921   3.894   7.651  0.3885  0.0448 -0.4146
   83MOL   C37746461   1.871   3.762   7.674  0.5535  0.0065  0.3872
   83MOL   C37846462   1.821   3.707   7.544  0.4772  0.3779 -0.6351
   83MOL   O37946463   2.127   3.818   7.601  0.1157 -0.3296 -0.5781
   83MOL   C38046464   2.227   4.073   7.598 -0.0048  0.5373 -0.2720
   83MOL   C38146465   2.279   4.203   7.578  0.3631  0.1333  0.1212
   83MOL   C38246466   2.410   4.219   7.536  0.0564  0.0188  0.0178
   83MOL   C38346467   2.447   4.348   7.494 -0.2090 -0.1775  0.3334
   83MOL   H38446468   2.176   4.527   7.580  1.9325 -0.1848  1.4333
   83MOL   H38546469   1.989   4.373   7.638  0.4520  1.3215 -2.8262
   83MOL   H38646470   1.908   4.142   7.677 -0.5705  4.0341  0.0331
   83MOL   H38746471   1.783   3.765   7.739 -1.6435  0.4129 -2.5224
   83MOL   H38846472   1.948   3.691   7.705  3.2463  2.2300 -1.0349
   83MOL   H38946473   1.761   3.618   7.563  0.9823  0.4693  1.5608
   83MOL   H39046474   1.757   3.780   7.495 -0.7080  0.2053  0.6454
   83MOL   H39146475   2.301   3.994   7.595  0.3416  0.7537  1.9840
   83MOL   H39246476   2.480   4.136   7.536  1.9741  1.5921 -0.8254
   83MOL   H39346477   2.547   4.374   7.463  0.4219 -1.3454  1.3151
   83MOL   O39446478   1.923   3.463   7.543 -0.5297  0.2694  0.3572
   83MOL   C39546479   1.986   3.552   7.486  0.1373  0.7527 -0.5155
   83MOL   O39646480   1.930   3.669   7.456  0.5303  0.3253 -0.7256
   83MOL   C39746481   2.129   3.524   7.439  0.3013  0.0402 -0.1089
   83MOL   C39846482   2.206   3.621   7.373 -0.0406 -0.3487  0.0326
   83MOL   C39946483   2.344   3.600   7.346  0.3286  0.5778  1.1091
   83MOL   C40046484   2.422   3.701   7.288 -0.1059 -0.2607 -0.2058
   83MOL   C40146485   2.555   3.672   7.251  0.2333 -0.1222  0.0212
   83MOL   C40246486   2.607   3.540   7.266  0.2862 -0.5391  0.2491
   83MOL   C40346487   2.743   3.509   7.228  0.1356 -0.1292 -0.1349
   83MOL   O40446488   2.766   3.378   7.198  0.4745 -0.2090 -0.2907
   83MOL   C40546489   2.878   3.332   7.125 -0.0278 -0.5925  0.2701
   83MOL   C40646490   2.839   3.203   7.048 -1.1050 -0.3299 -0.0086
   83MOL   O40746491   2.832   3.601   7.212  0.5503  0.7033 -0.3853
   83MOL   C40846492   2.527   3.442   7.321  0.0309 -0.3770  0.2064
   83MOL   C40946493   2.397   3.473   7.364 -0.5836  0.3676  0.3199
   83MOL   C41046494   2.320   3.374   7.428  0.4089  0.2631  0.2252
   83MOL   C41146495   2.187   3.401   7.476 -0.3889  0.6057 -0.1180
   83MOL   H41246496   2.167   3.717   7.343  0.0174 -1.3361 -3.3859
   83MOL   H41346497   2.376   3.797   7.272 -2.0377 -1.1107  0.0451
   83MOL   H41446498   2.610   3.754   7.206 -1.0684  1.0136  0.4497
   83MOL   H41546499   2.954   3.298   7.196  0.9848  0.9111 -0.0659
   83MOL   H41646500   2.904   3.423   7.070  0.9549  0.3995  2.2993
   83MOL   H41746501   2.735   3.208   7.017 -1.2924  0.4715  0.7236
   83MOL   H41846502   2.900   3.201   6.957 -1.5006  0.7411 -0.3131
   83MOL   H41946503   2.548   3.337   7.336 -0.9938 -0.5859  0.2380
   83MOL   H42046504   2.363   3.275   7.438 -0.6413 -0.2217 -0.0056
   83MOL   H42146505   2.127   3.326   7.526  0.4114 -0.4242 -0.6833
   83MOL   O42246506   2.661   3.119   7.247 -0.2668 -0.3097 -0.6014
   83MOL   C42346507   2.756   3.051   7.217 -0.1034 -0.3251 -0.1883
   83MOL   O42446508   2.847   3.081   7.126  0.3208  0.4337  0.4967
   83MOL   C42546509   2.777   2.911   7.277 -0.5692  0.6982  0.6569
   83MOL   C42646510   2.881   2.822   7.225  0.2760  0.0933 -0.7765
   83MOL   C42746511   2.882   2.690   7.276  0.3843  0.9502  0.2344
   83MOL   C42846512   2.977   2.599   7.221 -0.4569 -0.0169  0.3752
   83MOL   C42946513   2.984   2.463   7.263  0.3494 -0.9758  0.5158
   83MOL   C43046514   2.887   2.417   7.357 -0.0846 -0.4823  0.0166
   83MOL   C43146515   2.884   2.273   7.392  0.2332 -0.1605 -0.0327
   83MOL   O43246516   2.803   2.247   7.495  0.2185 -0.3282 -0.1911
   83MOL   C43346517   2.799   2.113   7.557  0.4472  0.4105  0.2106
   83MOL   C43446518   2.907   2.104   7.670 -0.4657 -0.7852 -0.6674
   83MOL   O43546519   2.969   2.195   7.363  0.0556 -0.0717  0.2565
   83MOL   C43646520   2.800   2.506   7.421 -0.4735  0.4264 -0.5235
   83MOL   C43746521   2.799   2.645   7.384  0.0234 -0.0550 -0.0739
   83MOL   C43846522   2.701   2.734   7.437 -0.1381 -0.3284 -0.3632
   83MOL   C43946523   2.691   2.866   7.380  0.5423  0.2533 -0.3636
   83MOL   H44046524   2.940   2.850   7.138  1.4815  2.8873  0.8553
   83MOL   H44146525   3.047   2.638   7.149 -1.6949  0.5648 -0.5303
   83MOL   H44246526   3.050   2.388   7.223  0.9887  0.0478 -0.4045
   83MOL   H44346527   2.822   2.037   7.482 -1.2350 -0.4264  0.5223
   83MOL   H44446528   2.702   2.091   7.601  0.7173  0.0458  0.6253
   83MOL   H44546529   2.906   2.004   7.714  0.9856 -0.4742  0.0861
   83MOL   H44646530   3.005   2.123   7.628 -1.5941 -1.4797 -3.7517
   83MOL   H44746531   2.742   2.479   7.508  2.2977  1.3124  1.7056
   83MOL   H44846532   2.646   2.693   7.521  0.4039  0.8143  0.5725
   83MOL   H44946533   2.621   2.937   7.421 -0.2612  0.0131 -1.2897
   83MOL   O45046534   2.826   2.082   7.930 -0.0321  0.8313  0.0699
   83MOL   C45146535   2.821   2.189   7.875 -0.0039 -0.3059 -0.2442
   83MOL   O45246536   2.879   2.213   7.756 -0.6324  0.3206 -0.0092
   83MOL   C45346537   2.753   2.312   7.928 -0.0919 -0.2289 -0.2729
   83MOL   C45446538   2.761   2.430   7.857  0.2767  0.1603 -0.4891
   83MOL   C45546539   2.684   2.538   7.902  0.0787 -0.0565 -0.0076
   83MOL   C45646540   2.675   2.660   7.821 -0.3511 -0.4980  0.4324
   83MOL   C45746541   2.604   2.771   7.869  0.9400  0.6064  0.6866
   83MOL   C45846542   2.525   2.767   7.986  0.5129  0.0708  0.4072
   83MOL   C45946543   2.420   2.869   8.025 -0.4805 -0.2550  0.2748
   83MOL   O46046544   2.425   2.969   7.931 -0.3508  0.1105 -0.0429
   83MOL   C46146545   2.314   3.050   7.895 -0.5522  0.3809 -0.1339
   83MOL   C46246546   2.310   3.069   7.745  1.2107 -0.0796  0.4260
   83MOL   O46346547   2.349   2.867   8.127 -0.3388  0.3253 -0.2835
   83MOL   C46446548   2.524   2.643   8.063 -0.1815  0.0374  0.0959
   83MOL   C46546549   2.608   2.535   8.025 -0.5748  0.4038  0.4256
   83MOL   C46646550   2.612   2.414   8.095  0.7439 -0.2008  0.4619
   83MOL   C46746551   2.681   2.304   8.046  0.7655  0.9997 -0.5975
   83MOL   H46846552   2.810   2.434   7.760 -0.7144  0.0347 -1.0035
   83MOL   H46946553   2.728   2.673   7.728  2.1306 -0.3566  1.8204
   83MOL   H47046554   2.608   2.863   7.812 -1.4170  1.0012  1.1071
   83MOL   H47146555   2.320   3.142   7.953  0.7546 -0.4544  1.0849
   83MOL   H47246556   2.221   3.001   7.924  0.8426 -1.6912  0.8911
   83MOL   H47346557   2.214   3.118   7.729  1.1262 -0.7564 -1.2040
   83MOL   H47446558   2.397   3.133   7.730  1.0350 -0.4771 -2.4509
   83MOL   H47546559   2.469   2.635   8.156 -0.5118  1.7833  0.0793
   83MOL   H47646560   2.546   2.417   8.181 -0.6947  2.3224 -0.6818
   83MOL   H47746561   2.672   2.209   8.098 -0.0850  0.2890 -2.0294
   83MOL   O47846562   2.199   3.003   7.510 -0.6686  0.1700  0.1853
   83MOL   C47946563   2.274   2.921   7.566 -0.5775 -0.0139  0.1886
   83MOL   O48046564   2.332   2.946   7.679 -0.3284  0.5378  0.3634
   83MOL   C48146565   2.301   2.783   7.511 -0.3492  0.0623 -0.4951
   83MOL   C48246566   2.371   2.683   7.585  0.2806 -0.2211 -0.3682
   83MOL   C48346567   2.389   2.553   7.535 -0.0602  0.4022  0.2847
   83MOL   C48446568   2.470   2.459   7.599 -0.1346 -0.2979  0.3928
   83MOL   C48546569   2.490   2.333   7.540  0.2052 -0.3757  0.0572
   83MOL   C48646570   2.426   2.291   7.417 -0.0631 -0.3261  0.2191
   83MOL   C48746571   2.438   2.160   7.360 -0.5722  1.1807  0.7964
   83MOL   O48846572   2.347   2.127   7.263  0.1615 -0.2304 -0.2837
   83MOL   C48946573   2.336   1.993   7.211 -0.3104  0.5051 -0.2003
   83MOL   C49046574   2.192   1.945   7.188 -0.2005 -0.5172  0.4226
   83MOL   O49146575   2.520   2.072   7.395  0.0146 -0.2119 -0.4950
   83MOL   C49246576   2.342   2.389   7.352  0.9059 -0.0661 -0.0592
   83MOL   C49346577   2.329   2.519   7.408  0.6082 -0.4909 -0.0335
   83MOL   C49446578   2.249   2.616   7.341  0.8324 -1.0214  0.0124
   83MOL   C49546579   2.231   2.748   7.398 -0.4186 -0.8171  0.6391
   83MOL   H49646580   2.419   2.717   7.676  1.2249  1.2837 -1.3938
   83MOL   H49746581   2.513   2.478   7.696 -0.7148  2.4902  0.1415
   83MOL   H49846582   2.539   2.258   7.599  0.6052  1.2167  1.7877
   83MOL   H49946583   2.362   1.921   7.289  0.6104 -1.1459 -1.9938
   83MOL   H50046584   2.406   1.974   7.130 -0.2210  0.1515 -0.0392
   83MOL   H50146585   2.180   1.841   7.158  1.4714 -0.8161  0.7582
   83MOL   H50246586   2.133   1.952   7.280 -1.0850  0.8152 -0.2202
   83MOL   H50346587   2.290   2.363   7.261 -0.0627 -1.3061  0.8277
   83MOL   H50446588   2.213   2.589   7.242  1.3125  1.4473 -0.8774
   83MOL   H50546589   2.160   2.810   7.345  0.8479  0.4466  0.4164
   83MOL   O50646590   2.073   2.213   7.220  0.2214 -0.1036 -0.2034
   83MOL   C50746591   2.058   2.152   7.118 -0.1929 -0.0975  0.0850
   83MOL   O50846592   2.110   2.022   7.095 -0.0592 -0.0588  0.3052
   83MOL   C50946593   1.976   2.207   7.006  0.8398 -0.7754 -0.3298
   83MOL   C51046594   1.930   2.336   7.017  0.0475  0.5803 -0.6089
   83MOL   C51146595   1.856   2.401   6.914 -0.6824  1.0058  0.2750
   83MOL   C51246596   1.824   2.539   6.925 -0.0874  0.1998 -0.8744
   83MOL   C51346597   1.762   2.600   6.814 -0.4217 -0.2297 -0.1715
   83MOL   C51446598   1.726   2.526   6.700 -0.0532  0.2355  0.3605
   83MOL   C51546599   1.663   2.598   6.588 -0.8695  0.4772  0.6658
   83MOL   O51646600   1.585   2.517   6.510  1.1185 -0.9763  0.3223
   83MOL   C51746601   1.495   2.577   6.414 -0.1620  0.0707 -0.0687
   83MOL   C51846602   1.358   2.587   6.470 -0.3361 -0.6897  0.3023
   83MOL   O51946603   1.672   2.719   6.569 -0.3152 -0.3508 -0.1890
   83MOL   C52046604   1.746   2.390   6.695  0.3132 -0.1150  0.0980
   83MOL   C52146605   1.826   2.327   6.796 -0.8852  0.2205 -0.0419
   83MOL   C52246606   1.875   2.188   6.789 -0.0911 -0.4611 -0.3172
   83MOL   C52346607   1.951   2.133   6.896  0.2319  0.4790 -0.2713
   83MOL   H52446608   1.947   2.393   7.107 -0.2963 -1.1970  0.6192
   83MOL   H52546609   1.858   2.585   7.016 -0.1201 -0.4144 -0.5465
   83MOL   H52646610   1.744   2.706   6.825  3.3280  0.5785 -1.1270
   83MOL   H52746611   1.485   2.516   6.324  0.5906  0.8812 -0.7025
   83MOL   H52846612   1.541   2.671   6.384 -2.4260  0.0890 -3.6560
   83MOL   H52946613   1.356   2.605   6.578  0.3462 -0.4226  0.2741
   83MOL   H53046614   1.310   2.671   6.420 -3.3087 -1.4184  1.8335
   83MOL   H53146615   1.716   2.344   6.602  0.2141  0.3521 -0.1020
   83MOL   H53246616   1.827   2.130   6.711 -0.3938 -0.9266  0.2086
   83MOL   H53346617   1.985   2.030   6.888 -0.0016  0.2982  1.0095
   83MOL   O53446618   1.302   2.362   6.622  0.3432  0.0623 -0.0769
   83MOL   C53546619   1.252   2.370   6.514  0.3906 -0.1598 -0.3081
   83MOL   O53646620   1.270   2.477   6.437  0.2130 -0.1585  0.2620
   83MOL   C53746621   1.149   2.276   6.460  0.1805 -0.1149  0.2613
   83MOL   C53846622   1.152   2.143   6.510 -0.4877  0.4571 -0.0420
   83MOL   C53946623   1.062   2.046   6.468 -0.1185 -0.1424 -0.3041
   83MOL   C54046624   1.060   1.911   6.518  0.0578  0.2807 -0.2298
   83MOL   C54146625   0.975   1.812   6.474  0.0111 -0.1115  0.5560
   83MOL   C54246626   0.877   1.845   6.379 -0.0912 -0.0708 -0.2595
   83MOL   C54346627   0.784   1.741   6.323 -0.3325  0.0138 -0.1753
   83MOL   O54446628   0.689   1.767   6.237 -0.4661 -0.1513 -0.3144
   83MOL   C54546629   0.604   1.670   6.169  0.0072  0.1879 -0.0453
   83MOL   C54646630   0.507   1.596   6.261  0.1272  0.3004 -0.1178
   83MOL   O54746631   0.815   1.631   6.359  0.6206 -0.4299 -0.4254
   83MOL   C54846632   0.862   1.981   6.343  0.5251 -0.4898 -0.7412
   83MOL   C54946633   0.956   2.080   6.376 -0.6190  0.0973 -0.6693
   83MOL   C55046634   0.946   2.218   6.340  0.5648  0.1453  0.2066
   83MOL   C55146635   1.040   2.315   6.384  0.5258 -0.4227 -0.6487
   83MOL   H55246636   1.229   2.113   6.580  0.3140  2.8102  0.1484
   83MOL   H55346637   1.127   1.883   6.599  0.2970  0.6530 -0.2982
   83MOL   H55446638   0.997   1.711   6.504 -0.8308 -0.5332 -0.2452
   83MOL   H55546639   0.674   1.607   6.114  1.9418  0.0837  2.4448
   83MOL   H55646640   0.541   1.720   6.095  0.6921 -1.3822 -1.7255
   83MOL   H55746641   0.448   1.526   6.201 -1.2293  1.7847 -0.5752
   83MOL   H55846642   0.432   1.665   6.300 -0.2226  0.6127 -1.3181
   83MOL   H55946643   0.772   2.011   6.292 -0.4475  1.4365  1.9826
   83MOL   H56046644   0.860   2.254   6.285  0.8632  0.1891 -0.2324
   83MOL   H56146645   1.028   2.422   6.385 -1.3985 -0.6296  0.7287
   83MOL   H56246646   0.562   1.540   6.336 -0.3530  0.4032  0.3165
   84MOL     O146647   4.374   2.726   6.643 -0.2917  0.3343  0.2078
   84MOL     C246648   4.404   2.726   6.524 -0.1702  0.5642  0.0164
   84MOL     O346649   4.462   2.827   6.452  0.5178 -0.2862  0.5993
   84MOL     C446650   4.368   2.604   6.440  0.4113  0.9372  0.4489
   84MOL     C546651   4.262   2.523   6.485  0.6208  0.2586  0.6931
   84MOL     C646652   4.243   2.395   6.430 -0.1353  0.6196 -0.4962
   84MOL     C746653   4.145   2.313   6.480  0.1819  0.0764 -0.2531
   84MOL     C846654   4.145   2.177   6.449 -0.0316  0.6562 -0.0012
   84MOL     C946655   4.221   2.126   6.342 -0.5361 -0.3810  0.1691
   84MOL    C1046656   4.206   1.982   6.296 -0.3125 -0.5664  0.1398
   84MOL    O1146657   4.117   1.909   6.363 -0.1757 -0.0756 -0.3817
   84MOL    C1246658   4.103   1.765   6.338 -0.5275  0.0865 -0.4394
   84MOL    C1346659   4.230   1.693   6.377  0.1799 -0.2333  0.2047
   84MOL    O1446660   4.262   1.939   6.198  0.1992 -0.1000  0.4139
   84MOL    C1546661   4.306   2.217   6.274 -0.1007 -0.2396 -0.3117
   84MOL    C1646662   4.324   2.350   6.324 -0.2930  0.5013 -0.3138
   84MOL    C1746663   4.418   2.437   6.266 -0.6235 -0.3362 -0.2318
   84MOL    C1846664   4.441   2.566   6.324  0.1393  0.2505 -0.3679
   84MOL    H1946665   4.200   2.556   6.567  1.6636  2.6996  0.5390
   84MOL    H2046666   4.083   2.360   6.555  0.4778  1.0927 -0.6361
   84MOL    H2146667   4.065   2.120   6.494  1.9119 -1.8643  0.3338
   84MOL    H2246668   4.016   1.729   6.393  1.0313  0.0840  2.1499
   84MOL    H2346669   4.075   1.737   6.237  0.5509  2.0017 -1.2883
   84MOL    H2446670   4.208   1.587   6.362  1.5238 -0.1501 -2.5440
   84MOL    H2546671   4.317   1.721   6.318  1.7436 -1.6386  1.7711
   84MOL    H2646672   4.365   2.182   6.190  0.4701 -1.6664  0.6720
   84MOL    H2746673   4.488   2.408   6.189  2.1745  1.9364  1.3708
   84MOL    H2846674   4.527   2.620   6.286 -0.3254  1.0145 -0.3605
   84MOL    H2946675   4.511   2.880   6.512  0.9150 -0.6665  0.6122
   84MOL    O3046676   4.460   1.785   6.516 -0.2478  0.4955  0.0423
   84MOL    C3146677   4.359   1.750   6.576  0.3867 -0.2848 -0.1766
   84MOL    O3246678   4.251   1.690   6.522 -0.3486 -0.0426  0.5421
   84MOL    C3346679   4.339   1.760   6.724  0.0954 -0.0187  0.5815
   84MOL    C3446680   4.437   1.822   6.802  0.3217  0.4152  0.7501
   84MOL    C3546681   4.420   1.811   6.943 -0.3337 -0.5462 -0.1872
   84MOL    C3646682   4.510   1.870   7.033 -0.4795 -1.0093  0.1631
   84MOL    C3746683   4.500   1.863   7.175  0.0229  0.1425 -0.0464
   84MOL    C3846684   4.385   1.802   7.231 -0.0325  0.3088 -0.7301
   84MOL    C3946685   4.368   1.788   7.381 -0.7013 -0.1365  0.1291
   84MOL    O4046686   4.473   1.833   7.442 -0.4249  0.0877 -0.3278
   84MOL    C4146687   4.467   1.880   7.576  0.3838  0.2717 -0.3639
   84MOL    C4246688   4.489   2.027   7.567  0.3315 -0.1801  0.1501
   84MOL    O4346689   4.264   1.767   7.442 -0.3368 -0.3641  0.0657
   84MOL    C4446690   4.278   1.757   7.143 -0.1843  0.3623  0.0631
   84MOL    C4546691   4.297   1.757   7.001 -1.0110  0.0628  0.0976
   84MOL    C4646692   4.205   1.699   6.914  0.2301 -0.2216 -0.6326
   84MOL    C4746693   4.228   1.698   6.776 -0.1864 -0.5016 -0.2600
   84MOL    H4846694   4.519   1.880   6.761 -0.0148 -0.4880 -1.2446
   84MOL    H4946695   4.603   1.913   6.997 -1.4880  0.2806 -0.9838
   84MOL    H5046696   4.578   1.897   7.242 -1.9399  3.5676  0.5736
   84MOL    H5146697   4.539   1.826   7.637 -3.4052 -2.0842  2.2682
   84MOL    H5246698   4.376   1.848   7.628  0.8054 -0.2113  0.0872
   84MOL    H5346699   4.474   2.065   7.466  0.8883  0.3515  0.2612
   84MOL    H5446700   4.427   2.089   7.632  1.6411  0.8211  0.4771
   84MOL    H5546701   4.191   1.713   7.189 -0.5403  2.4920  1.5208
   84MOL    H5646702   4.114   1.657   6.955 -1.0108  0.8633 -2.2146
   84MOL    H5746703   4.160   1.645   6.711 -1.4244  1.5111 -0.6666
   84MOL    O5846704   4.603   2.279   7.615 -0.8585  0.2400  0.1493
   84MOL    C5946705   4.675   2.179   7.605  0.0726  0.0249 -0.7823
   84MOL    O6046706   4.628   2.053   7.599  0.5547  0.1240 -0.9891
   84MOL    C6146707   4.817   2.186   7.590 -0.5382 -0.7564  0.0339
   84MOL    C6246708   4.874   2.314   7.561  0.3452 -0.0579  0.0537
   84MOL    C6346709   5.011   2.336   7.543 -0.1984  0.4838  0.6244
   84MOL    C6446710   5.060   2.461   7.507 -0.2588 -0.4555  0.2960
   84MOL    C6546711   5.206   2.479   7.497 -0.3409 -0.2591 -0.3245
   84MOL    C6646712   5.296   2.376   7.523  0.2864 -0.4393  0.0340
   84MOL    C6746713   5.439   2.412   7.527 -0.5046  0.5535 -0.2900
   84MOL    O6846714   5.515   2.323   7.597  0.6758 -0.0868  0.0011
   84MOL    C6946715   5.646   2.356   7.638 -0.3662 -0.2720 -0.2599
   84MOL    C7046716   5.746   2.395   7.532 -0.5931  0.2100 -0.7102
   84MOL    O7146717   5.485   2.517   7.480  0.4850 -0.1924  0.5001
   84MOL    C7246718   5.243   2.247   7.552 -0.4519 -0.3790 -0.7109
   84MOL    C7346719   5.102   2.229   7.559 -0.6170  0.2588 -0.5656
   84MOL    C7446720   5.051   2.103   7.600 -0.2795  0.9410  0.1095
   84MOL    C7546721   4.912   2.082   7.608  0.1095 -0.4937 -0.5560
   84MOL    H7646722   4.806   2.397   7.553  0.4822 -0.0875 -1.5564
   84MOL    H7746723   4.996   2.546   7.485 -0.4112 -1.1190 -1.9304
   84MOL    H7846724   5.242   2.576   7.466  0.1982 -0.4902 -0.4142
   84MOL    H7946725   5.675   2.264   7.689 -0.9370 -1.2064 -1.5647
   84MOL    H8046726   5.634   2.430   7.717  1.0321 -0.0231 -0.2731
   84MOL    H8146727   5.732   2.503   7.518  0.6652  0.5785  0.7105
   84MOL    H8246728   5.844   2.386   7.579 -0.8118  0.1448 -0.2666
   84MOL    H8346729   5.311   2.170   7.584  0.4654 -0.2307 -2.2667
   84MOL    H8446730   5.118   2.019   7.609 -1.0564  0.0936 -1.7659
   84MOL    H8546731   4.877   1.982   7.631 -0.8888 -0.5431 -2.2382
   84MOL    O8646732   5.852   2.137   7.508 -0.6505  0.0654  0.1866
   84MOL    C8746733   5.795   2.189   7.408 -0.0639  0.0379 -0.0826
   84MOL    O8846734   5.729   2.312   7.413  0.3043  0.1543  0.3819
   84MOL    C8946735   5.786   2.124   7.275 -0.6274 -0.0326 -0.3656
   84MOL    C9046736   5.713   2.004   7.263 -0.5125  1.1508 -0.5228
   84MOL    C9146737   5.686   1.951   7.139 -0.1593 -0.0942  0.5002
   84MOL    C9246738   5.592   1.844   7.117  0.0382  0.3563  0.2872
   84MOL    C9346739   5.563   1.796   6.988  0.6283  0.1368  0.4347
   84MOL    C9446740   5.629   1.854   6.878 -0.5200 -0.0897  0.3798
   84MOL    C9546741   5.620   1.797   6.747 -0.7243 -0.2887 -0.2697
   84MOL    O9646742   5.648   1.883   6.656 -0.0278  0.0949  0.8366
   84MOL    C9746743   5.653   1.838   6.525 -0.8180  0.1041  0.5783
   84MOL    C9846744   5.694   1.962   6.432 -0.1512 -0.2971 -0.0841
   84MOL    O9946745   5.578   1.681   6.727  0.2553  0.4378  0.0292
   84MOL   C10046746   5.722   1.958   6.901 -0.4073 -0.8540 -0.7041
   84MOL   C10146747   5.752   2.008   7.028 -0.0948  0.3503  0.0383
   84MOL   C10246748   5.839   2.117   7.040 -0.5774  0.2770  0.0051
   84MOL   C10346749   5.852   2.180   7.161 -0.7188 -0.1774 -0.3956
   84MOL   H10446750   5.667   1.960   7.350 -0.9134 -2.3298 -2.4500
   84MOL   H10546751   5.540   1.804   7.203  0.8466 -2.7246 -0.5943
   84MOL   H10646752   5.498   1.709   6.978 -1.8123  1.7791  1.3778
   84MOL   H10746753   5.562   1.786   6.497  0.1258 -1.0707 -0.3888
   84MOL   H10846754   5.738   1.769   6.520  1.2303  2.5580  0.1425
   84MOL   H10946755   5.605   1.998   6.379  2.4196  0.1856 -4.2788
   84MOL   H11046756   5.732   2.052   6.480 -0.6595  1.5745 -3.0222
   84MOL   H11146757   5.771   2.007   6.819  2.5602 -1.3676  0.6933
   84MOL   H11246758   5.884   2.155   6.950  0.2075  0.4347  0.4625
   84MOL   H11346759   5.912   2.270   7.169 -0.8516  0.0367 -1.6849
   84MOL   O11446760   5.949   1.858   6.453 -0.4160  0.2402  0.3345
   84MOL   C11546761   5.898   1.872   6.337  0.0771  0.6065 -0.5193
   84MOL   O11646762   5.773   1.923   6.324  0.3340 -0.4531  0.0993
   84MOL   C11746763   5.964   1.856   6.211 -0.2007  0.1630 -1.0586
   84MOL   C11846764   6.105   1.829   6.201  0.7733  0.5019 -0.0755
   84MOL   C11946765   6.162   1.817   6.072 -0.2119  0.9656  0.3844
   84MOL   C12046766   6.304   1.786   6.053 -0.3990 -0.4186  0.2058
   84MOL   C12146767   6.357   1.779   5.927 -0.8425 -0.4967  0.2787
   84MOL   C12246768   6.278   1.795   5.810 -0.0541  0.1564  0.0689
   84MOL   C12346769   6.338   1.800   5.676  0.3776  0.1879  0.5323
   84MOL   O12446770   6.253   1.778   5.570 -0.0382  0.0995  0.7570
   84MOL   C12546771   6.313   1.797   5.444 -0.1329 -0.1232 -0.4091
   84MOL   C12646772   6.359   1.651   5.387  0.1607 -0.4717  0.2767
   84MOL   O12746773   6.454   1.830   5.662 -0.4160  0.1067 -0.0532
   84MOL   C12846774   6.139   1.812   5.829 -0.0548 -0.8404 -0.0976
   84MOL   C12946775   6.081   1.827   5.957  0.3969  0.1279  0.2031
   84MOL   C13046776   5.946   1.858   5.971 -0.3850 -0.2319  0.1438
   84MOL   C13146777   5.889   1.867   6.096  0.1338  0.2812  0.9990
   84MOL   H13246778   6.171   1.815   6.286  0.4320 -1.5782 -0.1169
   84MOL   H13346779   6.358   1.763   6.143  1.5509 -1.3138 -1.1602
   84MOL   H13446780   6.462   1.759   5.911 -1.3331 -2.7006 -0.4144
   84MOL   H13546781   6.399   1.863   5.444  0.5432 -0.9779  1.1701
   84MOL   H13646782   6.238   1.845   5.382 -0.1685 -1.2897 -1.3058
   84MOL   H13746783   6.269   1.589   5.386  0.2796 -0.6611  1.1389
   84MOL   H13846784   6.396   1.685   5.290  0.5090 -2.4608 -0.3046
   84MOL   H13946785   6.080   1.810   5.739  1.8201  0.3768 -1.3940
   84MOL   H14046786   5.885   1.876   5.883 -1.5614  0.6486  1.1255
   84MOL   H14146787   5.781   1.874   6.099 -0.0547 -2.4733  2.0507
   84MOL   O14246788   6.389   1.406   5.519  0.0509 -0.4706  0.2840
   84MOL   C14346789   6.475   1.493   5.518  0.8622 -0.1463 -0.8477
   84MOL   O14446790   6.472   1.608   5.455  0.1725 -0.3681 -0.2176
   84MOL   C14546791   6.596   1.474   5.601 -0.1470 -0.3935  0.7783
   84MOL   C14646792   6.596   1.398   5.722  0.2507  0.0950  1.0821
   84MOL   C14746793   6.713   1.367   5.790  0.0482  0.7788  0.1811
   84MOL   C14846794   6.706   1.287   5.906 -0.5815  0.3845 -0.0417
   84MOL   C14946795   6.820   1.242   5.976  0.2102 -0.0866  0.1626
   84MOL   C15046796   6.947   1.295   5.933 -0.3453 -0.6303 -0.5883
   84MOL   C15146797   7.067   1.276   6.011 -0.6343 -0.6672 -0.3469
   84MOL   O15246798   7.041   1.205   6.119  0.0515  0.0233 -0.1283
   84MOL   C15346799   7.136   1.168   6.216 -0.1048  0.4404  0.1372
   84MOL   C15446800   7.202   1.030   6.193  0.5941 -0.6445  0.6313
   84MOL   O15546801   7.181   1.320   5.979 -0.1858  0.1459 -0.2047
   84MOL   C15646802   6.955   1.381   5.819 -0.4006 -0.2438 -0.9670
   84MOL   C15746803   6.834   1.421   5.750  0.2798  0.5249 -0.1668
   84MOL   C15846804   6.837   1.490   5.624 -0.3174 -0.5174 -0.0106
   84MOL   C15946805   6.717   1.522   5.557 -0.7432  0.1442  0.0730
   84MOL   H16046806   6.502   1.366   5.766 -0.3195  0.6407  0.2814
   84MOL   H16146807   6.610   1.252   5.940 -0.3859  0.4033  0.5347
   84MOL   H16246808   6.810   1.182   6.065  0.8585  1.5013  1.3331
   84MOL   H16346809   7.071   1.158   6.303  2.1552 -0.1261  1.8224
   84MOL   H16446810   7.196   1.259   6.227 -1.7478  1.3777  1.6489
   84MOL   H16546811   7.236   1.006   6.294 -0.3501 -1.6643  0.7173
   84MOL   H16646812   7.133   0.955   6.155 -1.1567  1.0808  0.3645
   84MOL   H16746813   7.041   1.440   5.792 -1.0292  0.3934 -1.5751
   84MOL   H16846814   6.933   1.518   5.584  0.0530 -0.9436  0.5762
   84MOL   H16946815   6.730   1.568   5.460  0.3141  0.7453  0.4972
   84MOL   O17046816   7.228   0.968   5.936  0.4855 -0.0357  0.2835
   84MOL   C17146817   7.316   1.034   5.989  0.2881  0.0360  0.5100
   84MOL   O17246818   7.314   1.057   6.116 -0.2006  0.0804  0.1736
   84MOL   C17346819   7.444   1.073   5.921  0.7508 -1.4379  0.4916
   84MOL   C17446820   7.512   1.189   5.963 -0.1303 -0.1907 -0.0564
   84MOL   C17546821   7.622   1.234   5.890  0.2409 -0.2736 -0.3523
   84MOL   C17646822   7.675   1.362   5.915 -0.2174 -0.0099  1.0666
   84MOL   C17746823   7.779   1.404   5.823 -0.3716  0.1832 -0.7467
   84MOL   C17846824   7.830   1.330   5.715  0.5109  0.0892  0.4888
   84MOL   C17946825   7.918   1.387   5.604  0.6289 -0.4087 -0.7621
   84MOL   O18046826   7.894   1.329   5.486  0.4124 -0.1563 -0.4582
   84MOL   C18146827   7.958   1.385   5.369  0.4357  1.1214 -0.4349
   84MOL   C18246828   7.943   1.295   5.244  0.4926 -0.4420  0.0718
   84MOL   O18346829   7.994   1.483   5.615  0.1715  0.1414 -0.4942
   84MOL   C18446830   7.783   1.201   5.707 -0.7050 -0.3545 -0.5067
   84MOL   C18546831   7.673   1.156   5.784  0.6378 -0.2846 -0.1862
   84MOL   C18646832   7.611   1.030   5.753 -0.0218  0.0603 -0.2251
   84MOL   C18746833   7.489   1.000   5.811 -0.5604 -0.7901 -0.0301
   84MOL   H18846834   7.459   1.251   6.035 -0.1239 -0.7755  0.4585
   84MOL   H18946835   7.639   1.437   5.984  0.1716  3.2662 -2.1517
   84MOL   H19046836   7.817   1.504   5.837 -1.8053  0.5249  0.8801
   84MOL   H19146837   8.064   1.400   5.389 -0.3122  2.6038  2.7220
   84MOL   H19246838   7.925   1.486   5.345  0.9888  1.2782 -0.5171
   84MOL   H19346839   7.984   1.338   5.153  0.9446 -1.0342 -0.0092
   84MOL   H19446840   7.977   1.194   5.266  0.1323 -0.4351  0.6757
   84MOL   H19546841   7.811   1.140   5.623 -1.1115  1.0948 -1.7356
   84MOL   H19646842   7.651   0.962   5.680  0.3485 -0.8586  0.8350
   84MOL   H19746843   7.437   0.908   5.787 -0.3851 -0.7981 -0.3762
   84MOL   O19846844   7.778   1.072   5.278  0.4599 -0.4505 -0.0030
   84MOL   C19946845   7.740   1.176   5.222 -0.0154 -0.1134 -0.1203
   84MOL   O20046846   7.807   1.296   5.217 -0.2402 -0.2026  0.3269
   84MOL   C20146847   7.602   1.194   5.188  0.1069 -0.0249 -0.4606
   84MOL   C20246848   7.521   1.081   5.177 -0.5875 -1.0135  0.5425
   84MOL   C20346849   7.386   1.092   5.145 -0.7471  0.2228  0.4665
   84MOL   C20446850   7.306   0.978   5.135  0.0015 -0.4210  0.1291
   84MOL   C20546851   7.169   0.983   5.106 -0.3027 -0.3051  0.3950
   84MOL   C20646852   7.110   1.109   5.074  0.1053 -0.3286 -0.1909
   84MOL   C20746853   6.973   1.121   5.016  0.3874 -0.1154 -0.2758
   84MOL   O20846854   6.925   0.996   4.995 -0.1122 -0.0057 -0.2495
   84MOL   C20946855   6.800   0.967   4.935  0.1561 -0.1735  0.2069
   84MOL   C21046856   6.681   1.001   5.021  0.2647  0.7332  0.3212
   84MOL   O21146857   6.917   1.226   4.986 -0.0384 -0.2259  0.2751
   84MOL   C21246858   7.188   1.227   5.082  0.3093  0.2177 -0.3717
   84MOL   C21346859   7.323   1.217   5.121  0.5854  0.7981  0.6256
   84MOL   C21446860   7.405   1.334   5.126  0.4513  0.6615  0.0355
   84MOL   C21546861   7.541   1.317   5.163 -0.1002 -0.3898  0.1488
   84MOL   H21646862   7.572   0.987   5.195 -0.4747 -1.1563 -0.4807
   84MOL   H21746863   7.346   0.878   5.147  1.7806  0.0643 -1.4466
   84MOL   H21846864   7.118   0.888   5.096 -0.4328 -0.0344 -1.7237
   84MOL   H21946865   6.806   0.859   4.926  0.3915 -0.1333 -0.1173
   84MOL   H22046866   6.785   1.016   4.839 -0.4880  0.8614  0.8133
   84MOL   H22146867   6.693   0.972   5.126 -3.4498  0.5136  0.7314
   84MOL   H22246868   6.663   1.108   5.024 -0.3411  0.6006  1.6891
   84MOL   H22346869   7.152   1.326   5.055  0.8556  0.1423 -1.3897
   84MOL   H22446870   7.358   1.431   5.122  0.9290  0.8634 -0.6800
   84MOL   H22546871   7.604   1.404   5.176 -0.4286 -0.3717  1.6657
   84MOL   O22646872   6.521   1.093   4.822  0.4283  0.1443 -0.2449
   84MOL   C22746873   6.501   0.978   4.871 -0.4670  0.8032  0.1308
   84MOL   O22846874   6.565   0.935   4.981  0.0195 -0.6095  0.3796
   84MOL   C22946875   6.406   0.874   4.821 -0.0293 -0.1051 -0.5896
   84MOL   C23046876   6.282   0.922   4.761 -0.7292 -0.1950 -0.5817
   84MOL   C23146877   6.190   0.818   4.723 -0.1514  0.1506  0.5601
   84MOL   C23246878   6.080   0.859   4.654 -0.2040  0.0954 -0.0422
   84MOL   C23346879   5.983   0.769   4.614 -0.1051 -0.2283 -0.4708
   84MOL   C23446880   6.005   0.631   4.633 -0.3972 -0.2143  0.5032
   84MOL   C23546881   5.904   0.531   4.583  0.4997 -0.9036  0.0701
   84MOL   O23646882   5.951   0.412   4.566 -0.7834 -0.1238  0.2980
   84MOL   C23746883   5.859   0.305   4.527  0.1732  0.2218 -0.5502
   84MOL   C23846884   5.939   0.169   4.545  0.2006  0.4164  0.1749
   84MOL   O23946885   5.788   0.561   4.560  0.4465 -0.3087 -0.5943
   84MOL   C24046886   6.126   0.590   4.695  0.7458  0.0009 -0.0591
   84MOL   C24146887   6.218   0.686   4.739  0.5458  0.1943  0.1071
   84MOL   C24246888   6.346   0.641   4.786 -0.2506  0.3873 -0.6341
   84MOL   C24346889   6.439   0.735   4.830  0.1743  0.5017 -0.0384
   84MOL   H24446890   6.259   1.027   4.748 -4.1865 -0.8668 -0.5737
   84MOL   H24546891   6.070   0.961   4.618 -0.1981  0.1527  0.1176
   84MOL   H24646892   5.893   0.798   4.561  0.5897  0.5934 -1.2139
   84MOL   H24746893   5.833   0.312   4.422 -1.1359 -0.6442 -0.2992
   84MOL   H24846894   5.768   0.313   4.585  0.7513  0.8737  0.2833
   84MOL   H24946895   5.871   0.088   4.522  0.7168 -0.5889  2.0786
   84MOL   H25046896   6.021   0.165   4.473  0.3465  2.0114  0.2274
   84MOL   H25146897   6.152   0.486   4.714 -1.8620  0.0492  4.4775
   84MOL   H25246898   6.366   0.536   4.801 -0.8295  0.2210 -0.9762
   84MOL   H25346899   6.540   0.699   4.847  1.6096  3.4360 -1.8474
   84MOL   O25446900   6.180   0.237   4.650 -0.2093 -0.3152 -0.6805
   84MOL   C25546901   6.093   0.178   4.723 -0.3351  0.0025  0.0271
   84MOL   O25646902   5.971   0.135   4.677 -0.1871  0.5826 -0.1272
   84MOL   C25746903   6.110   0.163   4.870 -0.0711 -0.1324 -0.5991
   84MOL   C25846904   6.157   0.272   4.952  0.3531 -0.0513 -0.6190
   84MOL   C25946905   6.179   0.245   5.089 -0.8161  0.2421  0.2154
   84MOL   C26046906   6.216   0.356   5.169  0.2459 -0.4710  0.6767
   84MOL   C26146907   6.250   0.332   5.302  0.5328 -0.3025  0.4076
   84MOL   C26246908   6.250   0.200   5.354 -0.0296 -0.0997 -0.1188
   84MOL   C26346909   6.311   0.171   5.493  0.4818  0.9078  1.0064
   84MOL   O26446910   6.330   0.042   5.512  0.2275  0.2130  0.0883
   84MOL   C26546911   6.387   8.245   5.631  0.4176 -0.5940 -0.0823
   84MOL   C26646912   6.381   8.091   5.623 -0.2279  0.4321  0.0151
   84MOL   O26746913   6.332   0.258   5.578  0.2644 -0.2645 -0.0415
   84MOL   C26846914   6.208   0.091   5.271  0.1674 -0.3459  0.4768
   84MOL   C26946915   6.171   0.117   5.141  0.4088  0.1352 -0.1895
   84MOL   C27046916   6.110   0.020   5.066 -0.0415  0.4213  0.3232
   84MOL   C27146917   6.082   0.039   4.928 -0.3885  0.1616  0.5966
   84MOL   H27246918   6.165   0.375   4.921  2.6171 -0.2946 -0.9240
   84MOL   H27346919   6.210   0.456   5.129  1.1052 -0.1738  1.2925
   84MOL   H27446920   6.285   0.413   5.364  0.1327  1.0240 -1.0441
   84MOL   H27546921   6.328   0.032   5.716  2.6751  0.2651  1.1768
   84MOL   H27646922   6.493   0.021   5.629  0.1634  0.4768 -1.0048
   84MOL   H27746923   6.438   8.044   5.703 -1.1790 -2.4587 -0.9414
   84MOL   H27846924   6.280   8.064   5.654 -0.3150 -0.3025 -0.9067
   84MOL   H27946925   6.215   8.244   5.319  2.6115 -1.2393 -1.5434
   84MOL   H28046926   6.093   8.173   5.112 -0.2695 -0.1513 -0.9261
   84MOL   H28146927   6.032   8.209   4.874 -0.5821  0.3881  0.4453
   84MOL   O28246928   6.314   7.836   5.546 -0.3494  0.1295  0.1789
   84MOL   C28346929   6.373   7.910   5.467 -0.3716 -0.5305 -0.2229
   84MOL   O28446930   6.416   8.036   5.496  0.4071 -0.3329 -0.1530
   84MOL   C28546931   6.406   7.866   5.330 -0.4028  0.3504 -0.6755
   84MOL   C28646932   6.450   7.955   5.227 -0.1137  0.6194  0.6560
   84MOL   C28746933   6.491   7.900   5.097  0.2586  0.4370 -0.6694
   84MOL   C28846934   6.534   7.977   4.991  0.7965  0.1853  0.0280
   84MOL   C28946935   6.574   7.916   4.864  0.0998 -0.0856  0.2208
   84MOL   C29046936   6.573   7.776   4.851  0.1296  0.0082 -0.0745
   84MOL   C29146937   6.619   7.702   4.727 -0.1965  0.2296  0.3236
   84MOL   O29246938   6.564   7.581   4.713 -0.4195  0.3345  0.1696
   84MOL   C29346939   6.595   7.496   4.603 -0.0907  0.3382 -0.4018
   84MOL   C29446940   6.718   7.406   4.621 -0.5298  0.5898  0.8473
   84MOL   O29546941   6.696   7.754   4.650  0.1099 -0.3867 -0.2878
   84MOL   C29646942   6.518   7.701   4.954 -0.1040 -0.3243 -0.0630
   84MOL   C29746943   6.481   7.761   5.074  0.2191  0.2973 -0.0031
   84MOL   C29846944   6.433   7.676   5.174 -0.0809  0.2831  0.2426
   84MOL   C29946945   6.391   7.727   5.299  0.6142 -0.0380  0.5817
   84MOL   H30046946   6.460   8.061   5.249 -0.2694  0.6982  0.3462
   84MOL   H30146947   6.550   8.083   4.998  1.8730 -0.0112  0.6745
   84MOL   H30246948   6.613   7.973   4.781  0.4987 -1.1227 -0.3148
   84MOL   H30346949   6.625   7.555   4.516 -1.2173 -1.3160 -1.9761
   84MOL   H30446950   6.506   7.441   4.571  0.9349 -0.9911 -1.0098
   84MOL   H30546951   6.727   7.337   4.537 -1.5787 -1.0532  2.0708
   84MOL   H30646952   6.812   7.461   4.622 -0.7648  0.9932  2.6080
   84MOL   H30746953   6.519   7.593   4.955  1.6649 -0.3151  0.6085
   84MOL   H30846954   6.433   7.568   5.164  1.3750  0.1173  1.6792
   84MOL   H30946955   6.353   7.661   5.375 -1.5182 -0.6780 -1.0157
   84MOL   O31046956   6.563   7.200   4.675 -0.0837  0.0442 -0.0701
   84MOL   C31146957   6.620   7.247   4.768 -0.2235  0.6808 -0.1094
   84MOL   O31246958   6.716   7.341   4.746  0.0137  0.1325 -0.5288
   84MOL   C31346959   6.577   7.239   4.905  0.2594  0.1822 -0.4025
   84MOL   C31446960   6.639   7.297   5.020  0.3927  0.5964 -0.2500
   84MOL   C31546961   6.586   7.287   5.151 -0.1169  0.1565 -0.3441
   84MOL   C31646962   6.645   7.350   5.261 -0.4049  0.4351  0.4169
   84MOL   C31746963   6.593   7.345   5.392 -1.0001 -0.8383 -0.2479
   84MOL   C31846964   6.476   7.270   5.409 -0.1787 -0.3690  0.2849
   84MOL   C31946965   6.416   7.256   5.546  0.2355 -0.1099 -1.2327
   84MOL   O32046966   6.450   7.347   5.630 -0.1193  0.2070  0.1007
   84MOL   C32146967   6.418   7.336   5.769  0.1605  0.9248 -0.0927
   84MOL   C32246968   6.276   7.383   5.802 -0.2479  0.1116  0.5193
   84MOL   O32346969   6.337   7.165   5.574  0.3420  0.1730  0.2830
   84MOL   C32446970   6.416   7.200   5.301  0.4481  0.0976 -0.2678
   84MOL   C32546971   6.472   7.205   5.170  0.5252  0.3521 -0.2616
   84MOL   C32646972   6.404   7.151   5.061 -0.0604 -0.4213  0.3106
   84MOL   C32746973   6.453   7.174   4.930  0.5626 -0.1343  0.1535
   84MOL   H32846974   6.720   7.367   5.006 -0.2612  1.7200  1.4069
   84MOL   H32946975   6.729   7.412   5.234 -0.7346  0.7605  0.1359
   84MOL   H33046976   6.630   7.407   5.472 -1.8908 -1.8321  0.9460
   84MOL   H33146977   6.491   7.408   5.807  1.2989 -0.4779  0.4292
   84MOL   H33246978   6.442   7.238   5.808  0.9906  0.6750 -1.2152
   84MOL   H33346979   6.260   7.486   5.771  0.4536  0.2731  0.6842
   84MOL   H33446980   6.203   7.317   5.756 -1.0692  1.1466  0.3053
   84MOL   H33546981   6.335   7.131   5.319 -0.4184  1.2341  0.2339
   84MOL   H33646982   6.302   7.119   5.078 -0.5595 -0.2539 -2.2743
   84MOL   H33746983   6.398   7.129   4.849  0.5325 -0.2759  0.2520
   84MOL   O33846984   6.060   7.451   5.972  0.4811  0.1389  0.1601
   84MOL   C33946985   6.168   7.413   6.015 -0.2218  0.1298  0.3191
   84MOL   O34046986   6.272   7.376   5.944 -0.2963 -0.2663  0.4272
   84MOL   C34146987   6.195   7.428   6.163  0.0982 -0.1888 -0.5373
   84MOL   C34246988   6.316   7.379   6.211  1.2742 -0.7571 -0.1235
   84MOL   C34346989   6.343   7.377   6.355 -0.4918  0.6361 -0.1508
   84MOL   C34446990   6.472   7.332   6.401  0.2859 -0.0609  0.1694
   84MOL   C34546991   6.492   7.337   6.542 -0.5134 -0.4252  0.3891
   84MOL   C34646992   6.389   7.377   6.634 -0.5488 -0.4447 -0.4240
   84MOL   C34746993   6.410   7.366   6.778 -0.3156 -0.3257 -0.1199
   84MOL   O34846994   6.528   7.309   6.809 -0.1711 -0.5636 -0.3436
   84MOL   C34946995   6.578   7.283   6.944  0.8213  0.2605  0.5951
   84MOL   C35046996   6.538   7.148   7.005 -0.0314 -0.3305 -0.4865
   84MOL   O35146997   6.327   7.411   6.857 -0.0107 -0.6839 -0.0980
   84MOL   C35246998   6.272   7.440   6.581 -0.0248 -0.0234  0.0074
   84MOL   C35346999   6.246   7.425   6.445  0.4292  0.2357  0.0919
   84MOL   C35447000   6.127   7.482   6.388  0.2911  0.7565  0.3207
   84MOL   C35547001   6.096   7.478   6.253  0.9534 -0.7748 -0.0241
   84MOL   H35647002   6.389   7.336   6.144 -0.6710 -0.2740 -2.6424
   84MOL   H35747003   6.550   7.300   6.334 -0.0372  1.5770 -1.0312
   84MOL   H35847004   6.583   7.293   6.580  0.0701  0.9484  0.6288
   84MOL   H35947005   6.547   7.362   7.013  1.9008  1.8954 -0.7448
   84MOL   H36047006   6.686   7.271   6.935  0.6200 -2.0204  0.9345
   84MOL   H36147007   6.445   7.110   6.964  1.1087 -1.0772 -2.4426
   84MOL   H36247008   6.614   7.075   6.978 -0.4530 -0.4007 -1.5240
   84MOL   H36347009   6.195   7.465   6.653 -0.7726  1.7259 -1.3696
   84MOL   H36447010   6.052   7.532   6.448 -0.8428 -1.5523  0.9099
   84MOL   H36547011   5.999   7.518   6.224  0.4391  0.5443  3.2916
   84MOL   O36647012   6.312   7.238   7.139 -0.1461  0.6313 -0.2361
   84MOL   C36747013   6.413   7.205   7.201  0.7671 -0.2586  0.1158
   84MOL   O36847014   6.524   7.164   7.147 -0.0805  0.0103  0.5685
   84MOL   C36947015   6.424   7.222   7.344 -0.4607 -1.0596 -0.6557
   84MOL   C37047016   6.306   7.252   7.412 -0.0694  0.2296 -0.5256
   84MOL   C37147017   6.290   7.268   7.550  0.6499  0.3241 -0.9044
   84MOL   C37247018   6.162   7.282   7.610  0.7358 -0.1229 -0.3302
   84MOL   C37347019   6.158   7.285   7.755 -0.3663  0.2703 -0.4513
   84MOL   C37447020   6.279   7.294   7.833  0.2533 -0.3872 -0.4299
   84MOL   C37547021   6.276   7.335   7.971 -0.0080 -0.0185  0.0969
   84MOL   O37647022   6.174   7.281   8.040 -0.2513  0.1859 -0.0921
   84MOL   C37747023   6.158   7.307   8.179  0.3921  0.1030  0.6898
   84MOL   C37847024   6.080   7.437   8.179  0.2009 -0.0349 -0.6088
   84MOL   O37947025   6.362   7.400   8.028  0.2893 -0.1734  0.8840
   84MOL   C38047026   6.402   7.298   7.765 -0.3173  0.6443  0.0462
   84MOL   C38147027   6.404   7.270   7.626 -0.0899 -0.4401 -0.2371
   84MOL   C38247028   6.538   7.253   7.566 -0.2741  0.3162  0.3324
   84MOL   C38347029   6.542   7.223   7.424 -0.7800  0.2842 -0.2697
   84MOL   H38447030   6.213   7.255   7.356 -0.6879  0.8469  0.4970
   84MOL   H38547031   6.073   7.267   7.551  0.0399  0.7017  0.4903
   84MOL   H38647032   6.067   7.286   7.815 -1.1740 -1.7441 -1.5899
   84MOL   H38747033   6.254   7.320   8.227  0.5154  0.0437  0.4583
   84MOL   H38847034   6.101   7.228   8.229 -0.7854  1.1726  1.0860
   84MOL   H38947035   6.091   7.465   0.035 -2.7331  0.7247 -0.4463
   84MOL   H39047036   6.112   7.516   8.110  2.5886  1.8890  2.5658
   84MOL   H39147037   6.494   7.322   7.815 -0.4620  1.3273 -0.0139
   84MOL   H39247038   6.633   7.257   7.617  0.4771  0.0290 -1.0222
   84MOL   H39347039   6.638   7.204   7.379 -0.9682 -0.0725 -0.5197
   84MOL   O39447040   5.856   7.585   0.029 -0.9096 -0.2800  0.5686
   84MOL   C39547041   5.843   7.474   8.222  0.2791 -0.1438  0.4346
   84MOL   O39647042   5.938   7.403   8.165 -0.0808 -0.1118  0.5296
   84MOL   C39747043   5.712   7.407   8.205 -0.0568  0.5248 -0.0947
   84MOL   C39847044   5.594   7.471   0.003 -0.5109  0.2732 -0.5875
   84MOL   C39947045   5.470   7.417   8.221 -0.5273 -0.6144 -1.0160
   84MOL   C40047046   5.354   7.483   0.022  0.3399  0.0629  0.1024
   84MOL   C40147047   5.218   7.434   8.244 -0.5293  0.7080  0.4640
   84MOL   C40247048   5.204   7.324   8.157  0.0595  0.8064  0.0695
   84MOL   C40347049   5.074   7.272   8.104  0.3429 -0.1620  0.4669
   84MOL   O40447050   4.969   7.328   8.155 -0.4336 -0.4306  0.0529
   84MOL   C40547051   4.833   7.306   8.113  0.6753 -1.0572  0.2655
   84MOL   C40647052   4.784   7.159   8.114  0.4316 -0.4145  0.3631
   84MOL   O40747053   5.064   7.205   8.001  0.1528 -0.2334 -0.0877
   84MOL   C40847054   5.326   7.255   8.121  0.2292 -0.5383 -0.6196
   84MOL   C40947055   5.455   7.298   8.152  0.1990  0.2194  0.1859
   84MOL   C41047056   5.566   7.219   8.120 -0.2761 -1.0822  0.4655
   84MOL   C41147057   5.696   7.278   8.146 -0.1055  0.1479 -0.5554
   84MOL   H41247058   5.591   7.568   0.051 -1.0169 -0.1816  0.3257
   84MOL   H41347059   5.380   7.571   0.079  1.2853  0.5509 -1.0433
   84MOL   H41447060   5.143   7.497   0.040  0.6020  1.4984  1.2956
   84MOL   H41547061   4.826   7.351   8.014  0.0194 -0.4789  0.5724
   84MOL   H41647062   4.762   7.356   8.178 -1.6586 -2.2132 -1.3344
   84MOL   H41747063   4.860   7.086   8.144  2.6251  1.6301 -0.1276
   84MOL   H41847064   4.703   7.155   8.187  0.5420  0.3999  0.5286
   84MOL   H41947065   5.309   7.166   8.062 -1.9290 -0.4844 -0.1330
   84MOL   H42047066   5.553   7.121   8.076  0.1154 -0.4603 -1.0796
   84MOL   H42147067   5.781   7.222   8.110  1.1555  0.6168  1.6371
   84MOL   O42247068   4.535   7.219   8.025  0.0510  0.1954  0.4739
   84MOL   C42347069   4.614   7.149   7.958 -0.4238  0.5134 -0.4166
   84MOL   O42447070   4.741   7.124   7.991 -0.2239 -0.5484 -0.6941
   84MOL   C42547071   4.586   7.095   7.823 -0.1660 -0.5565  0.7469
   84MOL   C42647072   4.452   7.100   7.781 -0.3752 -0.8904  0.1857
   84MOL   C42747073   4.425   7.067   7.647  0.5950 -0.0466  0.3505
   84MOL   C42847074   4.285   7.076   7.602 -0.1129  0.3045  0.0536
   84MOL   C42947075   4.261   7.046   7.464  0.2791 -0.4684  0.4358
   84MOL   C43047076   4.365   7.016   7.376 -0.1823 -0.3629  0.0907
   84MOL   C43147077   4.334   6.997   7.234  0.0258  0.0275 -0.3713
   84MOL   O43247078   4.200   6.999   7.205  0.4111 -0.1422 -0.7373
   84MOL   C43347079   4.157   6.979   7.068 -0.6841 -0.7141  0.1162
   84MOL   C43447080   4.146   6.824   7.041  0.0019 -0.0998 -0.5330
   84MOL   O43547081   4.420   6.977   7.146  0.3852  0.4625 -0.1590
   84MOL   C43647082   4.501   7.002   7.417  0.1245  0.3378  0.3571
   84MOL   C43747083   4.527   7.033   7.555  0.1391  0.4471  0.2298
   84MOL   C43847084   4.661   7.032   7.600  0.2182  0.8004  0.0386
   84MOL   C43947085   4.689   7.063   7.734  0.1548  0.0537  0.2317
   84MOL   H44047086   4.374   7.135   7.847 -0.1874 -0.8907  0.4089
   84MOL   H44147087   4.199   7.096   7.663  0.0607  0.5231  0.2257
   84MOL   H44247088   4.159   7.044   7.428 -0.2307  1.3243  1.7053
   84MOL   H44347089   4.224   7.026   6.995 -1.2221  0.3583  0.3071
   84MOL   H44447090   4.057   7.016   7.047 -0.1501  1.3343  1.0317
   84MOL   H44547091   4.244   6.778   7.045 -0.1055 -0.2413  0.5254
   84MOL   H44647092   4.082   6.796   7.124  0.5390 -0.2421 -0.1678
   84MOL   H44747093   4.576   6.977   7.343 -1.2225 -0.4867 -0.7633
   84MOL   H44847094   4.732   6.989   7.531 -2.2039 -0.1587 -1.9287
   84MOL   H44947095   4.791   7.057   7.767 -0.6951 -0.7106  2.8171
   84MOL   O45047096   4.278   6.864   6.804  0.0525  0.0991  0.1971
   84MOL   C45147097   4.157   6.834   6.800  0.3673 -0.5373  0.4870
   84MOL   O45247098   4.086   6.807   6.913 -1.0978  0.0572  0.7253
   84MOL   C45347099   4.079   6.820   6.671  0.3464  0.2523 -0.6003
   84MOL   C45447100   4.152   6.827   6.546 -0.1705  0.1516 -0.1696
   84MOL   C45547101   4.083   6.816   6.426  0.1364  0.0644 -0.2306
   84MOL   C45647102   4.154   6.831   6.306 -0.0411  0.5778  0.6862
   84MOL   C45747103   4.083   6.839   6.180 -0.5629 -0.1101 -0.4462
   84MOL   C45847104   3.943   6.831   6.179 -0.4251 -0.2684  0.5872
   84MOL   C45947105   3.873   6.822   6.048  0.1969 -0.2143 -0.5882
   84MOL   O46047106   3.743   6.790   6.045 -0.1337  0.1845  0.2215
   84MOL   C46147107   3.669   6.804   5.925 -0.7818 -0.1702  0.0493
   84MOL   C46247108   3.688   6.680   5.838 -0.0095  0.1653  0.6472
   84MOL   O46347109   3.931   6.852   5.944  0.1393 -0.6920 -0.0643
   84MOL   C46447110   3.877   6.804   6.296  0.0651 -0.3452  0.2327
   84MOL   C46547111   3.943   6.804   6.422  0.3456 -0.1029 -0.0853
   84MOL   C46647112   3.870   6.792   6.543 -0.0924  1.0015  0.9338
   84MOL   C46747113   3.937   6.807   6.665 -0.6567 -0.1282 -0.1748
   84MOL   H46847114   4.259   6.824   6.541 -0.1645 -0.1122  0.0882
   84MOL   H46947115   4.261   6.815   6.303 -0.1721 -0.3995  0.9743
   84MOL   H47047116   4.139   6.844   6.088  0.0900  3.4457  0.0459
   84MOL   H47147117   3.700   6.895   5.874 -0.4520 -0.5474 -0.4244
   84MOL   H47247118   3.564   6.820   5.948 -0.8927  2.9986 -2.3191
   84MOL   H47347119   3.795   6.660   5.839  0.1157  0.8256  0.4309
   84MOL   H47447120   3.637   6.588   5.868  0.3212 -0.1063  0.3691
   84MOL   H47547121   3.771   6.781   6.300 -0.1169  0.3175 -0.5117
   84MOL   H47647122   3.762   6.790   6.542 -0.0774 -0.5056 -1.2783
   84MOL   H47747123   3.875   6.816   6.753  0.4442 -1.3126  0.7378
   84MOL   O47847124   3.814   6.564   5.629  0.0840  0.3218 -0.3237
   84MOL   C47947125   3.740   6.658   5.608 -0.2505  0.2389 -0.2165
   84MOL   O48047126   3.660   6.713   5.705  0.3593 -0.1306 -0.3239
   84MOL   C48147127   3.733   6.721   5.469  0.2836  0.1250 -0.4028
   84MOL   C48247128   3.661   6.839   5.446  0.1384 -0.0351 -1.0864
   84MOL   C48347129   3.644   6.893   5.319 -0.0539 -0.8663 -0.4550
   84MOL   C48447130   3.565   7.011   5.292  0.1769  0.2746 -0.1331
   84MOL   C48547131   3.548   7.062   5.159  0.0317  0.2282  0.0779
   84MOL   C48647132   3.610   6.995   5.052 -1.1173 -0.0789 -0.6169
   84MOL   C48747133   3.612   7.051   4.913  0.1541  0.5493  0.6338
   84MOL   O48847134   3.532   7.157   4.904 -0.2798  0.0770  0.0570
   84MOL   C48947135   3.527   7.223   4.778 -0.4867 -0.2860 -0.4259
   84MOL   C49047136   3.446   7.349   4.782  0.8852  0.3053  0.4060
   84MOL   O49147137   3.680   7.003   4.822 -0.3754  0.5944 -0.2277
   84MOL   C49247138   3.697   6.889   5.082  0.5370 -1.0005  0.3383
   84MOL   C49347139   3.702   6.831   5.204  0.3183  0.2885 -0.2785
   84MOL   C49447140   3.779   6.713   5.223  0.3952  0.2630 -0.2262
   84MOL   C49547141   3.789   6.658   5.350  0.8587 -0.9156  0.1796
   84MOL   H49647142   3.624   6.888   5.535 -0.9703 -0.3485 -1.3598
   84MOL   H49747143   3.498   7.054   5.366  0.9821 -0.5492  1.1076
   84MOL   H49847144   3.482   7.146   5.144 -1.9306 -1.1991  0.6456
   84MOL   H49947145   3.476   7.160   4.706 -1.3762  0.9282 -0.8890
   84MOL   H50047146   3.621   7.255   4.732 -0.1288  1.3549  1.3745
   84MOL   H50147147   3.427   7.381   4.680  1.6448 -3.0849 -0.8730
   84MOL   H50247148   3.348   7.324   4.824  0.3470  1.7131 -0.0141
   84MOL   H50347149   3.759   6.852   5.002 -1.4800 -3.4339 -0.1613
   84MOL   H50447150   3.811   6.660   5.135 -0.5684 -0.7950  0.0328
   84MOL   H50547151   3.837   6.561   5.353 -0.5997 -1.6906 -1.2011
   84MOL   O50647152   3.402   7.388   5.040 -0.0051  0.2721 -0.0536
   84MOL   C50747153   3.472   7.467   4.983  0.1081 -0.4158 -0.0868
   84MOL   O50847154   3.505   7.453   4.854 -0.1820  0.2413 -0.4395
   84MOL   C50947155   3.517   7.596   5.046  0.6686  0.4247  0.3047
   84MOL   C51047156   3.597   7.685   4.967 -0.0102  0.2833 -0.0933
   84MOL   C51147157   3.647   7.802   5.028  0.0199  0.0949  0.5328
   84MOL   C51247158   3.731   7.894   4.957  0.0442  0.0616 -0.4378
   84MOL   C51347159   3.779   8.007   5.019 -0.2234  0.4144  0.0070
   84MOL   C51447160   3.756   8.033   5.154  0.2717  1.1415 -0.3058
   84MOL   C51547161   3.814   8.158   5.209  0.5790  0.4502 -0.3105
   84MOL   O51647162   3.779   8.179   5.341  0.6729  0.5021  0.1246
   84MOL   C51747163   3.878   8.249   5.424  0.3201 -0.2139  0.1615
   84MOL   C51847164   3.984   8.151   5.483  0.9111 -0.0655  0.5472
   84MOL   O51947165   3.885   8.226   5.144  0.0654 -0.4794  0.2482
   84MOL   C52047166   3.676   7.943   5.226  0.5387  0.4945 -0.3204
   84MOL   C52147167   3.623   7.832   5.166 -0.0676 -0.5799 -0.4797
   84MOL   C52247168   3.543   7.744   5.240  0.4847 -0.2030 -0.3487
   84MOL   C52347169   3.482   7.624   5.185  0.3805 -1.0620  0.2073
   84MOL   H52447170   3.608   7.659   4.863 -1.7313 -0.2021 -0.1791
   84MOL   H52547171   3.748   7.880   4.851 -1.7250 -1.2987 -0.5631
   84MOL   H52647172   3.837   8.078   4.962  0.7495 -1.4217 -1.3468
   84MOL   H52747173   3.833   0.053   5.508  0.2860  0.5353 -0.3365
   84MOL   H52847174   3.929   0.076   5.365 -2.5081  1.0182 -0.7494
   84MOL   H52947175   4.060   8.203   5.542  0.8115  0.6334  0.0665
   84MOL   H53047176   3.939   8.072   5.542  0.6447  0.0060  0.4407
   84MOL   H53147177   3.653   7.965   5.330 -1.1992 -0.0991 -0.5579
   84MOL   H53247178   3.531   7.747   5.347  1.1408 -0.6110 -0.2575
   84MOL   H53347179   3.421   7.558   5.246 -0.3435 -1.3505 -0.8167
   84MOL   O53447180   4.198   7.995   5.514  0.4345  0.1570 -0.4123
   84MOL   C53547181   4.148   7.998   5.403 -0.5134 -0.9567  0.3755
   84MOL   O53647182   4.045   8.075   5.376  0.8103 -0.3380 -0.0085
   84MOL   C53747183   4.204   7.930   5.287  0.7470 -0.0518  0.6008
   84MOL   C53847184   4.139   7.933   5.160 -0.3546 -0.4766  0.4229
   84MOL   C53947185   4.187   7.860   5.045 -0.6311 -0.2864 -0.1873
   84MOL   C54047186   4.112   7.852   4.923 -0.1913 -0.1823 -0.1791
   84MOL   C54147187   4.172   7.785   4.810  0.0121 -0.1882 -0.0854
   84MOL   C54247188   4.296   7.724   4.816  0.1232 -0.4454  0.0432
   84MOL   C54347189   4.351   7.659   4.698  0.1831 -0.5858  0.6526
   84MOL   O54447190   4.459   7.591   4.727  0.3634  0.7025  0.1676
   84MOL   C54547191   4.535   7.532   4.628 -0.1653 -0.1541  0.0939
   84MOL   C54647192   4.629   7.448   4.715 -0.4216  0.0220  0.9590
   84MOL   O54747193   4.296   7.665   4.585  0.2815  0.5232  0.7066
   84MOL   C54847194   4.357   7.716   4.939 -0.3491  0.7120  0.0998
   84MOL   C54947195   4.309   7.784   5.058  0.5529 -0.2730  0.6798
   84MOL   C55047196   4.380   7.785   5.179 -0.1171 -0.1605 -0.3987
   84MOL   C55147197   4.324   7.851   5.290  0.3479 -0.0409 -0.4220
   84MOL   H55247198   4.048   7.992   5.158 -0.2874 -0.3376  1.1665
   84MOL   H55347199   4.009   7.881   4.907 -0.1776 -0.6620 -1.1814
   84MOL   H55447200   4.106   7.769   4.727 -1.5351 -1.3009  1.3141
   84MOL   H55547201   4.577   7.609   4.564 -2.0261  3.1018  2.6263
   84MOL   H55647202   4.465   7.474   4.568 -0.3646  1.2843 -1.0633
   84MOL   H55747203   4.694   7.403   4.639  0.6007  2.3165  0.4188
   84MOL   H55847204   4.585   7.366   4.771  0.5648 -3.0460 -2.5478
   84MOL   H55947205   4.447   7.660   4.958 -0.3687  0.6260 -0.0634
   84MOL   H56047206   4.469   7.726   5.197 -2.3024 -3.0769  1.3619
   84MOL   H56147207   4.380   7.840   5.382  3.2773 -0.8942 -2.2209
   84MOL   H56247208   4.693   7.508   4.780  2.3696  1.8282 -3.2109
   85MOL     O147209   3.216   5.001   6.530  0.2429 -0.2485 -0.9079
   85MOL     C247210   3.208   4.911   6.617 -0.6039  0.0577  0.3848
   85MOL     O347211   3.287   4.902   6.727  0.5037 -0.4477 -0.1597
   85MOL     C447212   3.086   4.823   6.623  0.7386  0.3345 -0.7697
   85MOL     C547213   3.085   4.687   6.659  0.3524 -0.1872 -0.0953
   85MOL     C647214   2.961   4.615   6.659 -0.0092 -0.2958  0.4669
   85MOL     C747215   2.964   4.481   6.691  0.3110 -0.2572 -0.9790
   85MOL     C847216   2.844   4.407   6.698  0.6307  0.2045 -0.2328
   85MOL     C947217   2.717   4.474   6.672 -0.0213  0.3146 -0.2540
   85MOL    C1047218   2.593   4.395   6.657  0.4367  0.4264  0.3407
   85MOL    O1147219   2.490   4.458   6.593  0.6317  0.2298 -0.3861
   85MOL    C1247220   2.364   4.391   6.572  0.7534  0.4268  0.2786
   85MOL    C1347221   2.271   4.413   6.695 -0.3577  0.9482  0.7009
   85MOL    O1447222   2.578   4.290   6.714 -0.1533 -0.3571 -0.6404
   85MOL    C1547223   2.717   4.607   6.642 -0.3013 -0.3211 -0.5001
   85MOL    C1647224   2.841   4.680   6.634  0.0641  0.1809  0.5374
   85MOL    C1747225   2.843   4.817   6.596  0.0772 -0.1612  0.1136
   85MOL    C1847226   2.964   4.891   6.596  0.1219  0.5008 -0.0317
   85MOL    H1947227   3.173   4.631   6.688  0.4318 -0.6223 -1.1718
   85MOL    H2047228   3.058   4.434   6.715  0.2384  1.2081  2.4397
   85MOL    H2147229   2.846   4.302   6.725  0.5502  0.3841  0.4884
   85MOL    H2247230   2.326   4.434   6.479  1.8187 -0.3310 -0.5078
   85MOL    H2347231   2.379   4.284   6.561 -2.2369  0.1130 -1.1624
   85MOL    H2447232   2.171   4.373   6.677  0.5117 -0.9380 -0.0202
   85MOL    H2547233   2.310   4.355   6.779  1.6333  0.1109 -0.7662
   85MOL    H2647234   2.629   4.667   6.629  0.6132  1.4563  1.2445
   85MOL    H2747235   2.752   4.873   6.577 -0.3702 -1.3804 -1.4162
   85MOL    H2847236   2.965   4.995   6.565 -0.0102  0.8198  0.9913
   85MOL    H2947237   3.321   4.817   6.752 -0.2485 -1.2036 -1.6310
   85MOL    O3047238   2.088   4.590   6.592 -0.3187  0.1682  0.0057
   85MOL    C3147239   2.193   4.628   6.642 -0.0769  0.1380 -0.3459
   85MOL    O3247240   2.275   4.552   6.722 -0.6691  0.3273  0.6494
   85MOL    C3347241   2.247   4.763   6.629  0.2395 -0.2239  0.2695
   85MOL    C3447242   2.368   4.804   6.694  0.2120  0.1531 -0.3377
   85MOL    C3547243   2.433   4.920   6.659 -0.5994  0.0430 -0.0315
   85MOL    C3647244   2.556   4.958   6.723  0.0096  0.0909  0.7342
   85MOL    C3747245   2.611   5.087   6.700 -0.6783 -0.6438 -0.1295
   85MOL    C3847246   2.563   5.170   6.594 -0.4139  0.1714 -0.1665
   85MOL    C3947247   2.625   5.302   6.557 -0.4357 -0.3941 -0.1884
   85MOL    O4047248   2.617   5.325   6.427 -0.0799 -0.4407 -0.0652
   85MOL    C4147249   2.648   5.459   6.383  0.0124 -0.3141  0.1272
   85MOL    C4247250   2.525   5.543   6.357 -0.4578  0.3361  0.2119
   85MOL    O4347251   2.672   5.385   6.635 -0.6951 -0.5330  0.2197
   85MOL    C4447252   2.449   5.125   6.523 -0.2203 -0.0149  0.0067
   85MOL    C4547253   2.383   5.005   6.562 -0.1713  0.1080  0.0148
   85MOL    C4647254   2.260   4.978   6.506  0.6235 -0.2105 -0.0783
   85MOL    C4747255   2.187   4.858   6.540  0.2397 -0.5636 -0.4631
   85MOL    H4847256   2.427   4.746   6.763  1.0475  1.1858 -0.1668
   85MOL    H4947257   2.611   4.896   6.793  1.6134  0.9904  0.2848
   85MOL    H5047258   2.699   5.121   6.751 -0.9377  0.2123 -0.2418
   85MOL    H5147259   2.707   5.444   6.292  0.9900 -1.8808  1.0041
   85MOL    H5247260   2.711   5.518   6.450 -0.6640  0.5361  0.0228
   85MOL    H5347261   2.561   5.637   6.314  2.5789 -1.1446 -0.6181
   85MOL    H5447262   2.456   5.489   6.292  0.4329 -1.1143  0.4509
   85MOL    H5547263   2.406   5.187   6.446  0.5391  0.8504  0.2759
   85MOL    H5647264   2.216   5.038   6.428 -0.0349  0.6303  0.9261
   85MOL    H5747265   2.095   4.831   6.490 -0.7457  0.7738  0.5921
   85MOL    O5847266   2.257   5.633   6.426  0.4171  0.9354 -0.2463
   85MOL    C5947267   2.337   5.607   6.515  0.1950 -0.0401 -0.0019
   85MOL    O6047268   2.467   5.568   6.488 -0.2412 -0.1333 -0.5909
   85MOL    C6147269   2.308   5.626   6.658 -0.5284  0.4706 -0.6019
   85MOL    C6247270   2.411   5.604   6.749  0.2325  0.0650  0.2264
   85MOL    C6347271   2.392   5.631   6.885 -0.1684 -0.1947 -0.1114
   85MOL    C6447272   2.497   5.610   6.977 -0.0771 -0.1586  0.3989
   85MOL    C6547273   2.477   5.653   7.105  0.2774 -0.4986 -0.8865
   85MOL    C6647274   2.354   5.689   7.159  0.1668 -0.3530 -0.1103
   85MOL    C6747275   2.337   5.732   7.300 -0.0650 -0.2092 -0.3712
   85MOL    O6847276   2.211   5.728   7.343  0.5528  0.2786 -0.0465
   85MOL    C6947277   2.181   5.759   7.477 -0.0303  0.1912 -0.3458
   85MOL    C7047278   2.226   5.652   7.573 -0.5947  0.3085 -0.9531
   85MOL    O7147279   2.435   5.767   7.366  0.1503  0.5740 -0.3671
   85MOL    C7247280   2.245   5.694   7.069 -0.5679 -0.8902 -0.5999
   85MOL    C7347281   2.267   5.674   6.933  0.3889  0.0814  0.0857
   85MOL    C7447282   2.156   5.681   6.848 -0.4778  1.4395 -0.2671
   85MOL    C7547283   2.180   5.665   6.708  0.3068 -0.2775  0.3080
   85MOL    H7647284   2.504   5.556   6.722  0.8180  1.7727 -0.8483
   85MOL    H7747285   2.592   5.574   6.942  0.8217 -0.4054  2.9822
   85MOL    H7847286   2.559   5.651   7.175 -2.0782 -0.1623  1.9937
   85MOL    H7947287   2.076   5.781   7.495 -0.1030  0.9026 -1.5347
   85MOL    H8047288   2.235   5.853   7.491 -0.9672  0.7730 -0.5909
   85MOL    H8147289   2.154   5.571   7.580 -0.6667  0.5223  0.7457
   85MOL    H8247290   2.315   5.600   7.535  0.6779  2.0786 -0.4748
   85MOL    H8347291   2.148   5.722   7.107 -0.8142 -1.4257 -0.8315
   85MOL    H8447292   2.067   5.714   6.899 -0.9411 -0.1705  0.0029
   85MOL    H8547293   2.095   5.680   6.643  0.9935  1.8998 -0.1229
   85MOL    O8647294   2.066   5.768   7.764 -0.5001 -0.5359 -0.4372
   85MOL    C8747295   2.189   5.779   7.770  0.1624  0.4798 -0.2037
   85MOL    O8847296   2.273   5.721   7.690 -0.1466  0.1815  0.4788
   85MOL    C8947297   2.261   5.868   7.871  0.0192 -0.9111 -0.0441
   85MOL    C9047298   2.390   5.907   7.859 -0.2463  0.3813 -0.1482
   85MOL    C9147299   2.447   5.991   7.953 -0.2517 -0.4495  0.4904
   85MOL    C9247300   2.579   6.038   7.933  0.1800  0.4763 -0.1453
   85MOL    C9347301   2.648   6.099   8.035 -0.6207 -0.0055 -0.5345
   85MOL    C9447302   2.584   6.125   8.158  0.6216 -0.3481 -0.0325
   85MOL    C9547303   2.663   6.178   0.031 -0.7656 -0.0142  1.0430
   85MOL    O9647304   2.586   6.176   0.141  0.3051 -0.1898 -0.4408
   85MOL    C9747305   2.644   6.188   0.273  0.0493  0.2682  0.1480
   85MOL    C9847306   2.681   6.333   0.299  0.6246 -0.0665 -0.1046
   85MOL    O9947307   2.784   6.205   0.027  0.1988 -0.1381  0.2078
   85MOL   C10047308   2.448   6.074   8.176  0.7268 -0.3747 -0.0322
   85MOL   C10147309   2.385   6.009   8.073  0.1033 -0.1478 -0.8056
   85MOL   C10247310   2.254   5.962   8.099  0.2018  0.1585  0.0783
   85MOL   C10347311   2.185   5.894   7.989 -0.4228 -0.0430  0.2729
   85MOL   H10447312   2.448   5.890   7.770 -1.1391 -0.2435 -0.6236
   85MOL   H10547313   2.618   6.035   7.832 -2.0787 -1.1314 -1.0215
   85MOL   H10647314   2.749   6.129   8.011 -1.0440  1.8529 -0.0906
   85MOL   H10747315   2.728   6.122   0.297 -1.0240 -1.9605 -1.9801
   85MOL   H10847316   2.560   6.159   0.337 -1.1369  2.4793 -0.3875
   85MOL   H10947317   2.605   6.398   0.257  0.5643 -0.0385  0.0476
   85MOL   H11047318   2.675   6.348   0.407 -1.2389 -0.3758 -0.1620
   85MOL   H11147319   2.398   6.083   0.022  2.2609  0.0737  0.7638
   85MOL   H11247320   2.202   5.979   8.192 -0.4569 -0.6578 -0.1363
   85MOL   H11347321   2.084   5.858   7.999 -0.3856  0.4172  2.3606
   85MOL   O11447322   2.920   6.254   0.429  0.5636 -0.4640 -0.0198
   85MOL   C11547323   2.924   6.317   0.324  0.0808 -0.3465  0.2970
   85MOL   O11647324   2.807   6.358   0.256 -0.2710  0.4009 -0.5502
   85MOL   C11747325   3.055   6.365   0.264  0.1044 -0.5501  0.1261
   85MOL   C11847326   3.062   6.391   0.128 -0.4561 -0.0172  0.4610
   85MOL   C11947327   3.185   6.443   0.080  0.2415  0.2795 -0.3733
   85MOL   C12047328   3.200   6.465   8.195 -0.7276 -0.0619  0.8385
   85MOL   C12147329   3.309   6.528   8.129 -0.3698 -0.0050 -0.6778
   85MOL   C12247330   3.414   6.562   8.221 -0.1253  0.2552  0.8473
   85MOL   C12347331   3.531   6.638   8.174  0.7114 -0.3508 -0.1122
   85MOL   O12447332   3.519   6.677   8.043 -0.2492  0.6675 -0.9690
   85MOL   C12547333   3.620   6.756   7.981  0.1315 -0.4461 -0.4499
   85MOL   C12647334   3.656   6.881   8.064  0.8584 -0.2384  0.3491
   85MOL   O12747335   3.640   6.655   8.235  0.5806  0.4484 -0.2326
   85MOL   C12847336   3.406   6.534   0.107 -0.2226 -0.0629 -0.1663
   85MOL   C12947337   3.290   6.479   0.166 -0.6800 -0.1239  0.2700
   85MOL   C13047338   3.280   6.462   0.304 -0.2288  0.1282  0.6537
   85MOL   C13147339   3.164   6.397   0.353  0.1454  0.5487 -0.3575
   85MOL   H13247340   2.977   6.367   0.065 -1.8048  1.1993  1.7908
   85MOL   H13347341   3.118   6.428   8.134 -0.6483 -0.3155  0.8864
   85MOL   H13447342   3.317   6.557   8.026  1.6774  1.8496 -0.0243
   85MOL   H13547343   3.583   6.778   7.881  0.5072  0.8752 -0.3146
   85MOL   H13647344   3.710   6.695   7.970  0.3313 -0.0643 -0.9351
   85MOL   H13747345   3.583   6.892   8.143  1.2235  1.3493  0.4779
   85MOL   H13847346   3.749   6.869   8.119  0.1781 -0.8527  1.3629
   85MOL   H13947347   3.494   6.554   0.165  0.1537  2.1983 -1.4659
   85MOL   H14047348   3.363   6.477   0.372 -1.3932  5.8182  1.0644
   85MOL   H14147349   3.151   6.371   0.457  2.7379  1.8341  0.3333
   85MOL   O14247350   3.539   7.125   8.109  0.5859 -0.8070  0.3221
   85MOL   C14347351   3.611   7.109   8.013  0.1604  0.1393  0.3435
   85MOL   O14447352   3.665   6.990   7.980 -0.0215 -0.2585  0.1076
   85MOL   C14547353   3.643   7.227   7.923  1.1333 -0.1802  0.2629
   85MOL   C14647354   3.592   7.354   7.963 -0.3522 -0.2644 -0.2966
   85MOL   C14747355   3.637   7.463   7.885  0.8660 -0.4346  0.7355
   85MOL   C14847356   3.606   7.599   7.924 -0.4353 -0.1475 -0.5127
   85MOL   C14947357   3.650   7.706   7.844 -0.0729 -0.2045 -0.1092
   85MOL   C15047358   3.733   7.684   7.733  0.0450  0.2949  0.1684
   85MOL   C15147359   3.794   7.806   7.670 -1.1589 -0.2669 -0.4784
   85MOL   O15247360   3.875   7.768   7.562 -0.5284  0.4556  0.6871
   85MOL   C15347361   3.934   7.865   7.475 -0.1450  0.5561  0.4079
   85MOL   C15447362   3.834   7.917   7.380  0.4825 -0.0267  0.7117
   85MOL   O15547363   3.781   7.922   7.706  0.3567 -0.7304  0.0551
   85MOL   C15647364   3.766   7.550   7.693  0.9128 -0.5571 -0.0556
   85MOL   C15747365   3.716   7.443   7.770  0.2475  0.5016  0.2929
   85MOL   C15847366   3.753   7.314   7.732  0.5563 -0.1751  0.4996
   85MOL   C15947367   3.712   7.200   7.800 -0.3720 -0.3093  0.4063
   85MOL   H16047368   3.536   7.373   8.053  0.6143 -0.7828  0.4208
   85MOL   H16147369   3.564   7.613   8.022  1.7806 -2.3957  0.8091
   85MOL   H16247370   3.628   7.807   7.877  2.3301  0.1655  0.4242
   85MOL   H16347371   3.997   7.813   7.403 -0.6649 -0.5761  0.7519
   85MOL   H16447372   3.986   7.947   7.524  0.9990  0.6628 -0.9634
   85MOL   H16547373   3.734   7.920   7.423  0.2587  0.3704  0.1645
   85MOL   H16647374   3.858   8.019   7.352  0.6891 -0.8120 -2.1152
   85MOL   H16747375   3.836   7.526   7.615  0.1657  1.2387 -1.3130
   85MOL   H16847376   3.801   7.306   7.635 -1.6777 -0.7863 -0.5698
   85MOL   H16947377   3.731   7.100   7.763 -2.2757  0.0104 -1.4926
   85MOL   O17047378   3.650   7.956   7.173  0.2288 -0.0372 -0.6998
   85MOL   C17147379   3.726   7.861   7.171 -0.9464  0.2616  0.3677
   85MOL   O17247380   3.815   7.831   7.274  0.0689 -0.0396  0.1773
   85MOL   C17347381   3.725   7.761   7.063 -0.0926  0.5375 -0.3108
   85MOL   C17447382   3.791   7.642   7.079 -0.2135 -0.6416  0.3935
   85MOL   C17547383   3.782   7.541   6.987  0.2363 -0.9361 -0.3890
   85MOL   C17647384   3.855   7.426   7.006  0.4718 -0.0516  0.5107
   85MOL   C17747385   3.860   7.327   6.901 -0.5226 -0.4065  0.2347
   85MOL   C17847386   3.784   7.349   6.786 -0.3520  0.3872  0.0474
   85MOL   C17947387   3.796   7.243   6.684  0.3436  0.1631  0.1465
   85MOL   O18047388   3.731   7.271   6.567 -0.3427 -0.7878 -0.1295
   85MOL   C18147389   3.730   7.183   6.459  0.1896 -0.9368 -0.0528
   85MOL   C18247390   3.583   7.127   6.447  0.0055  0.5975  0.1404
   85MOL   O18347391   3.862   7.143   6.694 -0.3711 -0.2272  0.0418
   85MOL   C18447392   3.702   7.460   6.773  0.1201 -0.4289 -0.3375
   85MOL   C18547393   3.707   7.559   6.869 -0.3216 -0.7777  0.1525
   85MOL   C18647394   3.645   7.680   6.839 -0.1689 -0.4449  0.0528
   85MOL   C18747395   3.657   7.781   6.940 -0.4625  0.6400  0.4174
   85MOL   H18847396   3.855   7.632   7.165  1.4930 -0.9149 -0.8891
   85MOL   H18947397   3.916   7.410   7.094  2.2820 -2.9645 -1.2038
   85MOL   H19047398   3.916   7.235   6.905 -0.8103 -0.5452  1.1080
   85MOL   H19147399   3.793   7.098   6.480  2.6207  0.6009 -0.9516
   85MOL   H19247400   3.755   7.235   6.367 -0.4464 -1.5460 -0.5720
   85MOL   H19347401   3.498   7.196   6.436 -0.2509  0.9303  3.6427
   85MOL   H19447402   3.574   7.079   6.350 -2.5467  0.6650  0.3040
   85MOL   H19547403   3.649   7.478   6.681 -0.6571  0.8910  0.3428
   85MOL   H19647404   3.580   7.699   6.755  0.3061  2.5951  0.3264
   85MOL   H19747405   3.612   7.877   6.926  0.8941  1.0530 -1.3587
   85MOL   O19847406   3.457   7.178   6.688 -0.4664 -0.0277 -0.3621
   85MOL   C19947407   3.496   7.056   6.668 -0.1245 -0.4082  0.1424
   85MOL   O20047408   3.568   7.026   6.552 -0.3105 -0.0917  0.2442
   85MOL   C20147409   3.496   6.947   6.764  0.0462  0.4926  0.6215
   85MOL   C20247410   3.516   6.812   6.719 -0.3273  0.3310 -1.0889
   85MOL   C20347411   3.504   6.712   6.817  0.2114  0.0873  0.7378
   85MOL   C20447412   3.528   6.581   6.776  0.0826 -0.1311  0.6792
   85MOL   C20547413   3.524   6.474   6.864  0.3028  0.7146 -0.5676
   85MOL   C20647414   3.504   6.496   7.004  0.1274  0.0206 -0.2112
   85MOL   C20747415   3.513   6.382   7.098 -0.4788 -0.2825 -0.0007
   85MOL   O20847416   3.565   6.276   7.043 -0.5816  0.1284  0.1121
   85MOL   C20947417   3.620   6.178   7.124  0.0344 -0.2437  0.2231
   85MOL   C21047418   3.552   6.049   7.094  0.3637  1.0228  0.2192
   85MOL   O21147419   3.479   6.386   7.215  0.4860 -0.1486  0.1848
   85MOL   C21247420   3.477   6.629   7.044  0.1011 -0.6872  0.0567
   85MOL   C21347421   3.484   6.735   6.949 -0.3751 -0.2302  0.0886
   85MOL   C21447422   3.462   6.870   6.994 -0.1569  0.0720 -0.0680
   85MOL   C21547423   3.463   6.977   6.897 -0.6607 -1.1664 -0.0694
   85MOL   H21647424   3.539   6.780   6.619 -2.1323 -1.1312 -1.0491
   85MOL   H21747425   3.535   6.553   6.671  0.7966  1.2969  0.3443
   85MOL   H21847426   3.562   6.383   6.821 -3.1335  0.6170 -3.5798
   85MOL   H21947427   3.611   6.201   7.230 -0.1745  0.2266  0.1069
   85MOL   H22047428   3.727   6.178   7.107 -0.2474  2.1756 -1.7187
   85MOL   H22147429   3.548   5.975   7.174  0.6976  1.1646  0.3665
   85MOL   H22247430   3.448   6.081   7.085  0.0714 -0.5899 -2.4743
   85MOL   H22347431   3.462   6.643   7.150  1.8811 -1.3656  0.4034
   85MOL   H22447432   3.432   6.892   7.095  0.5378 -0.6869  0.3036
   85MOL   H22547433   3.442   7.077   6.932  0.7606 -1.4680  1.7076
   85MOL   O22647434   3.770   5.895   7.097  0.0805  0.4419 -0.0317
   85MOL   C22747435   3.719   5.918   6.989 -0.8924 -1.1401  0.8821
   85MOL   O22847436   3.611   5.993   6.979  0.1728 -0.3706 -0.3997
   85MOL   C22947437   3.776   5.882   6.851  0.1704 -1.0072 -0.1500
   85MOL   C23047438   3.871   5.775   6.848 -0.2356 -0.4642  0.3509
   85MOL   C23147439   3.928   5.735   6.725 -0.1059  0.1818 -0.1512
   85MOL   C23247440   4.013   5.624   6.719  0.9651  0.0070  0.5570
   85MOL   C23347441   4.063   5.581   6.596  0.2748 -0.4576  0.0427
   85MOL   C23447442   4.029   5.652   6.472  0.2919  0.4328 -0.0659
   85MOL   C23547443   4.058   5.586   6.346 -0.5943  0.0581  0.2799
   85MOL   O23647444   4.116   5.468   6.357 -0.5534  0.3548  0.1393
   85MOL   C23747445   4.130   5.376   6.246 -0.1636 -0.3229 -0.2244
   85MOL   C23847446   4.005   5.283   6.239  0.2881  0.0906 -0.4078
   85MOL   O23947447   4.032   5.635   6.240 -0.0041 -0.0503 -0.0364
   85MOL   C24047448   3.951   5.769   6.483 -0.0419  0.1258  0.3234
   85MOL   C24147449   3.897   5.806   6.604  0.1657 -0.1117  0.1636
   85MOL   C24247450   3.813   5.913   6.611  0.3138  0.5586  0.1798
   85MOL   C24347451   3.750   5.953   6.726  0.1490  0.2262 -0.0030
   85MOL   H24447452   3.889   5.725   6.943 -1.6992  0.9411  1.4005
   85MOL   H24547453   4.038   5.567   6.807  0.7718 -0.7204  0.1409
   85MOL   H24647454   4.108   5.483   6.602  1.2672  0.0180  0.6100
   85MOL   H24747455   4.227   5.326   6.246  1.1071  2.0973  0.2165
   85MOL   H24847456   4.134   5.426   6.150 -0.4372 -0.9118 -0.5468
   85MOL   H24947457   3.915   5.343   6.247  0.4416  0.0241  2.2577
   85MOL   H25047458   4.011   5.229   6.144  0.5811  2.5250 -1.8128
   85MOL   H25147459   3.928   5.823   6.393 -0.9243 -2.8480 -1.2971
   85MOL   H25247460   3.784   5.972   6.526 -0.9810 -0.8767 -0.4022
   85MOL   H25347461   3.676   6.031   6.717 -1.6301 -1.4252 -0.1409
   85MOL   O25447462   3.931   5.272   6.507  0.0203 -0.1805 -0.8793
   85MOL   C25547463   3.994   5.184   6.454 -0.3012  0.3548  1.1770
   85MOL   O25647464   4.018   5.173   6.324 -0.2791 -0.0588 -0.3828
   85MOL   C25747465   4.052   5.065   6.522  0.4455 -0.5008  0.4405
   85MOL   C25847466   4.045   5.048   6.664  0.6537 -0.2111  0.2163
   85MOL   C25947467   4.105   4.928   6.730  0.0954 -0.4975 -0.1991
   85MOL   C26047468   4.090   4.898   6.870 -0.0588  0.0754  0.0890
   85MOL   C26147469   4.124   4.776   6.927  0.0483  0.3403  0.4479
   85MOL   C26247470   4.196   4.683   6.851 -0.3047 -0.0483 -0.7954
   85MOL   C26347471   4.239   4.556   6.911 -0.6414  0.5282  0.8210
   85MOL   O26447472   4.261   4.460   6.819 -0.4072 -0.6827  0.0176
   85MOL   C26547473   4.288   4.322   6.856  0.1533 -0.7067 -0.3507
   85MOL   C26647474   4.433   4.310   6.904 -0.6731 -0.3115  0.6147
   85MOL   O26747475   4.249   4.532   7.033 -0.1336 -0.5946  0.4998
   85MOL   C26847476   4.224   4.715   6.717 -0.5081  0.2397 -0.4549
   85MOL   C26947477   4.175   4.831   6.654  0.1224  0.4382 -0.6935
   85MOL   C27047478   4.179   4.846   6.511 -0.0430  0.4783 -0.3683
   85MOL   C27147479   4.113   4.958   6.446  0.0359  0.1777  0.3756
   85MOL   H27247480   3.996   5.118   6.730  1.0325 -0.6549  0.9669
   85MOL   H27347481   4.045   4.977   6.929  0.2077  1.1685 -1.1482
   85MOL   H27447482   4.109   4.757   7.033 -0.0293  2.2664  0.7985
   85MOL   H27547483   4.281   4.269   6.761 -2.3538 -1.3104  0.1247
   85MOL   H27647484   4.215   4.283   6.928  0.1912  0.0568  0.1027
   85MOL   H27747485   4.450   4.355   7.001 -2.2734  0.8945  0.3422
   85MOL   H27847486   4.441   4.201   6.913 -3.2859 -0.7798 -2.1241
   85MOL   H27947487   4.287   4.649   6.658  1.1411 -0.0250  1.5843
   85MOL   H28047488   4.229   4.774   6.448  0.4774  0.1457  0.4233
   85MOL   H28147489   4.117   4.976   6.340  1.0938  3.5839  0.9061
   85MOL   O28247490   4.571   4.190   6.689  0.0573 -0.2477 -0.0873
   85MOL   C28347491   4.563   4.315   6.694  0.4996 -1.0509  0.4256
   85MOL   O28447492   4.510   4.380   6.803  0.0502  0.0559  0.2833
   85MOL   C28547493   4.601   4.409   6.587  0.3237  0.3417 -0.1229
   85MOL   C28647494   4.575   4.548   6.599  0.0580 -0.1759 -0.2224
   85MOL   C28747495   4.631   4.640   6.506  0.0515  0.6353 -0.0654
   85MOL   C28847496   4.613   4.777   6.522 -0.0007 -0.1389  0.4551
   85MOL   C28947497   4.689   4.862   6.438 -0.5108 -0.1017 -0.5017
   85MOL   C29047498   4.764   4.816   6.321 -0.1591 -0.0099  0.3151
   85MOL   C29147499   4.829   4.915   6.227  0.1502 -0.7675 -0.0455
   85MOL   O29247500   4.869   4.862   6.107 -0.4241 -0.8058 -0.0433
   85MOL   C29347501   4.902   4.962   6.007 -0.6701  1.0069  0.3263
   85MOL   C29447502   5.047   5.011   6.026  0.3634  0.0934  0.7586
   85MOL   O29547503   4.850   5.035   6.259  0.3806  0.2769 -0.0516
   85MOL   C29647504   4.772   4.674   6.304 -0.0382 -0.0397 -0.2340
   85MOL   C29747505   4.709   4.589   6.400  0.1540 -0.5737 -0.2181
   85MOL   C29847506   4.722   4.454   6.391  0.0297  0.0129 -0.2552
   85MOL   C29947507   4.664   4.362   6.471  0.1756 -0.0212  0.3060
   85MOL   H30047508   4.522   4.583   6.687  1.0464  0.6915  0.0385
   85MOL   H30147509   4.552   4.824   6.598 -2.3953  0.4807 -1.7568
   85MOL   H30247510   4.697   4.968   6.457 -0.6092 -0.4299  1.4947
   85MOL   H30347511   4.832   5.044   6.019  0.0038  1.6114  0.1666
   85MOL   H30447512   4.884   4.919   5.908 -0.5659  1.5135  0.0850
   85MOL   H30547513   5.065   5.044   6.128 -1.3866  1.9747  0.5157
   85MOL   H30647514   5.108   4.925   5.999  0.5986  0.7507 -0.8840
   85MOL   H30747515   4.834   4.637   6.224 -0.0016  1.0202 -0.7000
   85MOL   H30847516   4.775   4.415   6.305  1.4213 -2.7572  1.7797
   85MOL   H30947517   4.673   4.261   6.435 -1.4828  0.8822 -2.8705
   85MOL   O31047518   5.286   5.131   5.984  0.1323 -0.0374  0.4882
   85MOL   C31147519   5.193   5.153   5.907 -0.2834 -0.4561  0.0773
   85MOL   O31247520   5.071   5.116   5.933 -0.0224  0.1903  0.8000
   85MOL   C31347521   5.203   5.219   5.780 -0.4160  0.3783  0.0021
   85MOL   C31447522   5.332   5.245   5.725 -0.4077  0.4522  0.2686
   85MOL   C31547523   5.334   5.308   5.597 -1.0156  1.0120 -0.1484
   85MOL   C31647524   5.459   5.347   5.542  0.2809 -0.2511 -0.8346
   85MOL   C31747525   5.457   5.403   5.417 -0.2582  0.5760  0.6511
   85MOL   C31847526   5.348   5.411   5.332  0.1333  0.4692  0.5665
   85MOL   C31947527   5.357   5.459   5.192  0.3256  0.5846 -0.0844
   85MOL   O32047528   5.262   5.413   5.105 -0.3322  0.3823  0.0353
   85MOL   C32147529   5.257   5.458   4.970  0.3518  0.1917 -0.1768
   85MOL   C32247530   5.287   5.355   4.862  0.2134  0.2487 -0.5441
   85MOL   O32347531   5.437   5.551   5.159 -0.9914  0.0556  0.5330
   85MOL   C32447532   5.221   5.380   5.391  0.9420 -0.4468 -0.1257
   85MOL   C32547533   5.213   5.334   5.525  0.4468 -0.2558 -0.2581
   85MOL   C32647534   5.091   5.303   5.576  0.4072 -0.2212  0.2020
   85MOL   C32747535   5.086   5.244   5.702 -0.1020  0.3660  0.5637
   85MOL   H32847536   5.429   5.238   5.772 -0.5708 -1.5828  0.3772
   85MOL   H32947537   5.554   5.334   5.592  0.3469 -1.7027 -1.3106
   85MOL   H33047538   5.549   5.445   5.380 -0.0366 -2.2898 -2.2458
   85MOL   H33147539   5.318   5.548   4.961 -0.0407  0.6718  1.7440
   85MOL   H33247540   5.159   5.500   4.946  1.0536  3.2134  1.9017
   85MOL   H33347541   5.330   5.261   4.899 -0.1145 -0.8198 -2.8100
   85MOL   H33447542   5.194   5.324   4.815 -0.3969  2.2673 -0.6846
   85MOL   H33547543   5.133   5.399   5.331  0.0769  0.4422  1.4023
   85MOL   H33647544   4.996   5.326   5.528  0.1817 -2.9009 -0.7158
   85MOL   H33747545   4.991   5.206   5.735  0.8733 -1.3470  1.4437
   85MOL   O33847546   5.551   5.421   4.921 -0.3390 -0.0139  0.5283
   85MOL   C33947547   5.510   5.426   4.803  0.2384 -0.0029  0.7150
   85MOL   O34047548   5.382   5.406   4.772 -0.0849 -0.1011  0.2336
   85MOL   C34147549   5.596   5.464   4.692  0.3877  0.2317 -0.3091
   85MOL   C34247550   5.539   5.480   4.560 -0.4425 -0.8320  0.3970
   85MOL   C34347551   5.621   5.502   4.448 -0.2610  0.0485 -0.7896
   85MOL   C34447552   5.573   5.491   4.310  0.4322  0.4698 -0.6271
   85MOL   C34547553   5.654   5.515   4.200  0.2875  0.0558 -0.2081
   85MOL   C34647554   5.782   5.552   4.229 -0.3544 -0.6695  0.0851
   85MOL   C34747555   5.877   5.600   4.119  0.2795  0.0357 -0.4946
   85MOL   O34847556   5.829   5.564   3.993  0.1507  0.0091  0.2629
   85MOL   C34947557   5.899   5.594   3.875 -0.1916  0.5792 -0.3321
   85MOL   C35047558   5.862   5.732   3.822 -0.5952 -0.1389 -0.6485
   85MOL   O35147559   5.977   5.666   4.134 -0.9810  0.4810  0.3784
   85MOL   C35247560   5.836   5.572   4.360 -0.0709  0.5353 -0.5599
   85MOL   C35347561   5.756   5.541   4.474  0.2285 -0.0042 -0.0395
   85MOL   C35447562   5.801   5.555   4.605  0.5635 -0.2521  0.6033
   85MOL   C35547563   5.728   5.503   4.712  0.6651 -0.1999 -0.5512
   85MOL   H35647564   5.434   5.461   4.539 -0.4503 -0.6214  0.2516
   85MOL   H35747565   5.469   5.472   4.289 -0.2967 -0.4333  3.5156
   85MOL   H35847566   5.606   5.501   4.104  0.4051  0.0642 -0.2666
   85MOL   H35947567   5.867   5.524   3.798  2.2600  2.8649 -3.6076
   85MOL   H36047568   6.004   5.575   3.897 -0.7403 -1.2961  0.7124
   85MOL   H36147569   5.895   5.796   3.904 -0.3042  1.3740 -1.9496
   85MOL   H36247570   5.915   5.753   3.730 -0.6112  1.8987 -0.2008
   85MOL   H36347571   5.933   5.615   4.375 -0.2870  0.5563  0.8702
   85MOL   H36447572   5.902   5.588   4.623  0.2745  1.5415 -0.9956
   85MOL   H36547573   5.777   5.494   4.808  1.6340  1.6707 -0.8555
   85MOL   O36647574   5.693   5.733   3.600  0.1673 -0.4392 -0.1269
   85MOL   C36747575   5.648   5.726   3.714  0.8133  0.8585  0.2046
   85MOL   O36847576   5.723   5.737   3.824  0.2703  0.8367 -0.0492
   85MOL   C36947577   5.503   5.709   3.751 -0.1146  0.4127 -0.7098
   85MOL   C37047578   5.472   5.662   3.880 -0.5678 -0.4551 -0.0403
   85MOL   C37147579   5.334   5.628   3.909 -0.2238 -0.9325  0.1769
   85MOL   C37247580   5.303   5.572   4.031  0.3283  0.7301 -0.2333
   85MOL   C37347581   5.171   5.540   4.060  0.2639 -0.3176 -0.2526
   85MOL   C37447582   5.064   5.550   3.964 -0.1464 -0.1453 -0.0171
   85MOL   C37547583   4.926   5.510   4.001  0.2368 -0.7741  0.6016
   85MOL   O37647584   4.914   5.485   4.138  0.2354  0.2394 -0.1319
   85MOL   C37747585   4.795   5.428   4.185  0.1920  0.1677 -0.3823
   85MOL   C37847586   4.803   5.273   4.175  0.0695 -0.6258  0.3903
   85MOL   O37947587   4.843   5.501   3.910 -0.0393  0.0701 -0.4653
   85MOL   C38047588   5.095   5.594   3.835 -0.1103 -0.7044 -0.4125
   85MOL   C38147589   5.228   5.646   3.812 -0.1149  0.0660 -0.6774
   85MOL   C38247590   5.263   5.693   3.685 -0.1640  0.3321  0.5379
   85MOL   C38347591   5.402   5.713   3.655  0.5570  0.5102  0.6302
   85MOL   H38447592   5.550   5.644   3.952  0.4154 -0.9046 -1.2124
   85MOL   H38547593   5.374   5.567   4.112 -0.3825  0.8701  0.4108
   85MOL   H38647594   5.145   5.507   4.160 -0.2498  1.2018  0.1196
   85MOL   H38747595   4.716   5.463   4.119  0.7236 -0.4866 -1.3932
   85MOL   H38847596   4.785   5.468   4.285 -2.9257 -0.1168 -0.5564
   85MOL   H38947597   4.704   5.236   4.198 -2.7815  4.9384 -1.8071
   85MOL   H39047598   4.820   5.240   4.073  1.3354  1.0511  0.0271
   85MOL   H39147599   5.014   5.615   3.766  1.0867  5.7590 -0.1381
   85MOL   H39247600   5.200   5.708   3.600 -0.8647  2.2282  1.3755
   85MOL   H39347601   5.416   5.752   3.555 -0.0820 -0.5012  0.1493
   85MOL   O39447602   4.788   5.211   4.466  0.5140 -0.3768  0.1487
   85MOL   C39547603   4.896   5.215   4.406  0.0424 -0.5117  0.5561
   85MOL   O39647604   4.900   5.234   4.271 -0.0464 -0.3369 -0.3655
   85MOL   C39747605   5.035   5.190   4.472  0.6099  0.2811 -0.0034
   85MOL   C39847606   5.045   5.129   4.601  0.3772  0.6851  0.2442
   85MOL   C39947607   5.168   5.096   4.664  0.9192 -0.0346  0.1692
   85MOL   C40047608   5.176   5.035   4.789  0.6852  0.1884  0.8830
   85MOL   C40147609   5.307   4.999   4.835  0.8817 -0.3474 -0.5977
   85MOL   C40247610   5.427   5.045   4.774  0.1599  0.3864  0.0865
   85MOL   C40347611   5.562   5.010   4.831  0.0387  0.1058  0.0195
   85MOL   O40447612   5.663   5.076   4.767  0.0625 -0.0078  0.5519
   85MOL   C40547613   5.790   5.077   4.832 -0.0021 -0.5072 -0.2438
   85MOL   C40647614   5.796   5.187   4.942 -0.0444 -0.1586  0.2210
   85MOL   O40747615   5.582   4.934   4.929 -0.2751  0.4184 -0.1420
   85MOL   C40847616   5.410   5.116   4.648 -0.0432 -0.5390 -0.9914
   85MOL   C40947617   5.285   5.140   4.598 -0.1147  0.0264 -0.1289
   85MOL   C41047618   5.277   5.213   4.480  0.5641  0.2234 -0.2927
   85MOL   C41147619   5.160   5.235   4.412 -0.4286  0.6923 -0.2894
   85MOL   H41247620   4.955   5.112   4.658 -1.2351  1.4587 -1.9763
   85MOL   H41347621   5.086   5.004   4.839  0.4482 -1.3576 -0.4439
   85MOL   H41447622   5.321   4.937   4.922 -1.5001  1.1405  0.8822
   85MOL   H41547623   5.864   5.096   4.754 -0.4867  0.8814 -0.3634
   85MOL   H41647624   5.817   4.980   4.875  0.4287 -0.4369 -0.3465
   85MOL   H41747625   5.736   5.270   4.904  0.0846 -0.0110  0.3420
   85MOL   H41847626   5.739   5.159   5.030 -0.4048 -1.9218 -0.5495
   85MOL   H41947627   5.496   5.136   4.586  1.0778  0.1783  0.7547
   85MOL   H42047628   5.365   5.256   4.433 -0.3758  0.3470 -1.9816
   85MOL   H42147629   5.152   5.295   4.322 -1.5763  0.9062 -0.0437
   85MOL   O42247630   5.981   5.037   5.081  0.6627 -0.4915 -0.4705
   85MOL   C42347631   6.015   5.146   5.033 -0.1131  0.0177 -0.1625
   85MOL   O42447632   5.932   5.232   4.971  1.0553  0.2691  0.1378
   85MOL   C42547633   6.150   5.211   5.058  0.6922  0.0256 -0.0966
   85MOL   C42647634   6.177   5.339   5.012  0.1254  0.3029  0.6573
   85MOL   C42747635   6.304   5.386   5.043 -0.9038  0.2124  0.4316
   85MOL   C42847636   6.337   5.512   4.998  0.8329  0.5656  0.2863
   85MOL   C42947637   6.460   5.567   5.023 -0.1328 -0.2009 -0.0316
   85MOL   C43047638   6.558   5.490   5.096 -0.1623 -0.4751 -0.0977
   85MOL   C43147639   6.697   5.545   5.101  0.7770  0.2052 -0.6571
   85MOL   O43247640   6.769   5.489   5.197  0.1946 -0.5508 -0.0077
   85MOL   C43347641   6.901   5.527   5.215 -0.0930 -0.0991  0.0083
   85MOL   C43447642   7.003   5.462   5.125  0.0485  0.1591  0.3456
   85MOL   O43547643   6.730   5.633   5.025 -0.5920 -0.1594 -0.1710
   85MOL   C43647644   6.530   5.362   5.144  0.5420  0.2135  0.2799
   85MOL   C43747645   6.401   5.310   5.118 -0.4712  0.0712 -0.6633
   85MOL   C43847646   6.372   5.180   5.153  0.7638  0.0879  0.1009
   85MOL   C43947647   6.248   5.132   5.125 -0.3829  1.1931  0.0073
   85MOL   H44047648   6.100   5.395   4.961 -1.3390  0.3378  2.8495
   85MOL   H44147649   6.267   5.574   4.943  0.9790  0.1074 -0.4170
   85MOL   H44247650   6.474   5.671   4.996 -2.2061 -0.2086 -1.2080
   85MOL   H44347651   6.941   5.489   5.309  2.1690 -0.4458 -1.0483
   85MOL   H44447652   6.923   5.634   5.216  0.6894 -0.2500  2.4161
   85MOL   H44547653   7.103   5.475   5.167  0.8294 -2.1338 -0.7343
   85MOL   H44647654   6.986   5.355   5.113 -0.1784  0.0138  1.7871
   85MOL   H44747655   6.609   5.314   5.200  0.2204  1.4082  1.8082
   85MOL   H44847656   6.441   5.118   5.209  2.0370  0.4750 -1.0236
   85MOL   H44947657   6.220   5.031   5.153 -2.2030  1.7889  0.4404
   85MOL   O45047658   7.170   5.655   5.038  0.1075  0.1700 -0.2868
   85MOL   C45147659   7.076   5.627   4.964 -0.2845  0.6847  0.5401
   85MOL   O45247660   6.991   5.528   4.996 -0.7586  0.1919  0.2859
   85MOL   C45347661   7.056   5.673   4.827 -0.2887  0.1229 -1.2166
   85MOL   C45447662   7.156   5.750   4.768 -0.0827  0.5491 -0.4139
   85MOL   C45547663   7.139   5.806   4.642  0.4553 -0.7138 -0.0183
   85MOL   C45647664   7.239   5.895   4.585 -0.1280  0.6413 -0.0131
   85MOL   C45747665   7.226   5.948   4.456  0.6070  0.1782 -0.6204
   85MOL   C45847666   7.118   5.912   4.377 -0.0027  0.9844  0.4438
   85MOL   C45947667   7.103   5.968   4.243  0.1393 -0.5418 -0.0557
   85MOL   O46047668   7.215   6.024   4.201  0.2882 -0.2478  0.4779
   85MOL   C46147669   7.244   6.000   4.059  0.1427 -0.4301 -0.3186
   85MOL   C46247670   7.206   6.130   3.978 -0.1015 -0.0456  0.6352
   85MOL   O46347671   7.000   5.964   4.174  0.0860  0.4487 -0.8637
   85MOL   C46447672   7.016   5.823   4.431  0.6532 -0.1701 -0.0813
   85MOL   C46547673   7.024   5.782   4.567  0.2964 -0.0030  0.7811
   85MOL   C46647674   6.918   5.711   4.631 -0.0486  0.0983  0.4827
   85MOL   C46747675   6.937   5.654   4.758 -0.4492  0.4311 -0.3721
   85MOL   H46847676   7.244   5.784   4.822 -1.9467  1.9028  1.8421
   85MOL   H46947677   7.326   5.920   4.644 -0.7551 -0.0774  1.2412
   85MOL   H47047678   7.301   6.018   4.423 -2.4384  3.3162 -1.1823
   85MOL   H47147679   7.195   5.911   4.019 -0.6056 -1.4743  2.7121
   85MOL   H47247680   7.353   5.993   4.060  0.3213  1.8006 -1.3639
   85MOL   H47347681   7.098   6.140   3.990 -0.0024 -0.1237  1.6114
   85MOL   H47447682   7.255   6.216   4.024  0.7850  0.3829 -1.0555
   85MOL   H47547683   6.929   5.798   4.371 -0.0077 -1.2154  1.2810
   85MOL   H47647684   6.825   5.687   4.581  0.5050 -0.4419 -0.2920
   85MOL   H47747685   6.856   5.594   4.798 -0.4363  0.8996  0.3690
   85MOL   O47847686   7.221   6.321   3.789 -0.4608 -0.2051  0.2401
   85MOL   C47947687   7.243   6.201   3.761  0.4942 -0.2498 -0.4158
   85MOL   O48047688   7.251   6.106   3.854  0.0440  0.1424  0.8496
   85MOL   C48147689   7.266   6.147   3.625 -0.7926  0.5858  0.8475
   85MOL   C48247690   7.255   6.234   3.514  0.1604  0.2095  0.0501
   85MOL   C48347691   7.270   6.199   3.383 -0.0792 -0.2797 -0.6833
   85MOL   C48447692   7.272   6.293   3.275 -0.1196  1.1619 -0.2743
   85MOL   C48547693   7.294   6.246   3.143  0.4965 -0.5185 -0.1937
   85MOL   C48647694   7.305   6.108   3.113  0.3786 -0.0103  0.4016
   85MOL   C48747695   7.312   6.060   2.974 -0.6232 -0.1540  0.4986
   85MOL   O48847696   7.377   6.154   2.899 -0.0182  0.2283 -0.3440
   85MOL   C48947697   7.354   6.150   2.761  0.3134 -0.4274  0.4910
   85MOL   C49047698   7.307   6.292   2.733  0.6093 -0.4091  0.1852
   85MOL   O49147699   7.270   5.951   2.933 -0.1460 -0.4306 -0.4186
   85MOL   C49247700   7.288   6.018   3.221 -0.6452  0.4225  0.0298
   85MOL   C49347701   7.273   6.060   3.354 -0.5666 -0.4572  0.6171
   85MOL   C49447702   7.272   5.966   3.456 -1.2403  1.0333 -0.1171
   85MOL   C49547703   7.276   6.007   3.594 -0.0549 -0.4730  0.0614
   85MOL   H49647704   7.264   6.339   3.538 -0.6374 -0.0634  1.6188
   85MOL   H49747705   7.255   6.398   3.290 -0.4711  1.1675 -0.7226
   85MOL   H49847706   7.288   6.308   3.055  0.8635 -1.0208 -0.5829
   85MOL   H49947707   7.278   6.084   2.718  2.1336 -0.7019 -2.4630
   85MOL   H50047708   7.437   6.126   2.695  0.0770 -0.0906  0.0692
   85MOL   H50147709   7.370   6.366   2.783 -1.4133  0.3965  1.6076
   85MOL   H50247710   7.321   6.311   2.627 -1.8064 -0.6082 -0.1917
   85MOL   H50347711   7.304   5.911   3.210 -0.3294  0.3069  1.4741
   85MOL   H50447712   7.280   5.864   3.421 -0.0958  0.8539  0.6181
   85MOL   H50547713   7.287   5.942   3.680  0.2296  1.0545  1.2151
   85MOL   O50647714   7.066   6.271   2.593  0.1302  0.3614  0.8774
   85MOL   C50747715   7.065   6.286   2.715 -0.3498 -0.0609  0.5106
   85MOL   O50847716   7.175   6.302   2.785 -0.3646  0.1389 -0.0065
   85MOL   C50947717   6.939   6.318   2.779  0.0066 -0.1561  0.3701
   85MOL   C51047718   6.920   6.312   2.922  0.1405  0.1834 -0.0868
   85MOL   C51147719   6.805   6.360   2.990 -0.5631 -0.2857  0.1484
   85MOL   C51247720   6.795   6.366   3.134 -0.3488  0.1945 -0.1999
   85MOL   C51347721   6.677   6.409   3.197 -0.1024 -0.3280 -0.7462
   85MOL   C51447722   6.565   6.447   3.120  0.2790  0.1309 -0.0621
   85MOL   C51547723   6.430   6.462   3.193 -0.3296  0.3684  0.0917
   85MOL   O51647724   6.428   6.402   3.315 -0.3717 -0.3415 -0.8249
   85MOL   C51747725   6.314   6.397   3.394 -0.3865  0.1638  0.0240
   85MOL   C51847726   6.236   6.269   3.373  0.5572  0.5501  0.1571
   85MOL   O51947727   6.333   6.520   3.142  0.0776  0.5373  0.2155
   85MOL   C52047728   6.581   6.450   2.984  1.0825 -1.0652  0.1421
   85MOL   C52147729   6.699   6.411   2.917 -0.3749  0.0590 -0.3702
   85MOL   C52247730   6.715   6.418   2.777  0.0196 -0.5164  0.3476
   85MOL   C52347731   6.830   6.374   2.715 -0.2712  0.1756 -0.3722
   85MOL   H52447732   7.007   6.293   2.982 -1.1543  1.1875  2.1741
   85MOL   H52547733   6.880   6.333   3.192  0.8713  2.5202 -0.6245
   85MOL   H52647734   6.676   6.403   3.305  0.2577 -1.5090 -0.8035
   85MOL   H52747735   6.255   6.488   3.384  0.4417  0.6328 -0.6908
   85MOL   H52847736   6.350   6.406   3.497  0.9299 -0.1203 -0.3983
   85MOL   H52947737   6.139   6.276   3.423  1.0791 -1.5967  1.5187
   85MOL   H53047738   6.216   6.264   3.266 -1.1682 -0.5840  0.5123
   85MOL   H53147739   6.498   6.493   2.929  2.0749 -0.8021 -1.1636
   85MOL   H53247740   6.634   6.451   2.714  0.5123 -0.3066 -0.1827
   85MOL   H53347741   6.841   6.378   2.608 -0.3559 -0.1774 -0.3969
   85MOL   O53447742   6.320   6.055   3.224  0.3409 -1.1847  0.7676
   85MOL   C53547743   6.335   6.056   3.346 -0.4288 -0.3195  0.7027
   85MOL   O53647744   6.283   6.147   3.428  0.1238  0.1800 -0.1772
   85MOL   C53747745   6.415   5.947   3.416  0.3502  0.6106  0.3919
   85MOL   C53847746   6.437   5.949   3.553 -0.0292 -0.8000  0.7712
   85MOL   C53947747   6.509   5.850   3.628 -0.3621  0.1203 -0.1503
   85MOL   C54047748   6.525   5.852   3.767  0.4825  0.4691 -0.0761
   85MOL   C54147749   6.597   5.756   3.829  0.5967  0.0642  0.2598
   85MOL   C54247750   6.670   5.655   3.760  0.2246 -0.6938  0.1480
   85MOL   C54347751   6.742   5.552   3.844  0.8487 -0.1991 -0.1578
   85MOL   O54447752   6.800   5.457   3.772 -0.1565  0.3459  0.3525
   85MOL   C54547753   6.860   5.350   3.841 -0.2360  0.7653  0.1239
   85MOL   C54647754   6.950   5.267   3.750 -0.0821 -0.2951 -0.6606
   85MOL   O54747755   6.737   5.556   3.967  0.0438  0.0696 -0.3086
   85MOL   C54847756   6.648   5.651   3.619  0.6778  0.3479  0.0383
   85MOL   C54947757   6.564   5.741   3.558  0.0022 -0.0450  0.4492
   85MOL   C55047758   6.528   5.725   3.417 -0.6648  0.3170 -0.7427
   85MOL   C55147759   6.450   5.824   3.350 -0.4928  0.6963  0.5776
   85MOL   H55247760   6.411   6.034   3.615 -1.9462 -0.2545 -0.7293
   85MOL   H55347761   6.479   5.927   3.829 -0.4838 -0.5274  0.4328
   85MOL   H55447762   6.590   5.766   3.936 -0.0273  1.8713  0.0745
   85MOL   H55547763   6.782   5.294   3.893  0.1496 -0.4973 -0.6290
   85MOL   H55647764   6.927   5.401   3.909  1.2657 -0.2039 -0.5961
   85MOL   H55747765   6.889   5.200   3.689  1.7934 -2.0680 -0.6616
   85MOL   H55847766   7.018   5.208   3.812 -1.6020 -1.8310 -0.4241
   85MOL   H55947767   6.697   5.574   3.561 -0.1162 -0.5836  0.5717
   85MOL   H56047768   6.560   5.639   3.360  0.9383  2.6952 -3.6069
   85MOL   H56147769   6.420   5.797   3.249 -0.9730  2.7071  0.1543
   85MOL   H56247770   7.003   5.331   3.679 -1.1756 -1.2910 -2.4118
   86MOL     O147771   3.951   3.572   0.751  0.1402  0.4681  0.3591
   86MOL     C247772   3.957   3.644   0.652 -0.1218 -0.0022 -1.0636
   86MOL     O347773   3.963   3.597   0.523 -0.0661  0.8239  0.1801
   86MOL     C447774   3.948   3.792   0.666  0.3853  0.4826 -0.3855
   86MOL     C547775   3.926   3.851   0.795 -0.5357  0.3453 -0.3980
   86MOL     C647776   3.922   3.989   0.803 -0.5545 -0.5709  0.3335
   86MOL     C747777   3.888   4.049   0.927  0.2201  0.3688  1.0197
   86MOL     C847778   3.893   4.190   0.946  0.1783  0.1582  0.1418
   86MOL     C947779   3.927   4.279   0.844  0.4281 -0.3387 -0.3894
   86MOL    C1047780   3.941   4.428   0.860  0.0906  0.1661 -0.3472
   86MOL    O1147781   3.899   4.468   0.983  0.7420  0.4511 -0.2889
   86MOL    C1247782   3.891   4.602   1.020 -0.2957 -0.2915  0.0987
   86MOL    C1347783   3.774   4.634   1.113 -0.8284  0.1950  0.4344
   86MOL    O1447784   3.969   4.508   0.774  0.2566  0.4026 -0.0243
   86MOL    C1547785   3.957   4.223   0.715  0.5294  0.4740  0.1059
   86MOL    C1647786   3.944   4.080   0.699 -0.0053 -0.3280  0.8190
   86MOL    C1747787   3.966   4.020   0.575 -0.2914  0.1032  0.0428
   86MOL    C1847788   3.975   3.878   0.558  0.2572  0.9322 -0.3015
   86MOL    H1947789   3.914   3.785   0.880  1.8120 -2.0242 -1.8420
   86MOL    H2047790   3.852   3.987   1.008  0.3493 -0.5135  0.4078
   86MOL    H2147791   3.867   4.229   1.043 -0.5739 -0.8897  0.3758
   86MOL    H2247792   3.987   4.628   1.065  0.9651  2.4272 -3.8635
   86MOL    H2347793   3.882   4.666   0.932 -2.4332  0.1251  0.5913
   86MOL    H2447794   3.798   4.720   1.176  1.5534  0.7766 -1.2212
   86MOL    H2547795   3.686   4.665   1.057 -0.7450  2.2869  1.3933
   86MOL    H2647796   3.984   4.284   0.631 -1.4484  0.2222 -0.7175
   86MOL    H2747797   3.984   4.087   0.492  1.1742 -0.5066 -0.1502
   86MOL    H2847798   3.990   3.833   0.461 -0.0339  0.2189 -0.0174
   86MOL    H2947799   3.953   3.504   0.537 -3.0712  0.7660 -1.8488
   86MOL    O3047800   3.822   4.591   1.389  0.0279  0.6747 -0.4059
   86MOL    C3147801   3.790   4.502   1.314  0.0548  0.0556  0.5084
   86MOL    O3247802   3.739   4.525   1.196  0.4628 -1.1521 -0.0263
   86MOL    C3347803   3.776   4.355   1.357  0.3431  0.2949  0.1294
   86MOL    C3447804   3.708   4.271   1.267 -0.2394  0.1053  0.1940
   86MOL    C3547805   3.697   4.138   1.301  0.7641  0.2490 -0.6847
   86MOL    C3647806   3.655   4.049   1.201 -0.1097  0.0240  0.1299
   86MOL    C3747807   3.645   3.913   1.228 -0.1541  0.6060  0.1592
   86MOL    C3847808   3.663   3.865   1.359 -0.4940  0.2622  0.5565
   86MOL    C3947809   3.641   3.713   1.390 -0.3594 -0.4498  0.0368
   86MOL    O4047810   3.665   3.679   1.519 -0.3696  0.0022 -0.2802
   86MOL    C4147811   3.665   3.540   1.546 -0.0481  0.3224  0.9020
   86MOL    C4247812   3.690   3.500   1.694  0.0746 -0.4172 -0.3172
   86MOL    O4347813   3.594   3.637   1.307 -0.3660  0.0451 -0.3113
   86MOL    C4447814   3.711   3.951   1.457 -0.2603  0.1090  0.1456
   86MOL    C4547815   3.724   4.089   1.432 -0.1302  0.1405  0.7398
   86MOL    C4647816   3.775   4.179   1.523 -0.3503 -0.2377  0.1815
   86MOL    C4747817   3.810   4.314   1.488  0.2838  0.6803 -0.0378
   86MOL    H4847818   3.671   4.306   1.172  1.0587  0.2650 -0.2572
   86MOL    H4947819   3.630   4.081   1.101 -2.0345 -0.5804  0.3979
   86MOL    H5047820   3.601   3.841   1.161  3.4106 -1.9241  0.4236
   86MOL    H5147821   3.751   3.508   1.487  0.8707 -0.0521  2.4143
   86MOL    H5247822   3.577   3.486   1.512  1.1944  0.1393 -2.1281
   86MOL    H5347823   3.707   3.393   1.696 -0.8924 -0.5606  0.0775
   86MOL    H5447824   3.788   3.531   1.730  0.6546 -1.5723 -0.8651
   86MOL    H5547825   3.732   3.911   1.555 -1.0820 -0.8471 -0.0598
   86MOL    H5647826   3.800   4.141   1.622 -1.5463 -2.0496 -0.1695
   86MOL    H5747827   3.855   4.386   1.555  0.4463 -0.2849  0.9144
   86MOL    O5847828   3.707   3.564   1.955  0.2028 -0.3512 -0.1984
   86MOL    C5947829   3.596   3.565   1.904 -0.1836 -0.2646 -0.5735
   86MOL    O6047830   3.578   3.541   1.774  0.1571 -0.2011  0.4235
   86MOL    C6147831   3.471   3.597   1.980  0.2801  0.7561 -0.6531
   86MOL    C6247832   3.337   3.582   1.930 -0.7692 -0.2169  0.0776
   86MOL    C6347833   3.228   3.624   2.007  0.9910  0.1366  0.2864
   86MOL    C6447834   3.096   3.606   1.955 -0.2602 -0.0466  0.4801
   86MOL    C6547835   2.983   3.648   2.031 -0.4800  0.3527  0.8335
   86MOL    C6647836   3.000   3.710   2.162 -0.5309  1.1032  0.2856
   86MOL    C6747837   2.885   3.756   2.243 -0.7792  0.4813 -0.2173
   86MOL    O6847838   2.771   3.748   2.176 -0.1053  0.0464  0.0536
   86MOL    C6947839   2.647   3.779   2.245 -0.4256 -0.2093 -0.0399
   86MOL    C7047840   2.547   3.838   2.145  0.1842  0.4809  0.1011
   86MOL    O7147841   2.899   3.800   2.353  0.3639 -0.6913  0.0179
   86MOL    C7247842   3.133   3.721   2.216  0.3148 -0.3877  0.2237
   86MOL    C7347843   3.246   3.687   2.135  0.2518 -0.3912 -0.2268
   86MOL    C7447844   3.378   3.688   2.187  0.2753 -0.7943 -0.3968
   86MOL    C7547845   3.485   3.640   2.112  0.3173  0.2543 -0.4449
   86MOL    H7647846   3.319   3.543   1.831 -0.2948  0.0164 -0.1015
   86MOL    H7747847   3.098   3.564   1.856 -1.2012  0.9135  0.0456
   86MOL    H7847848   2.886   3.630   1.987 -1.0777  3.4276  0.8173
   86MOL    H7947849   2.672   3.849   2.325  0.4398  0.1796 -0.6427
   86MOL    H8047850   2.610   3.686   2.289 -0.4120 -1.1238 -1.9389
   86MOL    H8147851   2.584   3.933   2.108 -2.0637  1.3663  0.0253
   86MOL    H8247852   2.536   3.771   2.060  0.0826  0.0012  0.4882
   86MOL    H8347853   3.153   3.760   2.315  3.0592 -0.7604 -0.1262
   86MOL    H8447854   3.398   3.733   2.283  1.4433 -0.3640 -0.8381
   86MOL    H8547855   3.580   3.651   2.161  0.5444  2.7115 -1.3987
   86MOL    O8647856   2.350   3.658   2.242 -0.4641 -0.5516 -0.0291
   86MOL    C8747857   2.323   3.772   2.217  0.1035  0.0470 -0.8861
   86MOL    O8847858   2.414   3.868   2.183 -0.2128  0.1182  0.1712
   86MOL    C8947859   2.185   3.822   2.225 -0.1461  0.0360  0.1886
   86MOL    C9047860   2.089   3.725   2.261 -0.0449 -0.2953  0.6852
   86MOL    C9147861   1.956   3.754   2.287 -0.9145  0.5953  0.2488
   86MOL    C9247862   1.864   3.658   2.343  0.1469 -0.1193 -0.3518
   86MOL    C9347863   1.726   3.689   2.366  0.7675 -0.2820  0.4900
   86MOL    C9447864   1.681   3.823   2.345  0.4254 -0.5893 -0.2528
   86MOL    C9547865   1.541   3.860   2.364 -0.0861 -0.5251  0.1853
   86MOL    O9647866   1.511   3.995   2.335  0.6508 -0.2299  0.0567
   86MOL    C9747867   1.378   4.036   2.364  0.1818  0.8205 -0.1511
   86MOL    C9847868   1.374   4.081   2.514  0.2512 -0.7442  0.2085
   86MOL    O9947869   1.457   3.778   2.394  0.6161  0.3887 -0.7311
   86MOL   C10047870   1.778   3.914   2.292  0.1109  0.1951 -0.0399
   86MOL   C10147871   1.915   3.886   2.269 -0.2816  0.0420  0.5002
   86MOL   C10247872   2.004   3.982   2.218 -0.1820 -0.4088  1.2759
   86MOL   C10347873   2.142   3.951   2.199 -0.0427  0.2599 -0.1745
   86MOL   H10447874   2.124   3.625   2.282  0.2305 -0.9712 -2.6581
   86MOL   H10547875   1.888   3.553   2.343  0.4505 -0.0540  0.3776
   86MOL   H10647876   1.648   3.618   2.389  0.7401 -0.2009  0.6454
   86MOL   H10747877   1.299   3.961   2.356 -0.2839  1.1140  1.4273
   86MOL   H10847878   1.352   4.124   2.305 -1.0308  0.1829 -0.5768
   86MOL   H10947879   1.270   4.081   2.547 -0.4104 -1.2726 -1.8265
   86MOL   H11047880   1.419   4.002   2.575 -0.7319 -0.2527  1.5999
   86MOL   H11147881   1.749   4.013   2.261  4.3039  2.0515  1.6301
   86MOL   H11247882   1.973   4.083   2.193 -0.3585 -0.5660  0.8527
   86MOL   H11347883   2.210   4.026   2.161  2.0037 -1.8965 -0.9167
   86MOL   O11447884   1.489   4.171   2.747 -0.0253 -0.3844  0.1991
   86MOL   C11547885   1.488   4.249   2.651  0.1192 -0.3265 -0.9825
   86MOL   O11647886   1.448   4.204   2.526 -0.6757 -0.4002  0.3371
   86MOL   C11747887   1.537   4.388   2.648 -1.1027  0.5255  0.0510
   86MOL   C11847888   1.536   4.460   2.525 -0.0252  0.7002 -0.5448
   86MOL   C11947889   1.605   4.587   2.515 -0.6330  0.2165  0.4324
   86MOL   C12047890   1.610   4.659   2.393 -0.2874  0.3066  0.8425
   86MOL   C12147891   1.672   4.782   2.383 -0.7567 -0.1815  0.1435
   86MOL   C12247892   1.741   4.836   2.493  0.5675 -0.1014 -0.4191
   86MOL   C12347893   1.820   4.963   2.465 -0.2179  0.4740 -0.6617
   86MOL   O12447894   1.872   5.006   2.578 -0.0474  0.1650  0.3187
   86MOL   C12547895   1.967   5.117   2.589 -0.4382 -0.2363  0.0899
   86MOL   C12647896   2.094   5.083   2.515 -0.2753  0.2493  0.2142
   86MOL   O12747897   1.849   5.013   2.356  0.3358 -0.4311  0.0151
   86MOL   C12847898   1.729   4.772   2.620 -0.7741 -0.3823 -0.6248
   86MOL   C12947899   1.669   4.644   2.628  0.4741 -0.0252 -0.2825
   86MOL   C13047900   1.662   4.573   2.749  0.4515  0.3287  0.1385
   86MOL   C13147901   1.599   4.447   2.760  0.2229  0.7771 -0.0217
   86MOL   H13247902   1.503   4.414   2.433 -0.0652  1.3936 -0.8805
   86MOL   H13347903   1.563   4.614   2.307 -1.9466  0.5216  1.6354
   86MOL   H13447904   1.681   4.833   2.289  0.0922 -0.8273 -0.1328
   86MOL   H13547905   1.983   5.131   2.696  0.4588  1.1024 -0.2049
   86MOL   H13647906   1.917   5.208   2.552  0.7642  0.6227  0.5712
   86MOL   H13747907   2.072   5.041   2.417  3.4014  0.4194 -0.7297
   86MOL   H13847908   2.150   5.174   2.492  0.2034 -0.3780 -1.1332
   86MOL   H13947909   1.774   4.830   2.699 -0.6402  2.1994 -2.5525
   86MOL   H14047910   1.709   4.608   2.839 -3.5661  1.5281  1.8749
   86MOL   H14147911   1.598   4.401   2.857 -0.1483 -1.0684 -0.8628
   86MOL   O14247912   2.172   4.822   2.455  0.0388 -0.8160  0.6403
   86MOL   C14347913   2.202   4.870   2.563  0.4245 -0.3942  0.2833
   86MOL   O14447914   2.173   4.996   2.595  0.2772 -0.1228  0.1280
   86MOL   C14547915   2.277   4.799   2.667 -0.1359  0.2079 -0.7379
   86MOL   C14647916   2.277   4.848   2.798  0.1416 -0.0711 -0.2453
   86MOL   C14747917   2.338   4.779   2.900  0.5332 -0.3838 -1.0857
   86MOL   C14847918   2.339   4.838   3.031  0.0494 -0.3069  0.5426
   86MOL   C14947919   2.412   4.781   3.135 -0.0170  0.0762  0.4780
   86MOL   C15047920   2.492   4.666   3.109 -0.2138 -0.2390  0.0215
   86MOL   C15147921   2.577   4.603   3.215 -0.7723 -0.4681  0.5235
   86MOL   O15247922   2.535   4.636   3.340 -0.4105 -1.3460 -0.1019
   86MOL   C15347923   2.579   4.563   3.448  0.3760  0.0494  0.6254
   86MOL   C15447924   2.489   4.447   3.477  0.5433 -0.1708  0.0494
   86MOL   O15547925   2.666   4.518   3.188 -0.0842 -0.5948  0.5700
   86MOL   C15647926   2.497   4.609   2.979  0.2815 -0.0137  0.0472
   86MOL   C15747927   2.412   4.662   2.878 -0.7355  0.5736  0.2359
   86MOL   C15847928   2.415   4.612   2.745 -0.0895 -0.1997 -0.5080
   86MOL   C15947929   2.346   4.681   2.643 -0.8720  0.0793  0.3013
   86MOL   H16047930   2.225   4.941   2.817 -1.2195 -0.9735  0.5426
   86MOL   H16147931   2.271   4.922   3.031  1.6495  1.0253 -0.1821
   86MOL   H16247932   2.406   4.808   3.240  0.8141  0.8109  0.3365
   86MOL   H16347933   2.581   4.636   3.529 -0.5143 -0.0686  0.7525
   86MOL   H16447934   2.683   4.530   3.442  0.0595 -0.9118  0.3662
   86MOL   H16547935   2.519   4.419   3.578 -0.3786  1.3087  0.7482
   86MOL   H16647936   2.391   4.495   3.474  1.3216  1.4744  0.4788
   86MOL   H16747937   2.559   4.523   2.957 -0.2916 -0.1887 -0.9440
   86MOL   H16847938   2.485   4.535   2.716  1.4613  0.9958 -0.0103
   86MOL   H16947939   2.351   4.647   2.540 -0.9121 -1.1126  0.6909
   86MOL   O17047940   2.300   4.351   3.306  0.0358  0.2971  0.3526
   86MOL   C17147941   2.409   4.302   3.313  0.8444 -0.2141  0.2169
   86MOL   O17247942   2.506   4.337   3.395  0.3196 -0.5447 -0.0637
   86MOL   C17347943   2.451   4.193   3.218 -0.0173 -0.0066  0.9444
   86MOL   C17447944   2.581   4.160   3.190 -0.0544  0.4200 -0.0411
   86MOL   C17547945   2.618   4.038   3.124  0.8299  0.2495  0.0812
   86MOL   C17647946   2.751   3.996   3.107  0.3335  0.0920 -0.9086
   86MOL   C17747947   2.777   3.874   3.043  0.2508  0.3969  0.4803
   86MOL   C17847948   2.669   3.790   3.003 -0.0871  0.4483  0.4060
   86MOL   C17947949   2.701   3.659   2.936 -0.3383  0.0547 -0.5591
   86MOL   O18047950   2.813   3.656   2.874 -0.4898 -0.3666 -0.3682
   86MOL   C18147951   2.837   3.565   2.766  0.0152 -0.1088 -0.5281
   86MOL   C18247952   2.911   3.445   2.825  0.7094  0.0620 -0.3447
   86MOL   O18347953   2.634   3.557   2.951  0.0160 -0.2578 -0.6953
   86MOL   C18447954   2.532   3.836   3.016 -0.4845  0.6415  0.8668
   86MOL   C18547955   2.510   3.958   3.070  0.1835 -0.4812 -0.5165
   86MOL   C18647956   2.381   4.011   3.075 -0.2721 -0.0774  0.5452
   86MOL   C18747957   2.349   4.122   3.156 -0.5619  0.4146  0.2037
   86MOL   H18847958   2.661   4.221   3.230  0.1241 -0.8279  1.5728
   86MOL   H18947959   2.837   4.053   3.138 -0.5965  0.5015  0.9926
   86MOL   H19047960   2.879   3.841   3.031  0.6829  2.6875 -2.9813
   86MOL   H19147961   2.893   3.611   2.684 -0.3406  2.2560  0.5275
   86MOL   H19247962   2.742   3.527   2.728 -1.3288  1.7987  0.8364
   86MOL   H19347963   2.872   3.414   2.922  0.5961 -0.6871 -0.6289
   86MOL   H19447964   2.893   3.360   2.759  0.5033  0.5979 -0.9791
   86MOL   H19547965   2.447   3.782   2.978 -1.1752  2.2817  0.0655
   86MOL   H19647966   2.303   3.951   3.030 -2.3937  3.1016 -0.2135
   86MOL   H19747967   2.246   4.150   3.172 -0.2590  1.5832  0.2004
   86MOL   O19847968   3.103   3.427   2.620 -0.1001  0.0681  0.4192
   86MOL   C19947969   3.133   3.466   2.737 -0.0883  0.5593  0.2172
   86MOL   O20047970   3.045   3.474   2.844 -0.3571 -0.1847  0.5488
   86MOL   C20147971   3.273   3.505   2.783  0.2082  0.3257 -0.1145
   86MOL   C20247972   3.377   3.494   2.689 -0.2772  0.8251  0.9595
   86MOL   C20347973   3.511   3.527   2.734  0.0566  0.2268  0.5810
   86MOL   C20447974   3.618   3.526   2.642 -0.3078  0.4892 -0.0929
   86MOL   C20547975   3.752   3.557   2.693  0.6077  1.0977 -0.0678
   86MOL   C20647976   3.773   3.582   2.830  0.0467  0.0412  0.5217
   86MOL   C20747977   3.906   3.612   2.872 -0.0747 -0.0458  0.2761
   86MOL   O20847978   3.913   3.655   2.998 -0.7083 -0.0155 -0.1522
   86MOL   C20947979   4.039   3.684   3.056 -0.2332 -0.0167  0.2136
   86MOL   C21047980   4.096   3.813   3.003  0.1992  0.5441  0.0333
   86MOL   O21147981   4.007   3.608   2.799  0.1853 -0.0590  0.1468
   86MOL   C21247982   3.663   3.584   2.917 -0.4262  0.0213  0.0291
   86MOL   C21347983   3.538   3.557   2.869 -0.1668 -0.0908  0.1422
   86MOL   C21447984   3.428   3.560   2.959 -0.5561 -0.3536  0.4525
   86MOL   C21547985   3.303   3.531   2.918  0.5449  0.1064  0.4272
   86MOL   H21647986   3.350   3.484   2.585  4.3033 -0.8702 -0.1579
   86MOL   H21747987   3.609   3.502   2.537  1.5415  1.4886 -0.5160
   86MOL   H21847988   3.840   3.552   2.632  2.2956  1.2582  2.2783
   86MOL   H21947989   4.112   3.604   3.043  0.9164  1.1317 -0.4922
   86MOL   H22047990   4.024   3.677   3.164 -0.2861 -1.4456  0.1312
   86MOL   H22147991   4.171   3.803   2.925  0.9852 -3.5201  1.2138
   86MOL   H22247992   4.020   3.879   2.960  0.3028  0.7782  0.2087
   86MOL   H22347993   3.668   3.604   3.024  1.5847 -0.2009  0.0046
   86MOL   H22447994   3.438   3.577   3.065  0.7147 -2.0781  0.6384
   86MOL   H22547995   3.219   3.538   2.987  2.3144  1.9423  2.4667
   86MOL   O22647996   4.299   3.719   3.164  0.6160  0.2058  0.4719
   86MOL   C22747997   4.270   3.838   3.171  0.1891 -0.0876  0.8034
   86MOL   O22847998   4.166   3.893   3.104 -0.1800  1.0051  0.0097
   86MOL   C22947999   4.339   3.938   3.259 -0.0106 -0.0333 -0.3427
   86MOL   C23048000   4.298   4.068   3.288  0.1763 -0.2538  0.3045
   86MOL   C23148001   4.364   4.141   3.385  0.2056 -0.2975 -0.3216
   86MOL   C23248002   4.324   4.272   3.403  0.0807 -0.0223 -0.8052
   86MOL   C23348003   4.385   4.360   3.501 -0.2832  0.0338  0.2783
   86MOL   C23448004   4.491   4.306   3.573 -0.2327 -0.2164  0.1766
   86MOL   C23548005   4.560   4.387   3.679  0.1980  0.4903 -0.5639
   86MOL   O23648006   4.485   4.485   3.722  0.3505 -0.0454  0.4141
   86MOL   C23748007   4.509   4.560   3.841  0.1603 -0.3863  0.6435
   86MOL   C23848008   4.460   4.482   3.960 -0.2558 -0.3325  0.6876
   86MOL   O23948009   4.672   4.354   3.720 -0.1121 -0.1383 -0.4851
   86MOL   C24048010   4.534   4.173   3.555  0.3459  0.0524 -0.4478
   86MOL   C24148011   4.468   4.087   3.464  0.0605  0.2452 -0.2687
   86MOL   C24248012   4.515   3.958   3.431  0.5617  0.6394  0.2131
   86MOL   C24348013   4.449   3.885   3.333 -0.4386 -0.5130 -0.0876
   86MOL   H24448014   4.213   4.106   3.234  0.4439  0.3038  0.2775
   86MOL   H24548015   4.234   4.314   3.360 -1.5805 -0.9261  1.6860
   86MOL   H24648016   4.359   4.462   3.523 -1.7375 -0.2527 -0.0733
   86MOL   H24748017   4.473   4.663   3.835 -0.3896 -0.6225 -0.1611
   86MOL   H24848018   4.615   4.582   3.851  0.0026  0.2236  0.9745
   86MOL   H24948019   4.353   4.487   3.981 -0.2366  0.3933  0.6213
   86MOL   H25048020   4.490   4.378   3.949 -1.2205 -0.8293  2.6002
   86MOL   H25148021   4.615   4.136   3.617  0.7952 -0.2547 -1.2075
   86MOL   H25248022   4.598   3.907   3.478  1.7571  1.5975 -0.8389
   86MOL   H25348023   4.491   3.788   3.315 -1.4937 -0.6953 -1.6385
   86MOL   O25448024   4.408   4.715   4.068  0.2679 -0.3955 -0.2161
   86MOL   C25548025   4.489   4.643   4.119 -0.8230 -0.3759  0.2977
   86MOL   O25648026   4.523   4.527   4.070 -0.3038 -0.3359 -0.1806
   86MOL   C25748027   4.578   4.687   4.230 -0.1707  0.1006 -0.0152
   86MOL   C25848028   4.632   4.587   4.313  0.2410 -0.4385 -0.1683
   86MOL   C25948029   4.700   4.624   4.430  0.2659  0.4892 -0.2450
   86MOL   C26048030   4.737   4.523   4.524 -0.1951 -0.1844 -0.0963
   86MOL   C26148031   4.794   4.563   4.646  0.3634  0.0478 -0.8067
   86MOL   C26248032   4.817   4.693   4.686 -0.7475  0.1806  0.4779
   86MOL   C26348033   4.868   4.737   4.815  0.1675 -0.1952 -0.3377
   86MOL   O26448034   4.962   4.647   4.854 -0.2012 -0.3063  0.4735
   86MOL   C26548035   5.060   4.681   4.944 -0.3110  0.0279 -0.2800
   86MOL   C26648036   5.183   4.611   4.889  0.1867  0.0268  0.1093
   86MOL   O26748037   4.844   4.843   4.874  0.2558 -0.4299 -0.7027
   86MOL   C26848038   4.788   4.790   4.582  0.3104 -0.0541 -0.3030
   86MOL   C26948039   4.721   4.760   4.460 -0.6182 -0.0484 -0.0984
   86MOL   C27048040   4.679   4.858   4.374  0.3629 -0.1983  0.2796
   86MOL   C27148041   4.599   4.826   4.257  0.4788  0.1495  0.1890
   86MOL   H27248042   4.619   4.480   4.298 -0.1293 -0.2294 -1.4507
   86MOL   H27348043   4.726   4.418   4.502 -0.5513 -0.1359 -0.1472
   86MOL   H27448044   4.813   4.481   4.714 -0.9703  0.7537  0.4375
   86MOL   H27548045   5.035   4.641   5.042 -1.0694 -1.3273 -1.0104
   86MOL   H27648046   5.103   4.781   4.948  1.5923 -0.7805  0.3612
   86MOL   H27748047   5.265   4.602   4.960  0.1653 -1.2997 -0.0182
   86MOL   H27848048   5.173   4.505   4.864 -0.0421 -0.4350  2.0745
   86MOL   H27948049   4.793   4.898   4.594  0.4683  0.2358 -2.7217
   86MOL   H28048050   4.699   4.960   4.400  0.9764 -0.4817  0.9349
   86MOL   H28148051   4.558   4.898   4.188  1.1919  1.8777  1.5182
   86MOL   O28248052   5.370   4.520   4.696  0.0001  0.5658 -0.0302
   86MOL   C28348053   5.299   4.622   4.678  1.2422  0.3382  0.2092
   86MOL   O28448054   5.216   4.677   4.768 -0.5819  0.0367 -1.2123
   86MOL   C28548055   5.295   4.689   4.545 -0.1229  0.5132  0.6648
   86MOL   C28648056   5.179   4.763   4.505 -0.0126  0.2810 -0.4397
   86MOL   C28748057   5.183   4.827   4.383  0.1890 -0.3456 -0.4601
   86MOL   C28848058   5.065   4.885   4.338 -0.3885  0.5605  0.3057
   86MOL   C28948059   5.061   4.956   4.214 -0.6125 -0.0681  0.2840
   86MOL   C29048060   5.170   4.949   4.124  0.1888 -0.7915 -0.1480
   86MOL   C29148061   5.153   5.004   3.986 -0.2836  0.1494 -0.6307
   86MOL   O29248062   5.054   5.095   3.980  0.2552  0.1344  0.2872
   86MOL   C29348063   5.009   5.147   3.851 -0.6507 -0.3154 -0.3201
   86MOL   C29448064   4.898   5.063   3.791 -0.4792 -0.1054 -0.1102
   86MOL   O29548065   5.222   4.971   3.885  0.6153  0.3376 -0.3478
   86MOL   C29648066   5.290   4.883   4.166  0.1311  0.7249 -0.5504
   86MOL   C29748067   5.297   4.827   4.296  0.1940 -0.0181  0.2139
   86MOL   C29848068   5.412   4.766   4.342  0.3205 -0.1229 -0.5279
   86MOL   C29948069   5.406   4.688   4.462 -0.1681 -0.2527  0.2761
   86MOL   H30048070   5.095   4.782   4.570  0.4464  2.4140 -0.4477
   86MOL   H30148071   4.981   4.876   4.406 -1.3736 -0.3831 -1.0189
   86MOL   H30248072   4.970   4.999   4.178  1.2420  2.5894 -1.4187
   86MOL   H30348073   5.092   5.149   3.781  0.6072  3.3463  1.1258
   86MOL   H30448074   4.990   5.254   3.856 -0.8035 -0.3356 -0.4863
   86MOL   H30548075   4.889   5.073   3.683 -0.1211 -0.6356 -0.1889
   86MOL   H30648076   4.911   4.957   3.814  1.5000  0.1853  0.1971
   86MOL   H30748077   5.373   4.890   4.096 -2.0987  2.1348 -3.1637
   86MOL   H30848078   5.486   4.760   4.264  0.3418  0.6883 -0.5754
   86MOL   H30948079   5.479   4.609   4.477 -1.0709 -1.0763  0.3852
   86MOL   O31048080   4.663   4.910   3.803  0.2588 -0.0276 -0.0658
   86MOL   C31148081   4.669   5.025   3.848  1.1464  0.4254 -0.3731
   86MOL   O31248082   4.782   5.104   3.855  0.1063  0.3606 -0.2349
   86MOL   C31348083   4.549   5.085   3.907 -1.3710  0.3406  0.1815
   86MOL   C31448084   4.546   5.226   3.929 -0.3214 -0.1195  0.1223
   86MOL   C31548085   4.430   5.285   3.987  0.1700 -0.0737  0.1168
   86MOL   C31648086   4.422   5.426   4.019 -0.7134  0.5652  0.4301
   86MOL   C31748087   4.304   5.478   4.070 -0.3783 -0.0243  0.1840
   86MOL   C31848088   4.196   5.400   4.107  0.1769 -0.1230  0.1005
   86MOL   C31948089   4.079   5.468   4.173  0.2635 -0.2871 -0.3568
   86MOL   O32048090   4.121   5.579   4.228  0.2735 -0.0388  0.6207
   86MOL   C32148091   4.024   5.678   4.269  0.0602 -0.5492  0.8546
   86MOL   C32248092   4.097   5.787   4.347  0.3089 -0.5342  0.7361
   86MOL   O32348093   3.962   5.425   4.178  0.1585 -0.0388 -0.7752
   86MOL   C32448094   4.200   5.266   4.079  0.6373  0.5258 -0.5091
   86MOL   C32548095   4.316   5.204   4.023  0.4589  0.7288  0.0765
   86MOL   C32648096   4.325   5.067   4.001  0.4005 -0.2736  0.5009
   86MOL   C32748097   4.440   5.008   3.938 -0.2747 -0.6727  0.6268
   86MOL   H32848098   4.626   5.295   3.907 -1.1132  0.1775 -1.9834
   86MOL   H32948099   4.504   5.492   3.995 -0.3279 -0.1744 -0.3232
   86MOL   H33048100   4.293   5.585   4.079  0.1036  0.1028 -0.6524
   86MOL   H33148101   3.951   5.627   4.332 -0.7008  0.0390  0.4560
   86MOL   H33248102   3.970   5.711   4.180  1.6477  0.9137  0.4016
   86MOL   H33348103   4.034   5.842   4.417  3.3259 -0.5187  3.5532
   86MOL   H33448104   4.167   5.750   4.422  0.5204  1.3027  1.4722
   86MOL   H33548105   4.120   5.206   4.120  0.6636  1.6690  1.3044
   86MOL   H33648106   4.241   5.000   4.008  1.2609 -1.3803  0.4261
   86MOL   H33748107   4.444   4.903   3.915  0.3228  0.2425 -3.7292
   86MOL   O33848108   4.345   5.909   4.393 -0.2432 -0.7490 -0.0442
   86MOL   C33948109   4.295   5.919   4.285  0.1645  0.3243  0.7908
   86MOL   O34048110   4.169   5.863   4.253 -0.2042 -0.2525 -0.7431
   86MOL   C34148111   4.365   5.994   4.173  0.1370  0.1659 -0.1961
   86MOL   C34248112   4.313   5.979   4.047  0.0040 -0.0002 -0.2104
   86MOL   C34348113   4.355   6.054   3.937  1.1551  0.8134  0.2269
   86MOL   C34448114   4.295   6.039   3.809 -0.2068  0.0546 -0.0660
   86MOL   C34548115   4.345   6.109   3.703 -0.2980 -0.3839  0.4400
   86MOL   C34648116   4.454   6.197   3.712  0.0040 -0.5978  0.1822
   86MOL   C34748117   4.508   6.274   3.590  0.1427 -0.1954 -0.1089
   86MOL   O34848118   4.417   6.295   3.502  0.3453  0.0116  0.1312
   86MOL   C34948119   4.451   6.341   3.371 -0.0297 -0.1826  0.2064
   86MOL   C35048120   4.525   6.241   3.278  0.4153 -0.1096  0.4495
   86MOL   O35148121   4.633   6.300   3.583  0.0891 -0.3630 -0.1159
   86MOL   C35248122   4.516   6.213   3.841  0.4592 -0.1538 -0.1544
   86MOL   C35348123   4.470   6.134   3.948  0.0425  0.0861  0.2210
   86MOL   C35448124   4.532   6.140   4.078 -0.3675  0.1842  0.9416
   86MOL   C35548125   4.476   6.077   4.189  0.3616 -0.3399 -0.5073
   86MOL   H35648126   4.236   5.907   4.021 -0.4623  0.8419 -1.2547
   86MOL   H35748127   4.221   5.964   3.785 -0.5586 -0.2027  1.7726
   86MOL   H35848128   4.299   6.088   3.608  2.7135  2.5436 -1.7918
   86MOL   H35948129   4.511   6.432   3.380  2.0002 -1.7465  3.3307
   86MOL   H36048130   4.360   6.370   3.320  0.7830  2.0561 -0.0385
   86MOL   H36148131   4.536   6.288   3.180  0.4371 -0.0605  0.4756
   86MOL   H36248132   4.627   6.239   3.317  0.9318 -0.5218 -0.8881
   86MOL   H36348133   4.607   6.271   3.844  0.9208 -0.8726  0.0784
   86MOL   H36448134   4.626   6.192   4.085  0.1173 -0.8291  2.0994
   86MOL   H36548135   4.527   6.087   4.284  1.1487  0.9701 -1.0555
   86MOL   O36648136   4.592   6.030   3.097  0.0257 -0.0330 -0.1900
   86MOL   C36748137   4.511   6.017   3.184 -0.7492  0.1719 -0.2430
   86MOL   O36848138   4.468   6.110   3.269 -0.1756 -0.2034  0.4066
   86MOL   C36948139   4.439   5.889   3.200 -0.0800 -0.5374  0.5519
   86MOL   C37048140   4.453   5.790   3.103  0.3039  0.1515  0.4785
   86MOL   C37148141   4.383   5.668   3.113 -0.1276  0.0883  0.1660
   86MOL   C37248142   4.401   5.566   3.018  0.3088  0.2293 -0.6284
   86MOL   C37348143   4.327   5.447   3.026 -0.2585  0.1532 -0.3592
   86MOL   C37448144   4.239   5.427   3.136  0.6124  0.6703  0.4729
   86MOL   C37548145   4.148   5.308   3.155  0.2059  0.6224  0.0539
   86MOL   O37648146   4.200   5.199   3.098 -0.1575  0.5346  0.5490
   86MOL   C37748147   4.148   5.064   3.119  0.6001  0.0402  0.4372
   86MOL   C37848148   4.231   4.988   3.225 -1.0866 -0.2716 -0.2110
   86MOL   O37948149   4.043   5.313   3.210 -0.7250 -0.3165 -0.0904
   86MOL   C38048150   4.226   5.528   3.233  0.0016  0.5869  0.1365
   86MOL   C38148151   4.295   5.649   3.220  0.0832  0.0474 -0.0563
   86MOL   C38248152   4.281   5.750   3.320  1.0908  0.7524 -0.6630
   86MOL   C38348153   4.357   5.865   3.311 -0.6634  0.5179  0.6181
   86MOL   H38448154   4.509   5.801   3.012 -0.3284 -1.7443 -0.1691
   86MOL   H38548155   4.468   5.584   2.935 -0.9723 -1.2846 -2.0459
   86MOL   H38648156   4.351   5.370   2.955  2.3928  0.1776  0.4390
   86MOL   H38748157   4.155   5.017   3.021  0.8621  0.7199  0.1215
   86MOL   H38848158   4.044   5.069   3.149  0.0969 -0.3813 -1.2034
   86MOL   H38948159   4.337   4.990   3.202 -0.4621  0.9446  2.4975
   86MOL   H39048160   4.230   5.033   3.325 -2.6459 -2.0976  0.6283
   86MOL   H39148161   4.167   5.511   3.321 -3.6273  0.0238 -2.2886
   86MOL   H39248162   4.213   5.732   3.402 -1.0983  1.6906 -2.1942
   86MOL   H39348163   4.348   5.938   3.390  0.7896 -0.0964  1.3795
   86MOL   O39448164   4.343   4.756   3.118 -0.5009  0.0334 -0.9343
   86MOL   C39548165   4.225   4.768   3.149  0.1904  0.0631 -0.3110
   86MOL   O39648166   4.174   4.864   3.225  0.3689  0.3974 -0.4736
   86MOL   C39748167   4.114   4.669   3.113  0.0328 -0.4309  0.2266
   86MOL   C39848168   4.142   4.545   3.058 -0.2200 -0.8658 -0.0696
   86MOL   C39948169   4.034   4.460   3.017 -0.2380  0.1814 -0.0485
   86MOL   C40048170   4.064   4.327   2.985 -0.8791  0.0786  0.2806
   86MOL   C40148171   3.957   4.237   2.947 -0.1040 -0.8079  0.1815
   86MOL   C40248172   3.822   4.278   2.951 -0.3640 -0.1281  0.1180
   86MOL   C40348173   3.705   4.197   2.916 -0.5153 -0.1566 -0.2643
   86MOL   O40448174   3.739   4.065   2.874  0.1650  0.4853 -0.0183
   86MOL   C40548175   3.643   3.973   2.834  0.6000 -0.0564 -0.0755
   86MOL   C40648176   3.610   4.013   2.682  0.5093 -0.0535  0.1493
   86MOL   O40748177   3.592   4.237   2.912  0.1816 -0.2913  0.2231
   86MOL   C40848178   3.799   4.415   2.986 -0.2072  0.0983  1.3321
   86MOL   C40948179   3.903   4.501   3.022 -0.3611 -0.5235  0.2252
   86MOL   C41048180   3.873   4.628   3.070 -0.2570  0.0478  0.0972
   86MOL   C41148181   3.978   4.710   3.125 -0.1302  0.3549  0.5108
   86MOL   H41248182   4.244   4.510   3.050  0.6165  0.8286  2.4707
   86MOL   H41348183   4.167   4.292   2.984 -0.9538 -0.2204 -2.6031
   86MOL   H41448184   3.985   4.145   2.898 -0.9277 -1.8358  1.5903
   86MOL   H41548185   3.558   3.978   2.903  0.9105 -3.0636  0.5989
   86MOL   H41648186   3.703   3.883   2.846 -1.6940 -1.6853 -0.6767
   86MOL   H41748187   3.698   4.058   2.637 -0.2163  0.0096 -1.2247
   86MOL   H41848188   3.582   3.924   2.626  0.2676  1.0508 -1.5058
   86MOL   H41948189   3.694   4.440   2.995  0.0293  0.9556  1.8089
   86MOL   H42048190   3.773   4.659   3.096  0.3861  1.3599  1.0592
   86MOL   H42148191   3.955   4.804   3.172  1.7050  0.5451  1.0617
   86MOL   O42248192   3.418   4.013   2.484  0.2853 -1.0532  0.0216
   86MOL   C42348193   3.417   4.100   2.569  0.6912 -0.3390  0.0025
   86MOL   O42448194   3.502   4.108   2.673 -0.0633  0.0394  0.0343
   86MOL   C42548195   3.321   4.211   2.572  0.0975  0.4327  0.1954
   86MOL   C42648196   3.329   4.311   2.669 -0.2567  0.1545  0.1174
   86MOL   C42748197   3.230   4.408   2.673 -0.1057 -0.3203 -0.0225
   86MOL   C42848198   3.243   4.509   2.771  0.3334 -0.3961 -0.2181
   86MOL   C42948199   3.143   4.615   2.781 -0.4549  0.1461 -0.2455
   86MOL   C43048200   3.028   4.610   2.696 -0.3569  0.3550 -0.7328
   86MOL   C43148201   2.904   4.697   2.711  0.0224 -0.7997  0.0614
   86MOL   O43248202   2.940   4.815   2.762 -0.1182  0.1889 -0.2836
   86MOL   C43348203   2.858   4.929   2.774 -0.3031  0.2274  0.2088
   86MOL   C43448204   2.721   4.894   2.826  0.5752 -0.4257 -0.2832
   86MOL   O43548205   2.791   4.660   2.681  0.0402 -0.7175  1.1632
   86MOL   C43648206   3.015   4.503   2.601 -0.1172 -0.5248 -0.1664
   86MOL   C43748207   3.116   4.404   2.585  0.5139 -0.9400  0.0122
   86MOL   C43848208   3.108   4.292   2.503  0.9966 -0.7079 -0.1672
   86MOL   C43948209   3.205   4.203   2.492 -0.1384  0.0536 -0.3108
   86MOL   H44048210   3.413   4.324   2.736 -0.4574 -2.2373  0.9085
   86MOL   H44148211   3.326   4.519   2.839 -0.9423  1.6003  1.0763
   86MOL   H44248212   3.156   4.688   2.860 -2.0627 -0.9946  1.1301
   86MOL   H44348213   2.858   4.972   2.674  1.5209 -0.9606 -0.3155
   86MOL   H44448214   2.920   4.997   2.833  0.5631 -0.7176  0.4000
   86MOL   H44548215   2.668   4.808   2.786  0.8884 -2.2455  3.0306
   86MOL   H44648216   2.728   4.869   2.932  1.4068  0.5597 -0.0947
   86MOL   H44748217   2.921   4.493   2.549 -1.8874  0.1053  2.7645
   86MOL   H44848218   3.017   4.265   2.450  0.9721 -2.1751  0.5706
   86MOL   H44948219   3.187   4.111   2.439 -1.0683  0.6893 -1.1270
   86MOL   O45048220   2.622   5.002   2.590 -0.6720  0.4862  0.2890
   86MOL   C45148221   2.587   5.048   2.701 -0.7467 -0.6232  0.4097
   86MOL   O45248222   2.638   5.003   2.822  0.1832  0.2931  0.0927
   86MOL   C45348223   2.475   5.146   2.713 -0.4226  0.1461  0.1778
   86MOL   C45448224   2.413   5.175   2.834 -0.5978 -0.6047 -0.0559
   86MOL   C45548225   2.313   5.266   2.845  0.7375  0.4436  0.2090
   86MOL   C45648226   2.245   5.292   2.971  0.1371  0.6217 -0.8248
   86MOL   C45748227   2.142   5.388   2.969  0.1886  0.2734  1.4685
   86MOL   C45848228   2.109   5.462   2.855 -0.0559  0.3132  0.6433
   86MOL   C45948229   1.995   5.556   2.857 -0.0505 -0.4698 -1.1680
   86MOL   O46048230   1.988   5.630   2.752 -0.8041  0.7521 -0.4663
   86MOL   C46148231   1.884   5.725   2.749  0.1538  0.4944 -0.7031
   86MOL   C46248232   1.891   5.811   2.628  0.5090  0.1113 -0.2942
   86MOL   O46348233   1.910   5.564   2.949 -0.3677 -0.4806 -0.0375
   86MOL   C46448234   2.177   5.437   2.734 -0.3103 -0.3947 -0.1850
   86MOL   C46548235   2.271   5.338   2.729 -1.2630 -0.2989 -0.2149
   86MOL   C46648236   2.327   5.305   2.602  0.4322 -0.5151 -0.1196
   86MOL   C46748237   2.434   5.212   2.597  0.0903  0.5292  0.9050
   86MOL   H46848238   2.450   5.126   2.923 -0.4137 -0.9570 -0.3273
   86MOL   H46948239   2.270   5.258   3.070 -1.0803  0.5355 -0.5373
   86MOL   H47048240   2.078   5.387   3.056 -1.8164 -3.8502  0.0911
   86MOL   H47148241   1.893   5.785   2.840  1.7959  2.3270 -2.0509
   86MOL   H47248242   1.786   5.678   2.763 -0.1946  1.9922  2.3068
   86MOL   H47348243   1.812   5.886   2.615  0.2269  0.2493  2.0296
   86MOL   H47448244   1.982   5.868   2.645  0.8208 -1.0139  2.0781
   86MOL   H47548245   2.153   5.493   2.645  0.2686  0.3807  0.1404
   86MOL   H47648246   2.281   5.352   2.516 -2.2941 -0.7300  1.1739
   86MOL   H47748247   2.461   5.173   2.500 -0.7983 -0.9147  1.2294
   86MOL   O47848248   2.120   5.766   2.477  0.5903 -0.3618  0.2417
   86MOL   C47948249   2.024   5.691   2.466  0.0711 -0.4897  0.4447
   86MOL   O48048250   1.903   5.719   2.513  0.3709 -0.2686  0.6833
   86MOL   C48148251   2.041   5.569   2.392  0.1272  0.5589 -0.2220
   86MOL   C48248252   2.174   5.534   2.365 -0.7285  0.0241  0.0742
   86MOL   C48348253   2.194   5.413   2.295 -0.0906 -0.2045 -0.2469
   86MOL   C48448254   2.324   5.370   2.266  0.1326 -0.0769 -0.5622
   86MOL   C48548255   2.347   5.253   2.203 -0.3367  0.1703 -0.7264
   86MOL   C48648256   2.242   5.170   2.162 -0.4590 -0.0437  0.4659
   86MOL   C48748257   2.266   5.045   2.087 -0.0358  0.4903 -0.4337
   86MOL   O48848258   2.387   4.996   2.113 -0.3277 -1.1339 -0.2087
   86MOL   C48948259   2.422   4.871   2.063 -0.2867 -0.2464  0.9239
   86MOL   C49048260   2.362   4.777   2.169 -0.2068 -0.4144  0.3688
   86MOL   O49148261   2.178   4.994   2.014 -0.0811 -0.0056 -0.1544
   86MOL   C49248262   2.108   5.211   2.186  0.2779 -0.1764  0.4432
   86MOL   C49348263   2.085   5.335   2.245 -0.1351  0.3251 -0.1773
   86MOL   C49448264   1.955   5.377   2.273  0.0243  0.3027  0.2128
   86MOL   C49548265   1.931   5.493   2.351 -0.0376  0.2769  0.8214
   86MOL   H49648266   2.263   5.587   2.395 -0.6144 -0.2247  0.1726
   86MOL   H49748267   2.414   5.414   2.307 -0.3857  1.3086 -0.8708
   86MOL   H49848268   2.449   5.224   2.185  0.2174  0.7901  1.2531
   86MOL   H49948269   2.530   4.876   2.064 -0.1835 -0.9309 -2.0826
   86MOL   H50048270   2.397   4.856   1.958  0.3652  0.5730  0.6476
   86MOL   H50148271   2.429   4.700   2.206 -0.2341 -0.0899  1.0981
   86MOL   H50248272   2.336   4.832   2.259 -0.6598  1.4050 -0.8293
   86MOL   H50348273   2.028   5.148   2.150  0.5308  0.8085 -1.9546
   86MOL   H50448274   1.865   5.328   2.239  0.5643  0.2760 -1.2287
   86MOL   H50548275   1.832   5.525   2.382 -0.0019  0.2903  0.9208
   86MOL   O50648276   2.239   4.562   2.296 -0.8843 -0.0687  0.1877
   86MOL   C50748277   2.191   4.604   2.192 -0.9244  0.3858 -0.1015
   86MOL   O50848278   2.243   4.711   2.118 -0.6788 -0.3768  0.0583
   86MOL   C50948279   2.065   4.546   2.137 -0.4765  0.3051 -0.4089
   86MOL   C51048280   1.976   4.468   2.215 -0.3894 -0.0595  0.0794
   86MOL   C51148281   1.874   4.401   2.154 -0.1081 -0.9876 -0.6809
   86MOL   C51248282   1.793   4.315   2.231 -0.0052  0.6592 -0.1630
   86MOL   C51348283   1.672   4.263   2.175 -0.1138 -0.2337  0.3922
   86MOL   C51448284   1.641   4.280   2.039 -0.3656 -0.5572 -0.0771
   86MOL   C51548285   1.518   4.231   1.961  0.4100  1.3298 -0.1257
   86MOL   O51648286   1.467   4.124   2.020 -0.3725  0.3646  0.4497
   86MOL   C51748287   1.339   4.091   1.966 -0.7337  0.3066  1.0259
   86MOL   C51848288   1.356   3.972   1.872 -0.4265 -0.0435  0.2322
   86MOL   O51948289   1.470   4.292   1.866  0.1871 -0.6527 -0.2834
   86MOL   C52048290   1.737   4.348   1.957 -0.2005  0.3089  0.1243
   86MOL   C52148291   1.850   4.413   2.014  0.5856  0.0396  0.1523
   86MOL   C52248292   1.939   4.482   1.929 -0.4605 -0.0129  0.1036
   86MOL   C52348293   2.051   4.544   1.997 -0.4204 -0.1682  0.0622
   86MOL   H52448294   1.985   4.465   2.322 -0.6517  0.5833  0.1185
   86MOL   H52548295   1.816   4.283   2.331 -0.1081 -0.6822 -0.5633
   86MOL   H52648296   1.605   4.205   2.237 -1.4787 -0.6955 -1.4712
   86MOL   H52748297   1.290   4.167   1.906 -1.4809  0.8272  2.2620
   86MOL   H52848298   1.264   4.078   2.044  0.2520 -3.0389  1.5170
   86MOL   H52948299   1.281   3.965   1.793  1.2973 -0.9697 -1.3348
   86MOL   H53048300   1.446   4.001   1.818 -1.3737  3.7856  0.5437
   86MOL   H53148301   1.722   4.358   1.850  1.2744  1.2000 -0.0044
   86MOL   H53248302   1.927   4.477   1.822 -1.6046 -0.7817  0.2545
   86MOL   H53348303   2.129   4.596   1.944  3.0139 -2.3538  2.6768
   86MOL   O53448304   1.588   3.866   1.978 -0.2238 -0.3186 -0.1898
   86MOL   C53548305   1.480   3.812   1.985  0.3817  0.0688  0.5864
   86MOL   O53648306   1.357   3.854   1.947 -0.3477 -0.8661 -0.3363
   86MOL   C53748307   1.466   3.675   2.049 -0.2281  0.4066 -0.3394
   86MOL   C53848308   1.342   3.607   2.062  0.7289  0.0740  0.0428
   86MOL   C53948309   1.342   3.471   2.092  0.9904  0.0995  1.2656
   86MOL   C54048310   1.223   3.396   2.101 -0.1584  0.1498  0.0898
   86MOL   C54148311   1.229   3.260   2.109  0.2163 -0.7631  0.0883
   86MOL   C54248312   1.349   3.187   2.132  0.6481  0.4116 -0.4312
   86MOL   C54348313   1.344   3.041   2.147  0.6519  0.0157 -0.0400
   86MOL   O54448314   1.464   2.987   2.146  0.0385  0.1306 -0.0478
   86MOL   C54548315   1.475   2.849   2.177 -0.1882 -0.4956 -0.3518
   86MOL   C54648316   1.602   2.787   2.133 -0.7293  0.4855 -0.3874
   86MOL   O54748317   1.237   2.975   2.141  0.0292  0.2093 -0.5283
   86MOL   C54848318   1.462   3.266   2.142 -0.3027  0.1174 -0.5519
   86MOL   C54948319   1.460   3.406   2.112  0.2090  0.0580 -0.0430
   86MOL   C55048320   1.582   3.475   2.109 -0.2702  0.2828 -0.3761
   86MOL   C55148321   1.585   3.613   2.085 -0.0022 -0.2823  0.0550
   86MOL   H55248322   1.246   3.652   2.041  1.6442  3.0563  1.9889
   86MOL   H55348323   1.123   3.437   2.099  0.0967  0.8210  1.0076
   86MOL   H55448324   1.147   3.189   2.114  1.5309 -2.5514 -2.2526
   86MOL   H55548325   1.388   2.794   2.141 -3.3261  1.9948  3.0457
   86MOL   H55648326   1.454   2.845   2.284  1.9312 -0.5284  0.0762
   86MOL   H55748327   1.590   2.681   2.114  0.2391  0.4391 -0.7495
   86MOL   H55848328   1.691   2.801   2.194 -0.0994 -3.8516 -0.1878
   86MOL   H55948329   1.558   3.218   2.159  0.1568  1.1925 -0.0472
   86MOL   H56048330   1.672   3.418   2.126  0.3385  1.1068 -0.7682
   86MOL   H56148331   1.675   3.671   2.072  0.6741 -0.7716  2.3612
   86MOL   H56248332   1.638   2.825   2.038 -0.3098 -1.7535 -1.1391
   87MOL     O148333   2.000   6.814   5.900 -0.4554 -0.0691  0.3308
   87MOL     C248334   1.998   6.938   5.894 -0.8391  0.0443  0.0888
   87MOL     O348335   2.059   7.011   5.790  0.0014  0.3113 -0.6069
   87MOL     C448336   1.969   7.033   6.006  0.1477  0.0682 -0.3622
   87MOL     C548337   1.972   6.981   6.139  0.9837  0.0211  0.2630
   87MOL     C648338   1.942   7.063   6.249  0.2622  0.0693 -0.2549
   87MOL     C748339   1.952   7.009   6.376 -0.0798 -0.1839  0.3570
   87MOL     C848340   1.925   7.094   6.488 -0.2040  0.0626 -0.2449
   87MOL     C948341   1.887   7.235   6.477 -0.3099  0.5203 -0.3977
   87MOL    C1048342   1.863   7.321   6.590  0.5705 -1.1006 -0.2377
   87MOL    O1148343   1.842   7.249   6.706  0.3065 -0.3668 -0.1142
   87MOL    C1248344   1.816   7.314   6.825 -0.2114  0.6630 -0.8791
   87MOL    C1348345   1.958   7.305   6.891 -0.3097  0.0308 -0.4030
   87MOL    O1448346   1.846   7.443   6.578 -0.3575 -0.9006 -0.4722
   87MOL    C1548347   1.875   7.284   6.348 -0.0146  0.0342 -0.3613
   87MOL    C1648348   1.906   7.199   6.236 -0.3045  0.6114  0.2051
   87MOL    C1748349   1.910   7.251   6.101 -0.3554 -0.0786 -0.3458
   87MOL    C1848350   1.943   7.172   5.989 -0.1911 -0.1601  0.4144
   87MOL    H1948351   1.990   6.877   6.163 -0.7342 -0.4211 -0.2184
   87MOL    H2048352   1.993   6.912   6.400  0.1081 -0.2253 -0.1255
   87MOL    H2148353   1.935   7.050   6.586 -0.3641 -0.3409 -0.4107
   87MOL    H2248354   1.776   7.416   6.819 -1.6451  0.2170  0.7360
   87MOL    H2348355   1.747   7.244   6.873 -0.0980  0.2623 -1.3037
   87MOL    H2448356   1.951   7.346   6.992  2.4431  1.2848 -0.6778
   87MOL    H2548357   1.989   7.201   6.896 -0.4883 -0.0705 -1.4248
   87MOL    H2648358   1.851   7.385   6.320 -1.5632 -0.1865  0.0971
   87MOL    H2748359   1.878   7.353   6.083  0.0432 -0.0051 -0.6333
   87MOL    H2848360   1.936   7.201   5.886  1.2044  2.4910  1.0146
   87MOL    H2948361   2.101   6.958   5.724  1.1807  0.0504  0.3434
   87MOL    O3048362   2.233   7.311   6.946  0.3893  0.1993 -0.3146
   87MOL    C3148363   2.184   7.379   6.857 -0.3478 -0.2192 -0.2212
   87MOL    O3248364   2.054   7.374   6.817 -0.4918  0.1582 -0.6899
   87MOL    C3348365   2.273   7.445   6.763  0.1171  0.1498  0.2195
   87MOL    C3448366   2.221   7.534   6.666 -0.2794  0.4180 -0.6030
   87MOL    C3548367   2.304   7.610   6.581 -0.0481  0.8180 -0.2829
   87MOL    C3648368   2.252   7.691   6.478 -0.0258  0.0840 -0.8510
   87MOL    C3748369   2.331   7.762   6.393  0.9127 -0.0192  0.1016
   87MOL    C3848370   2.472   7.768   6.414 -0.4527 -0.1584  1.1442
   87MOL    C3948371   2.563   7.850   6.323 -0.0638  0.2447 -0.3367
   87MOL    O4048372   2.519   7.892   6.206 -0.0981  0.6195  0.2515
   87MOL    C4148373   2.601   7.980   6.120 -0.5207  0.5793 -0.1868
   87MOL    C4248374   2.590   8.126   6.150 -0.3142 -0.5024 -0.1881
   87MOL    O4348375   2.678   7.877   6.357  0.0373  0.1708 -0.4842
   87MOL    C4448376   2.525   7.683   6.514  0.0463 -0.3032 -0.9791
   87MOL    C4548377   2.446   7.596   6.591  0.6791  0.1759 -0.0454
   87MOL    C4648378   2.502   7.512   6.692 -0.1355 -0.3942 -0.0358
   87MOL    C4748379   2.416   7.434   6.775 -0.1628  0.1134 -0.1632
   87MOL    H4848380   2.115   7.544   6.651 -0.2149 -0.4119 -1.7462
   87MOL    H4948381   2.144   7.697   6.478 -0.1310 -0.3445  3.8065
   87MOL    H5048382   2.278   7.811   6.312  1.6936  0.2990 -0.2215
   87MOL    H5148383   2.573   7.957   6.017 -0.7070 -1.2142  0.2404
   87MOL    H5248384   2.705   7.945   6.126 -0.8338 -0.5089 -0.9791
   87MOL    H5348385   2.569   8.143   6.255 -0.1435 -2.1868  0.1283
   87MOL    H5448386   2.685   8.176   6.133 -0.4784 -0.4782 -1.1033
   87MOL    H5548387   2.633   7.687   6.526 -0.2372  1.7617  1.4439
   87MOL    H5648388   2.609   7.506   6.709 -0.1763  0.7900  0.6925
   87MOL    H5748389   2.471   7.363   6.835 -1.0874 -2.7659 -2.5967
   87MOL    O5848390   2.323   8.172   6.201 -0.0425 -0.3889  0.9024
   87MOL    C5948391   2.371   8.211   6.096  0.2569 -0.2172 -0.3886
   87MOL    O6048392   2.503   8.194   6.068  0.2461  0.2290  0.2390
   87MOL    C6148393   2.300   0.027   5.983 -0.1183 -0.3913 -0.2684
   87MOL    C6248394   2.360   0.078   5.864 -0.5405 -0.4261 -1.0923
   87MOL    C6348395   2.280   0.152   5.777 -0.0297 -0.0381 -0.0656
   87MOL    C6448396   2.336   0.214   5.664 -0.1395  0.5725 -0.3027
   87MOL    C6548397   2.262   0.288   5.571  0.4242 -0.5972  0.0079
   87MOL    C6648398   2.124   0.315   5.599 -0.0155 -0.8725 -0.4356
   87MOL    C6748399   2.039   0.412   5.523  0.0691  0.4340 -0.0208
   87MOL    O6848400   2.103   0.466   5.416 -0.3546  0.2496 -0.2563
   87MOL    C6948401   2.034   0.541   5.320  0.8004 -0.5632  0.3661
   87MOL    C7048402   1.977   0.456   5.209  0.6932  0.0639 -0.3556
   87MOL    O7148403   1.929   0.448   5.555 -0.2632 -0.3573 -0.2842
   87MOL    C7248404   2.067   0.260   5.714 -0.1428 -0.0447  0.4061
   87MOL    C7348405   2.144   0.179   5.802 -0.3563  0.0962  0.3776
   87MOL    C7448406   2.084   0.122   5.916  0.1159 -0.3968 -0.4353
   87MOL    C7548407   2.160   0.049   6.005  0.4849  0.6399 -0.6027
   87MOL    H7648408   2.463   0.061   5.836 -0.2061 -0.4920  0.1760
   87MOL    H7748409   2.440   0.190   5.648 -0.5707 -1.0146 -0.8253
   87MOL    H7848410   2.310   0.329   5.484  0.7464 -0.8769  0.0546
   87MOL    H7948411   2.109   0.600   5.268 -0.8851  1.5269  0.2378
   87MOL    H8048412   1.962   0.608   5.367 -0.0618 -1.5589  0.4789
   87MOL    H8148413   1.948   0.513   5.120  1.4054  0.7480 -0.1541
   87MOL    H8248414   2.058   0.391   5.177  0.3588  0.6972 -2.5747
   87MOL    H8348415   1.963   0.278   5.738 -1.0677 -1.1046 -2.6613
   87MOL    H8448416   1.977   0.131   5.929  0.2150 -1.2301  1.0357
   87MOL    H8548417   2.117   0.019   6.099  3.4312 -2.1217 -0.0667
   87MOL    O8648418   1.706   0.527   5.190 -0.0097  0.3882 -0.4877
   87MOL    C8748419   1.740   0.418   5.237  0.4909 -0.5741 -0.4129
   87MOL    O8848420   1.870   0.375   5.249  0.0786 -0.1892 -0.5757
   87MOL    C8948421   1.632   0.316   5.263 -0.2550 -1.5515  1.0367
   87MOL    C9048422   1.500   0.363   5.251  0.6500 -0.1650  0.3674
   87MOL    C9148423   1.390   0.272   5.252 -0.8156  0.0554 -0.3381
   87MOL    C9248424   1.259   0.309   5.215 -0.5295  0.2868  0.9302
   87MOL    C9348425   1.163   0.205   5.193  0.5813  0.0220  0.4701
   87MOL    C9448426   1.191   0.072   5.213 -0.6635 -0.4083  0.3957
   87MOL    C9548427   1.098   8.203   5.198 -0.0292 -0.6229  0.3973
   87MOL    O9648428   0.988   8.242   5.124 -0.4515 -0.6302 -0.3265
   87MOL    C9748429   0.873   8.154   5.119  0.0555  0.2968 -0.7759
   87MOL    C9848430   0.770   8.179   5.233 -0.0568  0.5024 -0.0151
   87MOL    O9948431   1.113   8.090   5.236  0.4280  0.6077 -0.2307
   87MOL   C10048432   1.322   0.032   5.259  0.4277 -0.0032 -0.2528
   87MOL   C10148433   1.419   0.135   5.280  0.5093  0.9393 -0.1191
   87MOL   C10248434   1.549   0.091   5.296  0.5434 -0.1289 -0.1688
   87MOL   C10348435   1.656   0.181   5.290 -0.6292  0.1755 -0.4650
   87MOL   H10448436   1.472   0.463   5.224  1.3988 -0.2006 -0.5237
   87MOL   H10548437   1.221   0.409   5.206 -2.1398 -0.5297 -1.8941
   87MOL   H10648438   1.064   0.230   5.156  0.9088 -0.0355 -0.4518
   87MOL   H10748439   0.902   8.049   5.115 -2.4025 -0.5820  2.4502
   87MOL   H10848440   0.812   8.174   5.031  1.0728  0.2599 -1.4989
   87MOL   H10948441   0.671   8.144   5.204  0.7676  0.1426 -2.5711
   87MOL   H11048442   0.813   8.128   5.318  2.7580  1.3535 -0.8836
   87MOL   H11148443   1.348   8.180   5.284  0.2741 -0.0663 -0.3455
   87MOL   H11248444   1.568   8.234   5.297  1.6007  0.0284 -1.8208
   87MOL   H11348445   1.758   0.147   5.289 -0.7848 -0.3133  0.0351
   87MOL   O11448446   0.866   0.097   5.425  0.2505 -0.2465 -0.2089
   87MOL   C11548447   0.796   0.144   5.337  0.1990 -0.0108  0.4849
   87MOL   O11648448   0.743   0.069   5.239  0.3137 -0.3916  0.3713
   87MOL   C11748449   0.775   0.291   5.311  0.5801  0.2683 -0.5024
   87MOL   C11848450   0.664   0.344   5.245  0.2201  0.1535 -0.3722
   87MOL   C11948451   0.648   0.477   5.239 -0.4068  0.5150  0.5509
   87MOL   C12048452   0.539   0.540   5.164 -0.2754  0.8209  0.3974
   87MOL   C12148453   0.522   0.676   5.156  0.2379  0.3043  0.6119
   87MOL   C12248454   0.607   0.761   5.221 -0.0752  0.1497  0.1090
   87MOL   C12348455   0.605   0.908   5.190  0.5952  0.5439 -1.2634
   87MOL   O12448456   0.664   0.976   5.286  0.3080 -0.5099  0.0886
   87MOL   C12548457   0.642   1.110   5.317  0.9106 -0.3605  0.4789
   87MOL   C12648458   0.523   1.124   5.417 -0.5273  0.0649  0.7329
   87MOL   O12748459   0.536   0.961   5.098 -0.0473  0.1011  0.2028
   87MOL   C12848460   0.724   0.702   5.293  0.1544 -0.5607  0.8130
   87MOL   C12948461   0.747   0.563   5.300 -0.4566 -0.2571 -0.1359
   87MOL   C13048462   0.855   0.513   5.367  0.7627 -1.1976 -0.0137
   87MOL   C13148463   0.869   0.375   5.379  0.8475  0.0867  0.3395
   87MOL   H13248464   0.586   0.282   5.202  0.0706 -1.4999  2.1280
   87MOL   H13348465   0.469   0.467   5.126  2.5761 -2.8623  1.8166
   87MOL   H13448466   0.442   0.722   5.101  0.5239 -0.4550 -0.4485
   87MOL   H13548467   0.626   1.166   5.225  1.9593  0.9689  1.0921
   87MOL   H13648468   0.732   1.147   5.365  0.4492  0.4231  0.7420
   87MOL   H13748469   0.424   1.109   5.372 -0.5348  0.9234  0.4611
   87MOL   H13848470   0.549   1.057   5.499  1.5183 -0.3401 -0.2142
   87MOL   H13948471   0.797   0.770   5.335  1.3469 -0.6141 -1.1089
   87MOL   H14048472   0.929   0.582   5.406 -0.5480  0.2429 -0.0248
   87MOL   H14148473   0.948   0.338   5.443  0.4659  1.6418  1.7319
   87MOL   O14248474   0.399   1.353   5.329 -0.1503  0.1372 -0.3789
   87MOL   C14348475   0.476   1.353   5.425  0.1174 -0.5740  0.4032
   87MOL   O14448476   0.529   1.247   5.482  0.2850  0.6792  0.8347
   87MOL   C14548477   0.491   1.472   5.519  0.8370 -0.3366  1.0136
   87MOL   C14648478   0.620   1.505   5.549 -0.0257 -0.0306  0.3390
   87MOL   C14748479   0.647   1.607   5.635  0.5613  0.2779  0.2460
   87MOL   C14848480   0.781   1.624   5.677 -0.7458 -0.2222 -0.3660
   87MOL   C14948481   0.806   1.730   5.769 -0.1599 -0.2530  0.7435
   87MOL   C15048482   0.699   1.804   5.830 -0.5250 -0.1511 -0.2657
   87MOL   C15148483   0.733   1.912   5.933  0.0051  0.7500 -0.3471
   87MOL   O15248484   0.869   1.918   5.958 -0.0221 -0.1910  0.7759
   87MOL   C15348485   0.932   2.038   6.003  0.5009 -0.6985 -0.1977
   87MOL   C15448486   1.037   2.079   5.899  0.7924  0.2016 -0.2592
   87MOL   O15548487   0.650   1.983   5.983  0.1596  0.6219  0.1392
   87MOL   C15648488   0.571   1.787   5.782 -0.2125  0.2835  0.6725
   87MOL   C15748489   0.542   1.691   5.680  0.1136 -0.0184 -0.4705
   87MOL   C15848490   0.410   1.659   5.645  0.1352 -0.3670 -0.4075
   87MOL   C15948491   0.382   1.545   5.565  0.2644 -0.1285 -0.4941
   87MOL   H16048492   0.692   1.436   5.509  0.7105  1.9652 -1.9249
   87MOL   H16148493   0.863   1.564   5.638  0.2153  1.8606 -1.6935
   87MOL   H16248494   0.909   1.751   5.793 -0.2373  0.6786  0.2600
   87MOL   H16348495   0.981   2.028   6.100  0.0428  2.0958  0.3434
   87MOL   H16448496   0.863   2.122   6.011 -0.3449 -1.2735 -1.2721
   87MOL   H16548497   1.089   2.167   5.937  0.9286  0.6594 -1.5141
   87MOL   H16648498   1.120   2.009   5.909 -0.6582 -1.4063  0.8717
   87MOL   H16748499   0.495   1.849   5.826  1.3960  1.9272  1.1551
   87MOL   H16848500   0.331   1.719   5.687  0.7314 -0.0009  0.1937
   87MOL   H16948501   0.282   1.515   5.535  0.4385 -2.2101  0.9038
   87MOL   O17048502   1.119   1.914   5.685 -0.2822 -0.0871 -0.0378
   87MOL   C17148503   1.040   2.010   5.670 -0.3768  0.3624  0.0650
   87MOL   O17248504   0.990   2.089   5.763 -0.4791  0.1709  0.1553
   87MOL   C17348505   0.989   2.042   5.532 -0.1908  0.0962 -0.0233
   87MOL   C17448506   1.020   1.953   5.428 -0.1579  0.1910 -0.0544
   87MOL   C17548507   1.003   1.988   5.290  0.0889  0.0853 -0.2560
   87MOL   C17648508   1.061   1.923   5.181 -0.3370  0.4184 -0.6839
   87MOL   C17748509   1.059   1.970   5.051 -0.2486  0.2328 -0.1278
   87MOL   C17848510   1.005   2.097   5.027  0.1033  0.5872  0.1792
   87MOL   C17948511   1.018   2.159   4.890 -0.0549  1.2677  0.4770
   87MOL   O18048512   1.077   2.074   4.804 -0.3817 -0.5523  0.1658
   87MOL   C18148513   1.079   2.105   4.667 -0.7584  0.8291  0.2769
   87MOL   C18248514   0.944   2.077   4.595  0.1595 -0.3366 -0.0748
   87MOL   O18348515   0.977   2.270   4.859  0.0108 -0.6835  0.0342
   87MOL   C18448516   0.938   2.161   5.131 -0.5423  0.0853 -0.2662
   87MOL   C18548517   0.944   2.114   5.266  0.1113  0.4885 -0.5609
   87MOL   C18648518   0.889   2.195   5.368 -0.1979  0.1435 -0.5210
   87MOL   C18748519   0.919   2.157   5.500 -0.0394 -0.6427 -0.7228
   87MOL   H18848520   1.071   1.862   5.457  2.0979  1.8894  1.4923
   87MOL   H18948521   1.115   1.833   5.203 -0.2939  0.2804 -1.3495
   87MOL   H19048522   1.111   1.909   4.979  0.3098 -0.4189  0.8147
   87MOL   H19148523   1.165   2.053   4.625 -2.4219 -0.9721 -1.0116
   87MOL   H19248524   1.097   2.212   4.658  0.6644  0.6936  1.5433
   87MOL   H19348525   0.856   2.100   4.656 -0.8930  1.7983 -2.2843
   87MOL   H19448526   0.938   2.139   4.505  2.8688 -1.7410 -1.2706
   87MOL   H19548527   0.883   2.251   5.110 -1.0632  0.0124  0.7693
   87MOL   H19648528   0.852   2.296   5.357 -1.1365 -0.1967 -0.4842
   87MOL   H19748529   0.905   2.232   5.577  1.5853 -1.1177  0.0567
   87MOL   O19848530   0.868   1.854   4.735 -0.2563 -0.0058  0.2196
   87MOL   C19948531   0.892   1.849   4.615 -0.1239  0.4872  0.1976
   87MOL   O20048532   0.946   1.946   4.544  0.4464  0.0720 -0.0771
   87MOL   C20148533   0.872   1.721   4.540  0.1154 -0.7615 -0.4706
   87MOL   C20248534   0.857   1.599   4.610  1.0574  0.5082 -0.1385
   87MOL   C20348535   0.858   1.481   4.545  0.5530  0.9019  0.1772
   87MOL   C20448536   0.845   1.361   4.622 -0.7949  0.4421 -0.3998
   87MOL   C20548537   0.843   1.241   4.553 -0.2097  0.4871  0.0833
   87MOL   C20648538   0.850   1.234   4.411  1.0128  0.0759  0.2711
   87MOL   C20748539   0.847   1.111   4.326 -0.2572 -0.3781  0.0895
   87MOL   O20848540   0.849   0.994   4.401 -0.2444 -0.2541  0.0220
   87MOL   C20948541   0.874   0.878   4.331 -0.1777  0.7382 -0.0390
   87MOL   C21048542   0.859   0.763   4.431 -0.2887 -0.3141  0.1052
   87MOL   O21148543   0.839   1.111   4.205 -0.3966  0.2358  0.1165
   87MOL   C21248544   0.876   1.353   4.335 -0.0846 -0.2634  0.0263
   87MOL   C21348545   0.873   1.478   4.405  0.3479  0.6533  0.0988
   87MOL   C21448546   0.891   1.599   4.334 -0.1576  0.1985  0.8177
   87MOL   C21548547   0.907   1.717   4.407 -0.3878 -0.0785  0.4773
   87MOL   H21648548   0.841   1.611   4.717  2.2200  0.1678  0.0872
   87MOL   H21748549   0.844   1.355   4.730 -1.2561 -0.4360 -0.4565
   87MOL   H21848550   0.823   1.151   4.611  0.8958 -0.1916 -0.5680
   87MOL   H21948551   0.977   0.874   4.295 -0.2311  1.5211 -0.2798
   87MOL   H22048552   0.812   0.865   4.242  2.6613  0.3281 -2.0247
   87MOL   H22148553   0.936   0.779   4.506  0.8589  1.5386 -1.4233
   87MOL   H22248554   0.766   0.773   4.487  0.9866  0.1527  2.2059
   87MOL   H22348555   0.890   1.352   4.228  2.7356  1.8900  0.3032
   87MOL   H22448556   0.882   1.607   4.226  0.2958 -1.5005  0.6480
   87MOL   H22548557   0.918   1.805   4.345  0.9833  0.3264  1.2976
   87MOL   O22648558   1.076   0.598   4.356  0.2599  0.3464 -0.4339
   87MOL   C22748559   0.958   0.567   4.332  0.7557 -0.4327 -0.8706
   87MOL   O22848560   0.849   0.631   4.378  0.4956  0.0244 -0.2317
   87MOL   C22948561   0.932   0.442   4.257 -0.8598 -0.2648 -0.0137
   87MOL   C23048562   0.802   0.391   4.247 -0.6821 -0.2400 -0.1456
   87MOL   C23148563   0.769   0.273   4.175 -0.1994 -0.6897  0.5442
   87MOL   C23248564   0.638   0.231   4.156  0.4930  0.2813 -0.5021
   87MOL   C23348565   0.610   0.118   4.078 -0.1979 -0.0792 -0.3224
   87MOL   C23448566   0.714   0.055   3.996  0.6877  0.0629 -0.6736
   87MOL   C23548567   0.686   8.192   3.897  0.4684  0.9096  0.9959
   87MOL   O23648568   0.797   8.159   3.831 -0.2137 -0.5638 -0.1312
   87MOL   C23748569   0.795   8.059   3.728 -0.0710 -0.1674 -0.1884
   87MOL   C23848570   0.808   8.145   3.598 -1.0395  0.6391  0.3392
   87MOL   O23948571   0.581   8.135   3.887  0.2124 -0.6614  0.5809
   87MOL   C24048572   0.844   0.101   4.023  0.2511  0.5245  0.1596
   87MOL   C24148573   0.873   0.211   4.105 -0.4013  0.0096  0.6263
   87MOL   C24248574   0.999   0.258   4.123  0.6089 -0.4179 -0.5169
   87MOL   C24348575   1.033   0.376   4.194  0.3560  0.7812  0.8091
   87MOL   H24448576   0.722   0.444   4.295 -0.7440 -1.0691  0.6823
   87MOL   H24548577   0.559   0.284   4.207  1.8761  1.2762  0.6439
   87MOL   H24648578   0.506   0.098   4.058 -0.2262 -1.3028  1.0072
   87MOL   H24748579   0.696   8.012   3.731 -1.2611  2.1952 -1.0356
   87MOL   H24848580   0.871   7.981   3.732  1.1293  0.9815 -0.6037
   87MOL   H24948581   0.903   8.196   3.590  0.0702 -1.2554  1.0228
   87MOL   H25048582   0.810   8.070   3.519 -2.2581  0.4310  0.4834
   87MOL   H25148583   0.929   0.059   3.972 -1.1903 -0.0035 -1.8553
   87MOL   H25248584   1.078   0.214   4.063  0.8575 -2.4072  1.2034
   87MOL   H25348585   1.131   0.419   4.176  0.9177 -1.4740 -1.8635
   87MOL   O25448586   0.563   8.097   3.482 -0.4233  0.2154 -0.5014
   87MOL   C25548587   0.587   8.203   3.541 -0.2423 -0.2318 -0.0732
   87MOL   O25648588   0.707   8.240   3.582 -0.1060 -0.5259 -0.0596
   87MOL   C25748589   0.480   0.054   3.552  0.3728  0.5335 -0.7028
   87MOL   C25848590   0.363   0.041   3.471  0.2744  0.9799 -0.5737
   87MOL   C25948591   0.265   0.144   3.474  1.0838 -0.1352  0.7881
   87MOL   C26048592   0.167   0.154   3.374 -0.3495  0.0486 -0.4753
   87MOL   C26148593   0.078   0.264   3.363 -0.1297  0.0258  0.2026
   87MOL   C26248594   0.079   0.363   3.464 -0.3995 -0.6168 -0.1638
   87MOL   C26348595   8.231   0.473   3.465 -0.2207  0.1670 -0.4193
   87MOL   O26448596   8.202   0.509   3.336  0.2436 -0.3097 -0.2530
   87MOL   C26548597   8.120   0.620   3.302  0.4480  0.7983  0.0296
   87MOL   C26648598   8.207   0.747   3.312 -0.5398 -0.0776  0.3365
   87MOL   O26748599   8.199   0.541   3.565 -0.2392 -0.1043 -0.2765
   87MOL   C26848600   0.181   0.358   3.565  0.4868  0.4135 -0.8224
   87MOL   C26948601   0.272   0.246   3.570  0.4112  0.4941 -0.0285
   87MOL   C27048602   0.386   0.256   3.660 -0.0950 -0.1270  0.7925
   87MOL   C27148603   0.489   0.155   3.650 -0.4527  0.2350 -0.4344
   87MOL   H27248604   0.355   8.209   3.400  0.2471  0.0825  0.4362
   87MOL   H27348605   0.155   0.070   3.307  3.7457  0.7349 -2.2213
   87MOL   H27448606   0.011   0.264   3.278  2.2107 -3.0857 -1.7554
   87MOL   H27548607   8.028   0.634   3.359 -0.2822 -0.9620 -0.7043
   87MOL   H27648608   8.091   0.604   3.199 -0.8498 -2.4277  0.8219
   87MOL   H27748609   8.150   0.835   3.341 -0.6523  0.7809 -2.3484
   87MOL   H27848610   0.040   0.731   3.383  0.6459 -0.9013 -1.1973
   87MOL   H27948611   0.182   0.438   3.637 -1.7824 -0.2852  0.0217
   87MOL   H28048612   0.401   0.341   3.725  1.4062  1.0354 -1.0197
   87MOL   H28148613   0.566   0.152   3.726 -1.0504  1.2670  0.2271
   87MOL   O28248614   8.073   0.837   3.092 -0.6362 -0.2274  0.0224
   87MOL   C28348615   8.193   0.808   3.081  0.1233  0.0961  0.6818
   87MOL   O28448616   0.012   0.764   3.180  0.7147  0.1397 -0.5459
   87MOL   C28548617   0.031   0.820   2.959  0.0699  0.9059 -1.1611
   87MOL   C28648618   0.167   0.812   2.967 -0.6057 -0.4657  0.6386
   87MOL   C28748619   0.244   0.812   2.846 -0.6598  0.3675  0.1456
   87MOL   C28848620   0.381   0.784   2.844 -0.3850 -0.0875  0.3354
   87MOL   C28948621   0.461   0.776   2.731  0.5537  0.6792  0.3638
   87MOL   C29048622   0.392   0.789   2.604 -0.3442 -0.0574  0.2681
   87MOL   C29148623   0.468   0.787   2.480  0.2549 -0.2819  0.2621
   87MOL   O29248624   0.600   0.776   2.486 -0.3676  0.4780 -0.1477
   87MOL   C29348625   0.686   0.764   2.372  0.3917 -0.0956 -0.1357
   87MOL   C29448626   0.700   0.892   2.293  0.5676 -0.4258 -0.3225
   87MOL   O29548627   0.412   0.797   2.371  0.2165 -0.3008  0.2214
   87MOL   C29648628   0.252   0.803   2.604  0.1065  0.0052  0.1776
   87MOL   C29748629   0.178   0.825   2.723 -0.3346 -0.2287 -0.0410
   87MOL   C29848630   0.033   0.844   2.716 -0.2721 -0.4535  0.2922
   87MOL   C29948631   8.210   0.839   2.835  0.1811  0.1893  0.4200
   87MOL   H30048632   0.221   0.801   3.059  2.0470 -0.1140 -0.8311
   87MOL   H30148633   0.429   0.767   2.939 -1.2876 -1.6790  0.5361
   87MOL   H30248634   0.568   0.768   2.732  0.5544  0.2051 -1.8669
   87MOL   H30348635   0.635   0.696   2.304  2.2747 -0.9314 -0.7187
   87MOL   H30448636   0.787   0.729   2.393  0.3501 -0.7365 -0.9723
   87MOL   H30548637   0.741   0.884   2.192 -1.2413 -0.9672 -1.0206
   87MOL   H30648638   0.598   0.927   2.277  0.5534 -0.3933 -0.1658
   87MOL   H30748639   0.189   0.802   2.516  0.4734  0.1651 -0.0859
   87MOL   H30848640   8.237   0.848   2.618  1.1358  0.2002 -0.3477
   87MOL   H30948641   8.103   0.844   2.843  0.2542  0.3894  1.4211
   87MOL   O31048642   0.646   1.129   2.432  0.4917 -0.0292  0.1127
   87MOL   C31148643   0.743   1.064   2.455  0.3227  0.0996 -0.7584
   87MOL   O31248644   0.789   0.978   2.363  0.0590 -0.3850  0.5348
   87MOL   C31348645   0.826   1.075   2.583 -0.1937 -0.3157 -0.0135
   87MOL   C31448646   0.817   1.190   2.662  0.0851 -0.4096  0.0785
   87MOL   C31548647   0.895   1.203   2.784 -0.2789  0.0621 -0.5369
   87MOL   C31648648   0.890   1.311   2.872  0.0433 -0.5518 -0.4620
   87MOL   C31748649   0.951   1.300   2.996 -0.2465 -0.0118  0.1552
   87MOL   C31848650   1.030   1.186   3.037  0.1287 -0.3004  0.6791
   87MOL   C31948651   1.089   1.185   3.173  0.0087  1.1346 -0.7469
   87MOL   O32048652   1.098   1.064   3.216 -0.4303  0.1602  0.2339
   87MOL   C32148653   1.138   1.030   3.343  0.3873 -0.1491 -0.6198
   87MOL   C32248654   1.022   1.029   3.440 -0.4854 -0.8597 -0.5572
   87MOL   O32348655   1.112   1.286   3.233 -0.0810  0.5804 -0.3218
   87MOL   C32448656   1.051   1.086   2.945  0.2679  0.4014 -0.0734
   87MOL   C32548657   0.975   1.093   2.825 -0.2384 -0.6020  0.0589
   87MOL   C32648658   0.995   0.986   2.737  0.1633 -0.4008 -0.7439
   87MOL   C32748659   0.921   0.979   2.620  1.0123  0.4025  0.3493
   87MOL   H32848660   0.749   1.269   2.637  0.0044 -1.4549 -3.2256
   87MOL   H32948661   0.843   1.406   2.852  1.0731  0.3416  1.2587
   87MOL   H33048662   0.940   1.384   3.063 -1.1422  0.0286 -0.0393
   87MOL   H33148663   1.219   1.092   3.382 -0.4517  1.0603 -0.7815
   87MOL   H33248664   1.188   0.933   3.337 -1.4575 -1.1328 -0.6645
   87MOL   H33348665   0.942   0.976   3.388 -1.5672  1.7443 -1.6953
   87MOL   H33448666   1.038   0.984   3.537  1.6236  1.0495  0.0187
   87MOL   H33548667   1.110   0.998   2.965  1.0220  0.7695 -0.6644
   87MOL   H33648668   1.056   0.901   2.763  0.3573 -0.8943 -2.7507
   87MOL   H33748669   0.947   0.895   2.557 -0.3318  0.6833 -0.5883
   87MOL   O33848670   1.144   1.205   3.619  0.1344 -0.1153  0.6014
   87MOL   C33948671   1.044   1.238   3.553 -0.2566  0.0107  1.2818
   87MOL   O34048672   0.976   1.160   3.468  0.1208 -0.2468 -0.4034
   87MOL   C34148673   0.982   1.379   3.558  0.0326 -0.4342  0.8473
   87MOL   C34248674   0.841   1.401   3.543 -0.5597 -0.5315 -0.2058
   87MOL   C34348675   0.781   1.531   3.544  0.1845  0.1624  0.5837
   87MOL   C34448676   0.643   1.554   3.521  0.1940  0.0126  0.8753
   87MOL   C34548677   0.591   1.688   3.531 -0.5300  0.1947 -0.7678
   87MOL   C34648678   0.678   1.796   3.556  0.3403  1.0922  0.2347
   87MOL   C34748679   0.624   1.937   3.542  0.0610  0.0447 -0.5838
   87MOL   O34848680   0.716   2.029   3.524  0.3954  0.7087 -0.5533
   87MOL   C34948681   0.693   2.155   3.480 -0.1813  0.2399  0.7443
   87MOL   C35048682   0.737   2.161   3.340  0.6435 -0.3212 -0.4026
   87MOL   O35148683   0.503   1.962   3.546 -0.5584  0.2771  0.4142
   87MOL   C35248684   0.817   1.776   3.568 -0.2826 -0.3815 -0.1282
   87MOL   C35348685   0.866   1.644   3.568  0.3496  1.3448 -0.9153
   87MOL   C35448686   1.002   1.626   3.598  0.0663  0.2103  0.3677
   87MOL   C35548687   1.060   1.493   3.587 -0.3993 -0.0505 -0.1922
   87MOL   H35648688   0.777   1.320   3.513  1.0646 -2.3858  1.2096
   87MOL   H35748689   0.579   1.468   3.503  0.7373 -0.4413  1.0855
   87MOL   H35848690   0.484   1.694   3.542 -0.5028 -1.9456  0.9412
   87MOL   H35948691   0.750   2.228   3.536  0.3792  2.3936 -2.4881
   87MOL   H36048692   0.589   2.186   3.485 -0.5322 -0.3087 -2.0411
   87MOL   H36148693   0.687   2.092   3.272 -0.5202 -0.1606  0.2887
   87MOL   H36248694   0.720   2.261   3.302  0.8312 -0.1468 -0.0373
   87MOL   H36348695   0.882   1.861   3.583  0.2502 -0.4843 -1.7526
   87MOL   H36448696   1.073   1.706   3.614 -0.1226 -0.2632  4.0603
   87MOL   H36548697   1.163   1.468   3.604 -0.0445  0.0620 -2.1261
   87MOL   O36648698   0.910   2.201   3.125  0.2503  0.5689 -0.4971
   87MOL   C36748699   0.945   2.145   3.230  0.0774  0.4359 -0.6597
   87MOL   O36848700   0.875   2.132   3.338  0.2466 -0.0076 -0.7707
   87MOL   C36948701   1.073   2.077   3.243  0.1429 -0.5744  0.7910
   87MOL   C37048702   1.154   2.051   3.133  0.2966  0.4168  0.3726
   87MOL   C37148703   1.272   1.976   3.141 -0.1601 -0.4082  0.7366
   87MOL   C37248704   1.354   1.950   3.027 -0.6590 -0.5340 -0.7753
   87MOL   C37348705   1.468   1.867   3.045  1.1586 -0.0538 -0.4526
   87MOL   C37448706   1.511   1.814   3.166 -0.1694 -0.4569 -0.3142
   87MOL   C37548707   1.638   1.738   3.173 -0.6058 -0.6074  0.2998
   87MOL   O37648708   1.672   1.720   3.298  0.6554  0.0408  0.5077
   87MOL   C37748709   1.781   1.649   3.335 -0.4509  0.0238 -0.9103
   87MOL   C37848710   1.917   1.728   3.313  0.2036  0.0054 -0.9275
   87MOL   O37948711   1.704   1.702   3.070  0.0337 -0.5035  0.3691
   87MOL   C38048712   1.431   1.839   3.275 -0.4285 -0.0942 -0.5369
   87MOL   C38148713   1.316   1.921   3.262 -0.2008  0.7687  0.4772
   87MOL   C38248714   1.237   1.948   3.375 -0.3010  0.0027  0.5794
   87MOL   C38348715   1.116   2.023   3.364  0.3837  0.8945  0.0466
   87MOL   H38448716   1.122   2.077   3.033  1.2011 -2.8247 -0.8163
   87MOL   H38548717   1.325   1.990   2.931  0.0116 -0.0893 -0.8042
   87MOL   H38648718   1.528   1.843   2.958 -1.5697 -1.7643 -1.9614
   87MOL   H38748719   1.778   1.549   3.293  1.1234 -0.4423  0.0475
   87MOL   H38848720   1.778   1.623   3.441  2.8387  2.1840 -0.2055
   87MOL   H38948721   1.895   1.834   3.307 -0.8310  0.1678  3.7334
   87MOL   H39048722   1.972   1.715   3.407 -2.7500 -0.6755  0.7914
   87MOL   H39148723   1.472   1.797   3.366  0.2883  0.0966 -0.7693
   87MOL   H39248724   1.268   1.908   3.471 -0.8787  0.6740  1.0526
   87MOL   H39348725   1.056   2.031   3.454  1.0641  1.9222  0.4052
   87MOL   O39448726   2.109   1.877   3.176  0.7085 -0.1285 -0.5772
   87MOL   C39548727   2.088   1.763   3.145 -0.6873 -0.6457  0.4672
   87MOL   O39648728   1.996   1.683   3.204  0.0125  0.3658  0.0876
   87MOL   C39748729   2.164   1.695   3.034  1.1293  0.3474 -0.8055
   87MOL   C39848730   2.163   1.548   3.035  0.8188 -0.1535 -0.3020
   87MOL   C39948731   2.235   1.485   2.933  0.6889 -0.4908 -0.4211
   87MOL   C40048732   2.233   1.342   2.931 -0.1205  0.0487  0.8493
   87MOL   C40148733   2.290   1.279   2.824 -0.9195 -0.6610  0.1411
   87MOL   C40248734   2.361   1.349   2.729 -0.3274  0.2027 -1.1405
   87MOL   C40348735   2.427   1.276   2.622 -0.2159  0.2186  0.2274
   87MOL   O40448736   2.531   1.348   2.581  0.4826 -0.0019  0.4097
   87MOL   C40548737   2.630   1.290   2.500 -0.5180  0.1579  0.4479
   87MOL   C40648738   2.754   1.302   2.584 -0.4257  0.8714  0.0496
   87MOL   O40748739   2.400   1.164   2.578  0.0970  0.0096  0.0428
   87MOL   C40848740   2.374   1.485   2.736 -0.3870  0.0589 -0.4243
   87MOL   C40948741   2.314   1.561   2.842  0.3035  0.6013 -0.2239
   87MOL   C41048742   2.313   1.705   2.843 -0.2133  1.0528  0.0953
   87MOL   C41148743   2.230   1.771   2.936 -0.0601  0.0429 -0.1553
   87MOL   H41248744   2.109   1.499   3.115 -0.2874  2.4187  0.6008
   87MOL   H41348745   2.175   1.280   2.997 -1.1116  0.1199  0.0479
   87MOL   H41448746   2.282   1.171   2.816 -0.4156 -0.5666 -1.9526
   87MOL   H41548747   2.634   1.354   2.412  0.7127  0.6468  0.8500
   87MOL   H41648748   2.620   1.189   2.462  0.8893  0.3660 -0.4859
   87MOL   H41748749   2.761   1.396   2.640  1.8627  0.7881 -0.0330
   87MOL   H41848750   2.750   1.219   2.654  1.4638 -0.2166 -1.0833
   87MOL   H41948751   2.422   1.542   2.657  2.2745 -0.2174  0.9436
   87MOL   H42048752   2.365   1.767   2.771  0.0090  2.3588  1.3712
   87MOL   H42148753   2.232   1.879   2.942  1.2688 -0.0090  0.4556
   87MOL   O42248754   2.876   1.080   2.499 -0.0144 -0.1673 -0.2304
   87MOL   C42348755   2.932   1.186   2.479  0.6717  0.2585 -0.6304
   87MOL   O42448756   2.878   1.306   2.520 -0.0020 -0.2611 -0.0154
   87MOL   C42548757   3.055   1.205   2.410 -0.4984  0.3615  0.1079
   87MOL   C42648758   3.129   1.325   2.402  0.4790  0.4430  0.1995
   87MOL   C42748759   3.246   1.330   2.324 -0.0410 -0.1956  0.0799
   87MOL   C42848760   3.329   1.445   2.333 -0.2932 -0.1258 -0.2866
   87MOL   C42948761   3.443   1.444   2.254 -0.8483 -1.0832 -1.1877
   87MOL   C43048762   3.488   1.336   2.173 -0.5875  0.2740 -0.0382
   87MOL   C43148763   3.607   1.336   2.090  0.4526  0.0477 -0.6935
   87MOL   O43248764   3.701   1.436   2.114  0.5706 -0.0273  0.3262
   87MOL   C43348765   3.797   1.467   2.015  0.6177  0.2868 -0.4661
   87MOL   C43448766   3.842   1.612   2.024  0.1033  0.3637 -0.3898
   87MOL   O43548767   3.618   1.268   1.990  0.6413 -0.0592  0.2283
   87MOL   C43648768   3.407   1.221   2.174  0.6844  0.7749 -0.1255
   87MOL   C43748769   3.286   1.214   2.245 -0.7416  0.2950 -0.2340
   87MOL   C43848770   3.206   1.104   2.237  0.1265 -0.4293  0.5713
   87MOL   C43948771   3.094   1.095   2.327 -0.3330 -0.5436 -0.4658
   87MOL   H44048772   3.107   1.417   2.454  0.8446 -0.3063  1.6993
   87MOL   H44148773   3.307   1.527   2.401  0.8390  0.7358 -0.9563
   87MOL   H44248774   3.497   1.537   2.252 -1.4240 -0.7197 -0.1357
   87MOL   H44348775   3.765   1.443   1.914 -1.0402 -3.2364  0.8079
   87MOL   H44448776   3.877   1.395   2.029 -0.7759 -0.9031  1.6796
   87MOL   H44548777   3.863   1.647   1.923  0.3530 -0.7601 -0.7306
   87MOL   H44648778   3.755   1.670   2.057 -0.4840  1.3678 -3.5564
   87MOL   H44748779   3.444   1.141   2.111  0.2877  0.9789 -0.6187
   87MOL   H44848780   3.229   1.018   2.176  0.3050  0.7321 -1.0114
   87MOL   H44948781   3.035   1.004   2.330  1.6380 -1.8161  2.4340
   87MOL   O45048782   4.105   1.691   1.978  0.8210  0.3362  0.6872
   87MOL   C45148783   4.062   1.671   2.088  0.8011 -0.1773 -0.3987
   87MOL   O45248784   3.941   1.630   2.122 -0.5591  0.2618  0.2002
   87MOL   C45348785   4.153   1.679   2.207  0.6569  0.7604 -0.4360
   87MOL   C45448786   4.296   1.680   2.187  0.2319 -0.0215  0.5921
   87MOL   C45548787   4.391   1.671   2.290 -0.2853 -0.0232  0.1350
   87MOL   C45648788   4.534   1.670   2.276 -0.0942  0.2670  0.3663
   87MOL   C45748789   4.619   1.674   2.381 -0.1927  0.1244 -0.5318
   87MOL   C45848790   4.573   1.652   2.512  0.2319 -0.3849  1.4207
   87MOL   C45948791   4.679   1.658   2.612 -0.1605  0.0445 -0.3275
   87MOL   O46048792   4.634   1.610   2.740 -0.0482  0.4561  0.2876
   87MOL   C46148793   4.725   1.611   2.849 -0.3859 -0.4928 -0.1346
   87MOL   C46248794   4.836   1.511   2.826  0.5460  0.0053  0.1035
   87MOL   O46348795   4.785   1.714   2.597  0.3299 -0.4131 -0.1997
   87MOL   C46448796   4.437   1.647   2.530 -0.2852 -0.0144 -0.1624
   87MOL   C46548797   4.343   1.662   2.421 -0.7457  0.1132  0.0838
   87MOL   C46648798   4.203   1.666   2.448 -0.6699 -0.0653  0.4991
   87MOL   C46748799   4.108   1.669   2.342 -0.2594 -0.1078  0.4110
   87MOL   H46848800   4.328   1.672   2.084 -0.9516 -1.7260  0.3548
   87MOL   H46948801   4.575   1.683   2.177  1.8263  0.9419  1.2306
   87MOL   H47048802   4.723   1.687   2.354 -0.0919 -1.4365 -0.9205
   87MOL   H47148803   4.665   1.592   2.938  1.0003  0.0868  0.9428
   87MOL   H47248804   4.774   1.709   2.854 -1.0223 -0.1703 -0.1847
   87MOL   H47348805   4.790   1.414   2.846  1.9596 -0.6631  0.1526
   87MOL   H47448806   4.875   1.517   2.725 -0.9616 -1.0174 -0.5673
   87MOL   H47548807   4.407   1.642   2.634  0.0959 -1.7244 -0.1255
   87MOL   H47648808   4.176   1.664   2.552  0.8240 -0.6766  0.8792
   87MOL   H47748809   4.003   1.677   2.369  0.5631  1.7651  3.3155
   87MOL   O47848810   5.099   1.571   2.773  0.3982  0.4310 -0.7764
   87MOL   C47948811   5.069   1.558   2.889 -0.2294  0.2000  0.6583
   87MOL   O48048812   4.939   1.525   2.928  0.4435  0.9231 -0.1517
   87MOL   C48148813   5.153   1.584   3.000  0.6278  0.4525 -0.0306
   87MOL   C48248814   5.252   1.679   2.995  0.9803  0.7324 -0.0383
   87MOL   C48348815   5.309   1.723   3.118  0.6749 -0.5771  0.0401
   87MOL   C48448816   5.384   1.844   3.124 -0.4941 -0.1591 -0.4656
   87MOL   C48548817   5.422   1.894   3.250 -0.0183  0.1602 -0.5789
   87MOL   C48648818   5.390   1.824   3.372  0.0338 -0.0022 -0.0799
   87MOL   C48748819   5.437   1.880   3.500 -0.2447  0.1189  0.1398
   87MOL   O48848820   5.491   2.004   3.488  0.4196  0.0165  0.9661
   87MOL   C48948821   5.571   2.051   3.603 -0.0989  0.6522 -0.4885
   87MOL   C49048822   5.570   2.203   3.603 -0.1572  0.9669  0.1128
   87MOL   O49148823   5.437   1.819   3.614 -0.1335 -0.5926 -0.1642
   87MOL   C49248824   5.334   1.698   3.359 -0.4106  0.4207 -0.3927
   87MOL   C49348825   5.288   1.647   3.234 -0.2164 -0.1269  0.1811
   87MOL   C49448826   5.210   1.534   3.231  0.6844 -0.2206  0.3957
   87MOL   C49548827   5.129   1.518   3.118 -0.1634  0.3177 -0.1240
   87MOL   H49648828   5.270   1.753   2.918  2.2599  2.0460  1.5088
   87MOL   H49748829   5.411   1.893   3.032  3.1309 -1.7959 -0.3159
   87MOL   H49848830   5.482   1.984   3.250 -0.2747  0.3329  0.6566
   87MOL   H49948831   5.674   2.019   3.584 -0.0899  0.2413  0.2568
   87MOL   H50048832   5.534   2.013   3.698  0.0094 -1.3356 -1.2182
   87MOL   H50148833   5.595   2.249   3.507 -0.6596  0.6515 -0.1708
   87MOL   H50248834   5.469   2.241   3.624 -1.0596 -1.4588  0.3229
   87MOL   H50348835   5.317   1.642   3.450  2.6115 -0.1578 -0.1164
   87MOL   H50448836   5.182   1.485   3.323 -2.1467  1.0904  0.2948
   87MOL   H50548837   5.053   1.442   3.128  0.3051 -0.1529 -0.1151
   87MOL   O50648838   5.817   2.291   3.509 -0.3314  0.1205  0.7045
   87MOL   C50748839   5.790   2.300   3.634  0.3530 -0.0317  0.9681
   87MOL   O50848840   5.668   2.267   3.684 -0.2418 -0.3050 -0.7426
   87MOL   C50948841   5.889   2.337   3.740 -0.4960 -0.0864 -0.0715
   87MOL   C51048842   6.022   2.293   3.730  0.1158 -1.1790  0.2727
   87MOL   C51148843   6.113   2.307   3.842  0.1839  1.0114 -0.0045
   87MOL   C51248844   6.238   2.249   3.822 -0.8976  0.0465 -0.1788
   87MOL   C51348845   6.328   2.243   3.931 -0.1545 -0.4089 -0.1299
   87MOL   C51448846   6.292   2.289   4.062  0.5012 -0.3865  0.4642
   87MOL   C51548847   6.393   2.275   4.183  0.2385 -0.7429 -0.2793
   87MOL   O51648848   6.351   2.356   4.280 -0.0126  0.6262 -0.7298
   87MOL   C51748849   6.425   2.371   4.399  0.0306  0.1337 -0.1849
   87MOL   C51848850   6.383   2.503   4.464 -0.7632  0.2132 -0.0462
   87MOL   O51948851   6.483   2.189   4.178 -0.0807 -0.1796  0.3207
   87MOL   C52048852   6.165   2.357   4.074  0.0919 -0.5669  0.2590
   87MOL   C52148853   6.076   2.359   3.963 -0.5518  0.6190 -0.3185
   87MOL   C52248854   5.946   2.415   3.965  0.3148 -0.1163  0.6362
   87MOL   C52348855   5.849   2.401   3.860 -0.1278 -0.0937  0.6701
   87MOL   H52448856   6.045   2.223   3.651 -3.3519 -2.8333  0.6642
   87MOL   H52548857   6.271   2.210   3.727 -0.2202  0.8015 -0.2625
   87MOL   H52648858   6.424   2.197   3.916  0.1110 -0.4784  1.7148
   87MOL   H52748859   6.533   2.366   4.388  0.1330 -1.9094  1.4289
   87MOL   H52848860   6.398   2.296   4.473  0.2590 -0.0716 -0.3084
   87MOL   H52948861   6.275   2.497   4.477 -0.5440 -0.2245  1.6680
   87MOL   H53048862   6.424   2.512   4.565 -1.2998  1.8331  0.0438
   87MOL   H53148863   6.133   2.387   4.173 -0.0131 -0.9915  0.3565
   87MOL   H53248864   5.923   2.456   4.062 -1.8437  0.2822 -0.0062
   87MOL   H53348865   5.746   2.429   3.874 -0.1373 -0.8539  2.2158
   87MOL   O53448866   6.564   2.682   4.541  0.2343 -0.7653  0.1686
   87MOL   C53548867   6.516   2.692   4.424  1.0163  0.7276 -0.1199
   87MOL   O53648868   6.422   2.612   4.377  0.0994  0.7285 -0.1344
   87MOL   C53748869   6.555   2.801   4.332 -0.1698 -0.5195 -0.1994
   87MOL   C53848870   6.649   2.902   4.378  0.1188 -0.2609 -0.3370
   87MOL   C53948871   6.674   3.009   4.289 -0.1869  0.0758  0.7733
   87MOL   C54048872   6.766   3.116   4.322  0.4022 -0.0832  0.4907
   87MOL   C54148873   6.802   3.213   4.228 -0.4135  0.5184  0.0565
   87MOL   C54248874   6.741   3.214   4.103 -1.0191 -0.1365  1.1036
   87MOL   C54348875   6.771   3.327   4.013 -1.2157  0.9862 -0.5656
   87MOL   O54448876   6.717   3.319   3.891 -0.4360 -0.0691  0.2550
   87MOL   C54548877   6.705   3.435   3.806 -0.2278 -0.6206 -1.3465
   87MOL   C54648878   6.569   3.456   3.750 -0.1182  0.3100  0.1244
   87MOL   O54748879   6.821   3.436   4.052 -0.0836 -0.1798 -0.3316
   87MOL   C54848880   6.645   3.124   4.075  0.5177  1.0193  0.4401
   87MOL   C54948881   6.616   3.017   4.163  0.1563  0.5326  0.3105
   87MOL   C55048882   6.546   2.905   4.119 -0.0871  0.1668  0.0792
   87MOL   C55148883   6.511   2.804   4.200 -0.7284  0.2465 -0.1358
   87MOL   H55248884   6.683   2.886   4.479  2.1448 -0.3673 -1.0063
   87MOL   H55348885   6.811   3.136   4.419 -0.8767 -0.2986  1.1417
   87MOL   H55448886   6.870   3.292   4.256  1.8338 -1.5510  0.5700
   87MOL   H55548887   6.788   3.421   3.737  0.7873  0.7083 -0.4290
   87MOL   H55648888   6.734   3.530   3.851 -0.0752 -0.2909 -2.1483
   87MOL   H55748889   6.519   3.485   3.842  1.2707  0.8188  0.7350
   87MOL   H55848890   6.530   3.362   3.712  1.3575 -0.8571  1.4423
   87MOL   H55948891   6.603   3.119   3.976  0.0510 -0.9391  0.7168
   87MOL   H56048892   6.523   2.902   4.013  1.4000 -1.7557 -0.2159
   87MOL   H56148893   6.456   2.718   4.164  3.3205 -2.3679 -0.3958
   87MOL   H56248894   6.562   3.534   3.674  0.0335 -0.4343 -0.6595
   88MOL     O148895   0.680   1.228   6.929  0.3914  0.8829  0.1820
   88MOL     C248896   0.706   1.208   7.052 -0.2305  0.3992 -0.8777
   88MOL     O348897   0.808   1.257   7.123 -0.6295  0.1549 -0.3215
   88MOL     C448898   0.632   1.102   7.126 -0.0219  0.5044 -0.3499
   88MOL     C548899   0.498   1.068   7.086 -0.6825  0.4638 -0.1281
   88MOL     C648900   0.439   0.954   7.146 -0.2433  0.2501 -0.4873
   88MOL     C748901   0.321   0.904   7.096 -0.1347  0.0787 -0.0000
   88MOL     C848902   0.255   0.794   7.148 -0.3781  0.5474 -0.1482
   88MOL     C948903   0.310   0.733   7.262 -1.1931  1.0311  0.4143
   88MOL    C1048904   0.239   0.620   7.325 -0.3019  0.0271 -0.5080
   88MOL    O1148905   0.298   0.573   7.435 -0.2380 -0.0050 -0.3158
   88MOL    C1248906   0.246   0.466   7.509 -0.0504  0.0833  0.2553
   88MOL    C1348907   0.312   0.335   7.452 -0.2943  0.4358 -0.1413
   88MOL    O1448908   0.130   0.578   7.283  0.1568 -0.0383 -0.3353
   88MOL    C1548909   0.434   0.781   7.315 -0.1691 -0.3234  0.7397
   88MOL    C1648910   0.501   0.893   7.258 -0.0790 -0.5040 -0.6800
   88MOL    C1748911   0.632   0.924   7.298 -0.0042 -0.4834 -0.5620
   88MOL    C1848912   0.702   1.027   7.231  0.1221  0.2635 -0.1915
   88MOL    H1948913   0.446   1.120   7.007 -0.9360 -1.7866 -1.4823
   88MOL    H2048914   0.276   0.944   7.006 -1.5132 -0.1151  0.5826
   88MOL    H2148915   0.171   0.754   7.093  0.3211 -0.6703 -0.3447
   88MOL    H2248916   0.278   0.480   7.612 -1.8289 -0.8178  0.9492
   88MOL    H2348917   0.137   0.466   7.501 -0.0466  2.4035 -0.1683
   88MOL    H2448918   0.285   0.255   7.521 -2.2210 -0.2162 -1.5968
   88MOL    H2548919   0.275   0.297   7.356  1.2385  0.9627 -0.9609
   88MOL    H2648920   0.472   0.733   7.403  1.3762  1.1550  0.8938
   88MOL    H2748921   0.678   0.877   7.383  0.1624  3.7531  1.8550
   88MOL    H2848922   0.802   1.059   7.254  1.1683 -1.8637 -1.5863
   88MOL    H2948923   0.881   1.278   7.066 -1.6308 -0.0281 -1.6831
   88MOL    O3048924   0.499   0.348   7.662  0.2245  0.0741  0.1860
   88MOL    C3148925   0.533   0.346   7.549  0.0501 -0.0442 -0.5576
   88MOL    O3248926   0.453   0.344   7.444 -0.0956  0.2146 -0.2556
   88MOL    C3348927   0.675   0.349   7.503  0.3343  0.5448 -0.3487
   88MOL    C3448928   0.776   0.346   7.605  0.0812  0.5489  0.5092
   88MOL    C3548929   0.911   0.342   7.566 -1.0847  0.0147  0.1309
   88MOL    C3648930   1.011   0.344   7.665  0.2436 -1.0389 -0.2122
   88MOL    C3748931   1.146   0.325   7.628 -0.0507  0.1184  0.4458
   88MOL    C3848932   1.175   0.306   7.490  0.1644  0.3928 -0.8457
   88MOL    C3948933   1.315   0.275   7.454 -0.3662 -1.1080  0.4167
   88MOL    O4048934   1.339   0.292   7.324 -0.2593  0.1792 -0.2442
   88MOL    C4148935   1.470   0.293   7.272 -0.4759  1.0110 -0.4593
   88MOL    C4248936   1.521   0.435   7.279 -0.3267 -0.5877 -1.1930
   88MOL    O4348937   1.398   0.237   7.534 -0.5947 -0.1526  0.3776
   88MOL    C4448938   1.074   0.308   7.385  0.0970  0.4496 -0.5944
   88MOL    C4548939   0.945   0.325   7.428  0.5888  0.0668  1.0310
   88MOL    C4648940   0.842   0.333   7.330 -0.0364  0.3310  0.0284
   88MOL    C4748941   0.712   0.356   7.365  0.5632 -0.2840 -0.2895
   88MOL    H4848942   0.749   0.343   7.709 -0.5355 -1.9141  0.3006
   88MOL    H4948943   0.985   0.351   7.770  0.3815  1.0974 -0.2907
   88MOL    H5048944   1.222   0.312   7.704 -1.0960 -1.0719  1.3055
   88MOL    H5148945   1.479   0.255   7.170  0.0429 -0.9736  0.2889
   88MOL    H5248946   1.530   0.231   7.338 -2.9362 -0.3008  0.6042
   88MOL    H5348947   1.449   0.484   7.213 -0.5995 -0.8779 -1.1092
   88MOL    H5448948   1.506   0.486   7.374 -1.6205  0.2203 -1.8165
   88MOL    H5548949   1.101   0.298   7.281 -0.8154  1.1462 -0.9008
   88MOL    H5648950   0.872   0.325   7.227  0.4457  0.9220  0.1236
   88MOL    H5748951   0.641   0.365   7.283 -0.9164 -3.8353  0.5210
   88MOL    O5848952   1.754   0.421   7.410 -0.0150  1.0013 -0.8349
   88MOL    C5948953   1.759   0.443   7.286 -0.8611 -0.1293 -0.1105
   88MOL    O6048954   1.645   0.443   7.207  0.0763  0.3619 -0.2758
   88MOL    C6148955   1.883   0.492   7.221 -0.3975 -0.3856  0.0704
   88MOL    C6248956   1.998   0.501   7.300 -0.2047  0.3889 -0.1458
   88MOL    C6348957   2.121   0.526   7.236  0.0363 -0.2135  0.0061
   88MOL    C6448958   2.236   0.528   7.310 -0.4980  0.3138  0.4947
   88MOL    C6548959   2.359   0.576   7.253 -0.0008 -0.1816 -0.3326
   88MOL    C6648960   2.365   0.602   7.112  0.1559 -0.3527  0.5810
   88MOL    C6748961   2.489   0.647   7.044 -0.9008  0.0667 -0.1822
   88MOL    O6848962   2.582   0.694   7.131  0.5741  0.3810 -0.0875
   88MOL    C6948963   2.710   0.741   7.093 -0.1461 -0.2471 -0.5749
   88MOL    C7048964   2.716   0.891   7.077 -0.5198  0.2191  0.3379
   88MOL    O7148965   2.501   0.645   6.920 -0.4779 -0.2694 -0.3890
   88MOL    C7248966   2.250   0.585   7.034 -0.2835 -0.7151 -0.1305
   88MOL    C7348967   2.127   0.557   7.095  0.6137 -0.1195  0.8043
   88MOL    C7448968   2.012   0.538   7.016 -0.1139  0.5109  0.2412
   88MOL    C7548969   1.886   0.521   7.077  0.2129  1.0339 -0.3973
   88MOL    H7648970   1.990   0.478   7.405  4.1643  0.0030  0.2305
   88MOL    H7748971   2.242   0.491   7.411  1.0915  0.3643  0.4268
   88MOL    H7848972   2.444   0.578   7.318  0.2075 -0.0627 -0.6082
   88MOL    H7948973   2.740   0.691   7.002  0.7711 -1.4481  0.3758
   88MOL    H8048974   2.782   0.706   7.166 -1.1980 -2.5661 -0.5978
   88MOL    H8148975   2.695   0.943   7.170 -0.8107 -0.3965  0.6200
   88MOL    H8248976   2.816   0.917   7.043  0.2201 -0.7986  1.7290
   88MOL    H8348977   2.254   0.604   6.927 -2.2129 -1.3136 -0.3452
   88MOL    H8448978   2.023   0.563   6.911  0.1875  1.0411  0.3952
   88MOL    H8548979   1.795   0.516   7.019 -0.0585 -3.2449  0.2715
   88MOL    O8648980   2.584   1.133   7.053 -0.0149 -0.5723  0.3273
   88MOL    C8748981   2.561   1.042   6.970 -0.3058 -0.5877  0.2096
   88MOL    O8848982   2.622   0.924   6.969 -0.0823  0.6535 -0.2481
   88MOL    C8948983   2.458   1.063   6.862  0.0013 -0.1343 -0.6058
   88MOL    C9048984   2.434   0.961   6.765  0.6434  0.8812 -0.3046
   88MOL    C9148985   2.342   0.984   6.666  1.1624 -0.0850 -0.1528
   88MOL    C9248986   2.323   0.889   6.559 -0.1581  0.5601  0.4698
   88MOL    C9348987   2.215   0.902   6.476  0.4887  0.2345  0.3921
   88MOL    C9448988   2.127   1.006   6.485  0.9382 -0.1679  0.1607
   88MOL    C9548989   2.011   1.017   6.401  0.5926  0.3157  0.2573
   88MOL    O9648990   1.979   0.902   6.336  0.0659 -0.1707  0.1936
   88MOL    C9748991   1.861   0.897   6.255  0.3865  0.3365  0.0871
   88MOL    C9848992   1.827   0.757   6.207  0.1526  0.0127  0.2875
   88MOL    O9948993   1.950   1.120   6.377 -0.4048 -0.1518  0.1179
   88MOL   C10048994   2.144   1.103   6.586  0.3748  0.4603  0.4153
   88MOL   C10148995   2.257   1.098   6.669 -0.1320 -0.3601  0.1113
   88MOL   C10248996   2.290   1.198   6.766 -0.0298 -0.3111 -0.5167
   88MOL   C10348997   2.387   1.184   6.859 -0.6437  0.3673 -0.1394
   88MOL   H10448998   2.488   0.868   6.765 -1.4075 -0.3539  0.3231
   88MOL   H10548999   2.388   0.803   6.555  0.8749  1.3949 -1.3788
   88MOL   H10649000   2.202   0.827   6.399 -0.0320 -1.4129  2.0337
   88MOL   H10749001   1.891   0.955   6.168 -0.2198 -1.8340 -1.5959
   88MOL   H10849002   1.775   0.943   6.304  0.8998 -0.4878  1.8075
   88MOL   H10949003   1.784   0.755   6.106  1.3531 -0.4273 -0.2304
   88MOL   H11049004   1.916   0.694   6.198 -0.6196 -1.0965  0.3443
   88MOL   H11149005   2.063   1.175   6.598 -0.3531 -0.4084  0.7356
   88MOL   H11249006   2.240   1.294   6.758  2.4879  1.1659  0.7258
   88MOL   H11349007   2.410   1.271   6.920  0.6994  0.7612 -1.1865
   88MOL   O11449008   1.872   0.578   6.423  0.5573 -0.1750  0.0031
   88MOL   C11549009   1.756   0.623   6.403  0.1801  0.5684  0.2235
   88MOL   O11649010   1.730   0.719   6.305  0.2416  0.3444  0.5373
   88MOL   C11749011   1.638   0.594   6.476 -0.7887  0.4226 -0.0655
   88MOL   C11849012   1.658   0.507   6.590 -0.9149 -0.1140 -0.1865
   88MOL   C11949013   1.550   0.475   6.680  0.0990 -0.1860  0.4058
   88MOL   C12049014   1.567   0.394   6.796 -0.8697 -0.2502  0.2685
   88MOL   C12149015   1.461   0.382   6.888 -0.1315 -0.0561  0.4918
   88MOL   C12249016   1.334   0.442   6.859  0.3221  0.0593  0.2321
   88MOL   C12349017   1.219   0.411   6.952 -0.2201 -0.5871 -0.0211
   88MOL   O12449018   1.100   0.420   6.890  0.2019 -0.2104 -0.7146
   88MOL   C12549019   0.977   0.385   6.966 -0.2644  0.6463  0.0131
   88MOL   C12649020   0.934   0.240   6.927  0.7104 -0.7216 -0.0246
   88MOL   O12749021   1.228   0.378   7.065 -0.2399 -0.1682  0.0134
   88MOL   C12849022   1.317   0.509   6.737  0.2729 -0.2264  0.1511
   88MOL   C12949023   1.423   0.532   6.647 -0.2103 -0.2304 -0.3816
   88MOL   C13049024   1.403   0.609   6.531  0.0169  0.5070  0.1820
   88MOL   C13149025   1.507   0.644   6.449 -0.3634  0.5661 -0.0978
   88MOL   H13249026   1.757   0.467   6.609 -1.5527 -1.7372 -0.1733
   88MOL   H13349027   1.664   0.346   6.801 -0.7067  0.0336 -0.1627
   88MOL   H13449028   1.464   0.326   6.980 -0.6342 -1.2239 -0.1935
   88MOL   H13549029   0.892   0.449   6.943 -2.4554 -2.0369  0.3333
   88MOL   H13649030   0.993   0.386   7.074  0.9015  1.0272 -0.1513
   88MOL   H13749031   0.846   0.211   6.984  0.1704  1.5961  0.3782
   88MOL   H13849032   0.909   0.233   6.821  1.9239 -1.4732 -0.2706
   88MOL   H13949033   1.219   0.539   6.702 -0.6161 -2.2462  0.8346
   88MOL   H14049034   1.301   0.642   6.516 -0.3233 -0.4825  0.3062
   88MOL   H14149035   1.499   0.725   6.378 -0.1024  0.1627 -0.5928
   88MOL   O14249036   0.949   0.092   7.145  0.1488 -0.1366 -0.0754
   88MOL   C14349037   1.045   0.091   7.078 -0.6491  0.4847  0.5037
   88MOL   O14449038   1.043   0.147   6.959  0.2880  0.8080  0.1927
   88MOL   C14549039   1.170   0.006   7.101 -0.4546  0.4047 -0.5694
   88MOL   C14649040   1.178   8.167   7.213 -0.2486 -0.8197  0.3265
   88MOL   C14749041   1.302   8.101   7.240  0.4895  0.1441  0.1910
   88MOL   C14849042   1.314   8.017   7.354 -0.4113  0.3727 -0.3995
   88MOL   C14949043   1.432   7.954   7.381 -0.5242  0.2462  0.2012
   88MOL   C15049044   1.548   7.978   7.305  0.7940  0.3668 -0.2215
   88MOL   C15149045   1.686   7.919   7.342  0.0414  0.0171 -0.3749
   88MOL   O15249046   1.686   7.885   7.470 -0.1575 -0.9759 -0.3869
   88MOL   C15349047   1.804   7.830   7.526  0.5745  0.3591  0.4541
   88MOL   C15449048   1.785   7.803   7.676 -0.8030  0.8683 -0.2982
   88MOL   O15549049   1.778   7.904   7.263 -0.0812  0.5297  0.2997
   88MOL   C15649050   1.540   8.064   7.195 -0.3059  0.5535 -0.1723
   88MOL   C15749051   1.416   8.119   7.157  0.1289 -0.1200  0.4519
   88MOL   C15849052   1.409   8.207   7.042  0.0251 -0.2319  0.2822
   88MOL   C15949053   1.279   0.017   7.018 -0.8762  0.0330 -0.3603
   88MOL   H16049054   1.088   8.139   7.267 -0.2102 -0.2837  0.6762
   88MOL   H16149055   1.236   8.017   7.429 -0.4873 -0.7994 -0.4710
   88MOL   H16249056   1.436   7.898   7.473  0.4289 -0.9183 -0.5181
   88MOL   H16349057   1.871   7.914   7.508 -2.3027  2.6652  0.2148
   88MOL   H16449058   1.837   7.737   7.480 -2.7370 -0.4116 -0.5003
   88MOL   H16549059   1.719   7.875   7.724 -0.5286 -0.5816  2.3088
   88MOL   H16649060   1.749   7.701   7.689  1.1125  0.3028  0.8546
   88MOL   H16749061   1.630   8.082   7.138  0.9832  1.7114  2.1428
   88MOL   H16849062   1.499   8.226   6.986 -0.2054 -1.8551 -0.6434
   88MOL   H16949063   1.269   0.085   6.935  0.5395  0.8576  0.1377
   88MOL   O17049064   1.898   7.629   7.873  0.4675 -0.5136 -0.0518
   88MOL   C17149065   1.960   7.714   7.815  0.0880  0.6926  0.4364
   88MOL   O17249066   1.909   7.813   7.736 -0.0896  0.5565 -0.5237
   88MOL   C17349067   2.109   7.717   7.830 -0.9201 -0.2850 -0.7677
   88MOL   C17449068   2.183   7.777   7.732  0.0956 -0.0516 -0.2710
   88MOL   C17549069   2.324   7.795   7.736  0.7828  0.6690 -0.3665
   88MOL   C17649070   2.391   7.862   7.634  0.5863  0.6102  0.1829
   88MOL   C17749071   2.528   7.887   7.650 -0.4086  0.3804  0.0325
   88MOL   C17849072   2.599   7.829   7.758 -0.8442 -0.6110  0.1438
   88MOL   C17949073   2.747   7.863   7.774 -0.6789  0.6064  0.7105
   88MOL   O18049074   2.785   7.957   7.686 -0.2591 -0.2212 -0.6050
   88MOL   C18149075   2.920   7.999   7.695 -0.9707 -0.5358 -0.1620
   88MOL   C18249076   2.955   8.099   7.814 -0.4467 -0.0366  0.5601
   88MOL   O18349077   2.823   7.817   7.861 -0.3496  0.4417 -0.2176
   88MOL   C18449078   2.530   7.754   7.854 -0.5385 -0.0126  0.4675
   88MOL   C18549079   2.394   7.736   7.844 -0.3808 -0.5887  0.1436
   88MOL   C18649080   2.322   7.666   7.946  0.4358 -0.1576  0.0545
   88MOL   C18749081   2.181   7.661   7.938  0.3997 -0.7929 -0.3515
   88MOL   H18849082   2.138   7.838   7.655  2.0650  2.3494  0.4484
   88MOL   H18949083   2.336   7.896   7.547  1.7301  0.2030 -0.7098
   88MOL   H19049084   2.580   7.943   7.573 -0.1828 -0.7082 -0.6178
   88MOL   H19149085   2.940   8.044   7.598 -2.5409  0.3273 -0.1057
   88MOL   H19249086   2.977   7.907   7.709 -0.4042 -0.3195 -1.0289
   88MOL   H19349087   2.892   8.188   7.804  1.8822  1.6765  0.7021
   88MOL   H19449088   2.922   8.047   7.904 -0.2975 -0.0058  0.6321
   88MOL   H19549089   2.597   7.718   7.931 -0.8696  0.3639  0.9294
   88MOL   H19649090   2.381   7.638   8.032  0.0513 -1.2927 -0.0415
   88MOL   H19749091   2.135   7.616   8.025  0.9211 -1.1155 -0.2373
   88MOL   O19849092   3.138   7.937   7.921  0.2505  0.0717 -0.3861
   88MOL   C19949093   3.173   8.052   7.878  0.3735  0.3597  0.0821
   88MOL   O20049094   3.092   8.136   7.811 -0.2678  0.0594  0.5587
   88MOL   C20149095   3.306   8.112   7.895 -0.4519  0.3113  0.0558
   88MOL   C20249096   3.358   8.213   7.810 -0.0578 -0.2661 -0.0153
   88MOL   C20349097   3.481   0.030   7.825  0.1760 -0.2812 -0.5220
   88MOL   C20449098   3.527   0.117   7.728  0.4011  0.2465 -1.1640
   88MOL   C20549099   3.649   0.181   7.751 -0.5170  0.1498  0.1361
   88MOL   C20649100   3.731   0.152   7.859  0.2473  0.1834 -0.2243
   88MOL   C20749101   3.858   0.228   7.884 -0.6609  0.0486 -0.4827
   88MOL   O20849102   3.878   0.341   7.806 -0.1017  0.2475 -0.1328
   88MOL   C20949103   3.945   0.447   7.874  0.2998 -0.4363  0.4041
   88MOL   C21049104   4.074   0.482   7.802  0.1752 -0.7613  0.9166
   88MOL   O21149105   3.935   0.196   7.978  0.6019 -0.4207  0.2728
   88MOL   C21249106   3.690   0.058   7.952 -0.0856  0.5207  0.2745
   88MOL   C21349107   3.566   8.240   7.935  0.5002 -0.7349 -0.2023
   88MOL   C21449108   3.524   8.139   8.021 -0.4883 -0.6605 -0.1033
   88MOL   C21549109   3.397   8.078   8.005 -0.7347  0.5975  0.4213
   88MOL   H21649110   3.297   8.235   7.724 -1.4921 -2.2585  0.4549
   88MOL   H21749111   3.467   0.139   7.640 -2.3876  0.9111  0.8324
   88MOL   H21849112   3.683   0.241   7.667  1.0156 -1.1170 -0.1821
   88MOL   H21949113   3.964   0.438   7.981  0.2856 -3.9470  0.1635
   88MOL   H22049114   3.879   0.534   7.873  2.4059  1.1987 -1.4896
   88MOL   H22149115   4.139   0.544   7.864 -1.2169  0.3786  1.2844
   88MOL   H22249116   4.124   0.396   7.760  0.1664 -0.9625  1.3107
   88MOL   H22349117   3.753   0.033   8.037  0.0534 -2.7037 -0.7163
   88MOL   H22449118   3.586   8.108   8.103  0.2330  0.9963 -0.0037
   88MOL   H22549119   3.375   7.997   8.073  1.4216 -2.1193 -1.9784
   88MOL   O22649120   4.088   0.752   7.786 -0.2089  0.1333  0.0709
   88MOL   C22749121   4.070   0.686   7.682  0.4465  0.5820  0.0012
   88MOL   O22849122   4.043   0.552   7.687 -0.1523 -0.1929  0.2731
   88MOL   C22949123   4.058   0.744   7.543  0.1502 -1.2275  0.2282
   88MOL   C23049124   4.034   0.659   7.435  0.4620 -0.3593 -0.0910
   88MOL   C23149125   4.021   0.712   7.304 -0.4676 -0.1715  1.0734
   88MOL   C23249126   4.001   0.633   7.191 -0.0368  0.5288  0.0686
   88MOL   C23349127   3.957   0.689   7.067 -1.0977  0.0916 -0.0943
   88MOL   C23449128   3.957   0.831   7.050  0.1191 -0.0445  0.3501
   88MOL   C23549129   3.923   0.896   6.921 -0.1697  0.3595  0.1588
   88MOL   O23649130   3.894   0.803   6.818 -0.1664  0.5234 -0.3011
   88MOL   C23749131   3.878   0.852   6.684  0.8048  0.1828  0.4010
   88MOL   C23849132   3.740   0.928   6.673  0.4922  0.0564 -0.6172
   88MOL   O23949133   3.913   1.016   6.908  0.3622  0.1629 -0.0857
   88MOL   C24049134   3.986   0.911   7.164 -0.0439 -0.3069  0.3389
   88MOL   C24149135   4.021   0.855   7.288  0.2970  0.1970  0.0983
   88MOL   C24249136   4.046   0.937   7.394 -0.2577  0.2820  0.0636
   88MOL   C24349137   4.069   0.881   7.523 -0.2095  0.3914  0.4680
   88MOL   H24449138   4.027   0.551   7.445 -0.4640 -0.6339 -3.3406
   88MOL   H24549139   4.019   0.527   7.188  0.2621  0.6034 -1.0663
   88MOL   H24649140   3.945   0.619   6.985  0.2837 -0.0036 -0.2295
   88MOL   H24749141   3.875   0.776   6.605  0.4252 -0.3968  0.9719
   88MOL   H24849142   3.956   0.923   6.654  1.8186 -1.6051 -1.3500
   88MOL   H24949143   3.668   0.847   6.684  1.5865 -0.8493 -0.0889
   88MOL   H25049144   3.729   0.989   6.763  0.6679 -1.1234  0.2146
   88MOL   H25149145   3.976   1.017   7.150 -0.9884 -0.7624 -2.9034
   88MOL   H25249146   4.047   1.045   7.385 -0.7148  0.2169 -0.8496
   88MOL   H25349147   4.093   0.953   7.601 -2.6047  1.3597  0.3487
   88MOL   O25449148   3.831   1.186   6.635 -0.0521  0.2291 -0.6961
   88MOL   C25549149   3.764   1.127   6.551  0.1916 -0.6663 -0.3571
   88MOL   O25649150   3.717   1.005   6.553 -0.7534  0.4816 -0.5628
   88MOL   C25749151   3.715   1.199   6.427  0.4522  0.0872  0.2216
   88MOL   C25849152   3.761   1.329   6.392  0.3863  0.2422  0.0821
   88MOL   C25949153   3.704   1.399   6.279  0.5681 -0.5624 -0.1449
   88MOL   C26049154   3.748   1.535   6.241 -0.0043  0.1730  0.2650
   88MOL   C26149155   3.690   1.592   6.124 -0.8637 -0.4294  0.6610
   88MOL   C26249156   3.603   1.520   6.041 -0.5172  0.2774  0.0262
   88MOL   C26349157   3.575   1.572   5.911 -0.3635 -0.1365 -0.2590
   88MOL   O26449158   3.556   1.709   5.906 -0.3793 -0.2010 -0.8987
   88MOL   C26549159   3.501   1.781   5.794  0.0993 -0.5056 -1.1875
   88MOL   C26649160   3.348   1.764   5.779 -0.1993 -0.0188 -0.5902
   88MOL   O26749161   3.567   1.500   5.811 -0.5253  1.1721  0.0464
   88MOL   C26849162   3.560   1.392   6.083  0.0142 -0.5182 -0.5608
   88MOL   C26949163   3.608   1.331   6.201 -0.9543 -0.0461  0.4768
   88MOL   C27049164   3.558   1.205   6.241 -0.0866  0.5000  0.1504
   88MOL   C27149165   3.606   1.144   6.356 -0.6962 -0.7400  0.1382
   88MOL   H27249166   3.834   1.387   6.447  0.5249  1.2296 -1.1132
   88MOL   H27349167   3.825   1.585   6.298  0.8492  0.8461 -1.4456
   88MOL   H27449168   3.734   1.685   6.091 -1.1727 -0.0741  1.2495
   88MOL   H27549169   3.548   1.751   5.700  1.7724  1.0207 -0.8733
   88MOL   H27649170   3.520   1.887   5.814  1.5740 -1.4777  3.0556
   88MOL   H27749171   3.310   1.740   5.878 -0.9166 -2.0344 -1.3172
   88MOL   H27849172   3.303   1.859   5.750  1.3843  0.3719 -1.8217
   88MOL   H27949173   3.488   1.336   6.025  0.0667 -3.3216  2.0073
   88MOL   H28049174   3.481   1.148   6.191  0.4528 -0.3411  0.2661
   88MOL   H28149175   3.555   1.054   6.387 -0.1674 -1.8729 -2.1509
   88MOL   O28249176   3.186   1.552   5.831 -0.6473 -0.0421  0.5557
   88MOL   C28349177   3.242   1.562   5.718  0.3708 -0.2298 -0.3075
   88MOL   O28449178   3.312   1.667   5.686  0.0988 -0.3351 -0.1289
   88MOL   C28549179   3.246   1.455   5.612 -0.7380  0.2855 -0.8611
   88MOL   C28649180   3.158   1.346   5.626  0.0963  0.3058  0.3051
   88MOL   C28749181   3.164   1.250   5.523 -0.3511  0.1533  0.3452
   88MOL   C28849182   3.070   1.145   5.521  0.5122  0.4557  0.5519
   88MOL   C28949183   3.074   1.048   5.414  0.0179 -0.4901 -0.3552
   88MOL   C29049184   3.169   1.057   5.315 -1.0614  0.5498  0.3138
   88MOL   C29149185   3.172   0.959   5.199 -0.1180 -0.1920 -0.3895
   88MOL   O29249186   3.091   0.856   5.212  0.0142  0.0264  0.0059
   88MOL   C29349187   3.043   0.773   5.106 -0.9043  0.3024  0.1303
   88MOL   C29449188   2.928   0.834   5.020 -0.0589 -0.5808 -0.2512
   88MOL   O29549189   3.236   0.985   5.095 -0.1816 -0.1365 -0.7179
   88MOL   C29649190   3.268   1.164   5.317  0.0883  0.6670 -0.4372
   88MOL   C29749191   3.265   1.256   5.422  0.2403  0.2140  0.1476
   88MOL   C29849192   3.359   1.355   5.420  0.2145 -0.2743 -0.2479
   88MOL   C29949193   3.357   1.459   5.515 -0.2665  0.0709  0.3767
   88MOL   H30049194   3.085   1.332   5.704 -0.1275  1.3624  0.2925
   88MOL   H30149195   2.991   1.144   5.594  0.9803  1.6037  1.0765
   88MOL   H30249196   2.988   0.982   5.415  0.9818 -1.7905 -1.5045
   88MOL   H30349197   3.014   0.673   5.139  1.3424  0.0040  1.2477
   88MOL   H30449198   3.132   0.753   5.046 -0.7098 -0.2667  0.6002
   88MOL   H30549199   2.882   0.926   5.054 -0.2105 -1.1514  1.1224
   88MOL   H30649200   2.973   0.864   4.925 -0.2592  0.5921  0.0278
   88MOL   H30749201   3.332   1.165   5.230 -0.4022 -2.0401 -0.8711
   88MOL   H30849202   3.427   1.347   5.336 -2.1248 -0.2147 -2.1846
   88MOL   H30949203   3.435   1.533   5.504  0.7210 -1.2439 -1.8794
   88MOL   O31049204   2.685   0.792   5.145 -0.4620 -0.2212 -0.2929
   88MOL   C31149205   2.709   0.727   5.048 -0.4160 -0.2187  0.0928
   88MOL   O31249206   2.833   0.734   4.988  0.0164  0.1633  0.1099
   88MOL   C31349207   2.603   0.647   4.975 -0.0628 -0.0417 -0.1013
   88MOL   C31449208   2.476   0.639   5.028 -0.5669 -0.4027 -0.0566
   88MOL   C31549209   2.371   0.565   4.957 -0.5470 -0.1542  0.9157
   88MOL   C31649210   2.236   0.562   5.004 -1.1867  0.1531  0.1189
   88MOL   C31749211   2.143   0.496   4.925 -1.1176  0.0425  0.1836
   88MOL   C31849212   2.175   0.435   4.803 -0.2133 -0.4517  0.4695
   88MOL   C31949213   2.064   0.360   4.734 -0.4166 -0.6550 -0.3475
   88MOL   O32049214   2.101   0.314   4.614  0.2396  0.0343  0.5665
   88MOL   C32149215   2.018   0.235   4.531 -0.0292 -0.0329  0.4523
   88MOL   C32249216   2.079   0.096   4.535  0.1709 -0.5907 -0.2581
   88MOL   O32349217   1.950   0.350   4.780  0.3577 -0.2949 -0.5099
   88MOL   C32449218   2.306   0.437   4.754 -0.1238 -0.7428  0.1117
   88MOL   C32549219   2.403   0.500   4.833 -0.8005 -0.0794  0.1693
   88MOL   C32649220   2.537   0.505   4.785  0.4686 -0.1832 -0.2497
   88MOL   C32749221   2.633   0.584   4.851 -0.3053 -0.2875 -0.1132
   88MOL   H32849222   2.443   0.698   5.112 -0.5891 -2.1052  1.1522
   88MOL   H32949223   2.218   0.617   5.095 -2.3740 -0.9563  0.5659
   88MOL   H33049224   2.038   0.506   4.948 -1.2553  1.5638 -1.0696
   88MOL   H33149225   2.015   0.285   4.434  1.0109 -0.6121  0.1059
   88MOL   H33249226   1.920   0.229   4.577 -1.5597  0.0978 -2.6701
   88MOL   H33349227   2.171   0.092   4.477  0.0063  0.5843 -0.5986
   88MOL   H33449228   2.085   0.060   4.638 -3.8927  0.5576  0.4637
   88MOL   H33549229   2.333   0.380   4.665 -1.0949  0.7435 -1.1549
   88MOL   H33649230   2.558   0.460   4.689 -0.9173 -2.6217  0.5689
   88MOL   H33749231   2.726   0.598   4.799  0.0312  0.8519  0.7674
   88MOL   O33849232   2.042   0.063   4.280  1.0522  0.4029  0.2535
   88MOL   C33949233   1.978   8.242   4.360 -0.8095 -0.1598  0.6324
   88MOL   O34049234   1.983   0.005   4.491 -0.1363  0.1464  0.0216
   88MOL   C34149235   1.868   8.150   4.322 -0.0798  0.5861 -0.2410
   88MOL   C34249236   1.790   8.071   4.411 -0.2520 -0.2043 -0.0273
   88MOL   C34349237   1.687   7.985   4.353  0.1642  0.1622 -0.1328
   88MOL   C34449238   1.613   7.899   4.442 -0.0100  0.6338  0.4947
   88MOL   C34549239   1.524   7.808   4.387  0.3945 -0.3277  0.0015
   88MOL   C34649240   1.502   7.798   4.249  0.3829  0.1333  0.3984
   88MOL   C34749241   1.401   7.699   4.197 -0.4219  0.4633  0.1043
   88MOL   O34849242   1.334   7.633   4.298  0.5721 -0.1322  0.3716
   88MOL   C34949243   1.264   7.509   4.272  0.4793 -0.3112  0.5273
   88MOL   C35049244   1.136   7.546   4.205  0.7024  0.2030  0.0103
   88MOL   O35149245   1.394   7.672   4.075  0.0045 -0.0844 -0.1312
   88MOL   C35249246   1.571   7.888   4.163  0.5157 -0.2451  0.8759
   88MOL   C35349247   1.664   7.979   4.215 -0.6692 -0.4685  0.0043
   88MOL   C35449248   1.738   8.061   4.131 -0.1193 -0.9500 -0.2215
   88MOL   C35549249   1.835   8.150   4.187 -0.4108 -0.1803 -0.1726
   88MOL   H35649250   1.811   8.063   4.516  0.6066 -1.4378 -0.2795
   88MOL   H35749251   1.635   7.898   4.547 -0.2092 -1.4604  0.5412
   88MOL   H35849252   1.480   7.738   4.457 -2.2141  0.3899 -0.8476
   88MOL   H35949253   1.243   7.453   4.363 -2.6319 -1.2016 -0.6633
   88MOL   H36049254   1.329   7.458   4.200  0.1533  0.4996 -0.3523
   88MOL   H36149255   1.149   7.576   4.101  2.0200 -0.8393 -0.1408
   88MOL   H36249256   1.071   7.459   4.197 -2.6442  2.5921  0.0718
   88MOL   H36349257   1.547   7.890   4.058 -2.2321  1.6070  1.4798
   88MOL   H36449258   1.721   8.068   4.025 -2.6970  0.3506  0.2443
   88MOL   H36549259   1.882   8.222   4.122 -0.2461  0.3715  0.5471
   88MOL   O36649260   1.042   7.787   4.112 -0.4810 -0.0075 -0.4115
   88MOL   C36749261   1.011   7.746   4.224  0.1202  0.3003  0.2620
   88MOL   O36849262   1.051   7.630   4.280  0.4745  0.2341 -0.2367
   88MOL   C36949263   0.934   7.829   4.312 -0.4921 -0.6839 -0.4455
   88MOL   C37049264   0.865   7.943   4.260  0.6071 -0.2281  0.1222
   88MOL   C37149265   0.781   8.013   4.343 -0.5350  0.5029  0.2227
   88MOL   C37249266   0.712   8.123   4.285 -0.5206 -0.1469  0.0821
   88MOL   C37349267   0.624   8.201   4.365 -0.3397 -0.7230  0.2636
   88MOL   C37449268   0.610   8.178   4.498  0.1081  0.4235 -0.6109
   88MOL   C37549269   0.522   0.009   4.581  0.0648 -0.5418 -0.2484
   88MOL   O37649270   0.536   8.244   4.708 -0.4253  0.0392  0.1692
   88MOL   C37749271   0.482   0.086   4.793 -0.0082  0.2412  0.2548
   88MOL   C37849272   0.533   0.054   4.928 -0.2082 -0.0736 -0.2809
   88MOL   O37949273   0.445   0.089   4.531  0.5434 -0.3061  0.4641
   88MOL   C38049274   0.682   8.068   4.552  0.1121  0.0415 -0.4674
   88MOL   C38149275   0.766   7.987   4.478 -0.3909 -0.3131 -0.1418
   88MOL   C38249276   0.843   7.882   4.534  0.0042  0.3558 -0.7341
   88MOL   C38349277   0.913   7.800   4.449  0.0110  0.3885 -0.2743
   88MOL   H38449278   0.881   7.964   4.155 -2.1692  2.3389  0.1475
   88MOL   H38549279   0.735   8.136   4.181  0.2302 -1.6805  0.0509
   88MOL   H38649280   0.569   0.026   4.310  1.8076 -0.0498 -1.0505
   88MOL   H38749281   0.375   0.067   4.794 -0.1187  0.7638 -0.8935
   88MOL   H38849282   0.492   0.189   4.759 -2.2907 -0.0535 -1.4093
   88MOL   H38949283   0.628   8.249   4.926 -1.0110 -1.5613  0.8860
   88MOL   H39049284   0.558   0.146   4.980 -0.5833  0.1226 -0.4515
   88MOL   H39149285   0.665   8.042   4.656  1.7206 -1.1404 -0.4792
   88MOL   H39249286   0.833   7.854   4.638 -1.1970 -0.7312 -1.1323
   88MOL   H39349287   0.955   7.710   4.491 -0.2346 -0.2651 -1.4022
   88MOL   O39449288   0.459   8.038   4.906 -0.3639  0.5710 -0.1926
   88MOL   C39549289   0.404   8.110   4.990  0.4609  0.4712  0.1661
   88MOL   O39649290   0.440   8.239   5.007  0.2740  0.4045  0.3556
   88MOL   C39749291   0.288   8.052   5.073  0.1602  0.0430 -0.0801
   88MOL   C39849292   0.258   7.917   5.069  0.4088 -0.2562  0.2297
   88MOL   C39949293   0.147   7.871   5.138  0.0512 -0.1242  0.0055
   88MOL   C40049294   0.114   7.733   5.140 -0.3529 -0.4738 -0.0601
   88MOL   C40149295   8.242   7.682   5.199  0.1270  0.8338  0.0898
   88MOL   C40249296   8.161   7.774   5.272 -0.3276 -0.7412  0.0360
   88MOL   C40349297   8.041   7.730   5.336 -0.8406 -0.3148 -0.1986
   88MOL   O40449298   8.045   7.605   5.389  0.4751 -0.0584 -0.3247
   88MOL   C40549299   7.942   7.554   5.468  0.7842  0.6940  0.3455
   88MOL   C40649300   7.827   7.482   5.400 -0.3366 -0.0183  0.5584
   88MOL   O40749301   7.938   7.801   5.343  0.3043  0.0472 -0.5487
   88MOL   C40849302   8.190   7.914   5.269  0.0924  0.6964 -0.5810
   88MOL   C40949303   0.066   7.962   5.208  0.4644 -0.1054 -0.0186
   88MOL   C41049304   0.094   8.102   5.218 -0.3214 -0.2831 -0.3793
   88MOL   C41149305   0.210   8.141   5.149  0.7417  0.3852  0.0427
   88MOL   H41249306   0.325   7.866   5.002  1.2083  2.1510 -0.8633
   88MOL   H41349307   0.172   7.663   5.084  0.6783  2.2461 -2.5206
   88MOL   H41449308   8.204   7.583   5.182 -0.5076  1.0859  0.0465
   88MOL   H41549309   7.889   7.625   5.531 -2.2401  1.1702 -2.6203
   88MOL   H41649310   7.991   7.483   5.536 -1.0084 -1.3325 -0.4090
   88MOL   H41749311   7.788   7.534   5.313  1.0561  0.3766  0.1478
   88MOL   H41849312   7.868   7.394   5.350 -1.1470  0.5917 -1.2122
   88MOL   H41949313   8.129   7.986   5.321 -0.5425 -0.4575  0.2892
   88MOL   H42049314   0.028   8.170   5.269 -1.5410 -1.8806  0.1930
   88MOL   H42149315   0.237   8.245   5.149  0.2939  0.5040 -0.3915
   88MOL   O42249316   7.588   7.352   5.334  0.1777 -0.3837 -0.7475
   88MOL   C42349317   7.610   7.396   5.447  0.1431  0.4585 -0.0004
   88MOL   O42449318   7.720   7.451   5.490  0.0940 -0.1123  0.0783
   88MOL   C42549319   7.504   7.396   5.553  0.3041 -0.2537 -1.3684
   88MOL   C42649320   7.533   7.444   5.682  0.0216 -0.3277  0.4633
   88MOL   C42749321   7.429   7.470   5.772  1.0658  0.3667 -1.2548
   88MOL   C42849322   7.457   7.522   5.900  0.1009  0.5471  0.5221
   88MOL   C42949323   7.356   7.551   5.989 -0.3970 -0.3061  0.0751
   88MOL   C43049324   7.220   7.513   5.961 -0.3016 -0.3456 -1.0055
   88MOL   C43149325   7.105   7.532   6.053  0.2330  0.1386 -0.3806
   88MOL   O43249326   7.135   7.558   6.185  0.1643  0.0314 -0.1361
   88MOL   C43349327   7.024   7.599   6.270 -0.1828  0.2208  0.7390
   88MOL   C43449328   7.067   7.731   6.331  0.0346 -0.3792  0.4323
   88MOL   O43549329   6.988   7.522   6.021  0.0008 -0.5161  0.5553
   88MOL   C43649330   7.192   7.453   5.845  0.0040 -0.4554  0.4938
   88MOL   C43749331   7.293   7.432   5.744 -0.0327 -0.2760  0.5375
   88MOL   C43849332   7.265   7.372   5.619 -0.3183  0.3813  0.6125
   88MOL   C43949333   7.373   7.356   5.522 -0.8263  1.0966 -0.2524
   88MOL   H44049334   7.630   7.477   5.716  0.5327 -2.9494  1.7016
   88MOL   H44149335   7.560   7.550   5.915  0.1992  0.5456 -0.1296
   88MOL   H44249336   7.375   7.610   6.077  0.8094  1.7169 -1.5079
   88MOL   H44349337   7.009   7.520   6.344  0.5693 -3.7575 -3.1564
   88MOL   H44449338   6.937   7.625   6.209  0.5739  1.6080  0.2369
   88MOL   H44549339   7.099   7.793   6.248 -3.3014  1.7310  0.6122
   88MOL   H44649340   6.986   7.779   6.386 -1.1889 -1.3443 -0.4876
   88MOL   H44749341   7.091   7.419   5.826 -0.3846  1.3573 -0.7436
   88MOL   H44849342   7.162   7.350   5.598  0.6225 -1.9252 -1.8543
   88MOL   H44949343   7.346   7.317   5.425 -0.5352  2.6444 -0.9708
   88MOL   O45049344   7.043   7.687   6.605  0.3792 -0.4159 -0.5921
   88MOL   C45149345   7.155   7.697   6.555 -0.9796 -0.0388 -0.1042
   88MOL   O45249346   7.179   7.716   6.420 -0.3078 -0.6611 -0.0366
   88MOL   C45349347   7.285   7.694   6.625  0.4813 -0.1216 -0.1771
   88MOL   C45449348   7.281   7.693   6.767 -0.2993 -0.6257 -0.4034
   88MOL   C45549349   7.395   7.689   6.843 -0.6247 -0.0582  0.1458
   88MOL   C45649350   7.383   7.694   6.985  0.2108  0.8423  0.3168
   88MOL   C45749351   7.490   7.704   7.072  0.1240 -0.0772 -0.2220
   88MOL   C45849352   7.618   7.716   7.018  0.2499  0.3936 -0.1151
   88MOL   C45949353   7.748   7.721   7.093 -0.0014  0.5662 -0.0174
   88MOL   O46049354   7.725   7.729   7.223 -0.6082 -0.0895 -0.0091
   88MOL   C46149355   7.834   7.721   7.316  0.1559 -0.0114 -0.4929
   88MOL   C46249356   7.895   7.580   7.331  0.1620 -0.0204 -0.5067
   88MOL   O46349357   7.861   7.711   7.045 -0.5511  0.1513  0.1747
   88MOL   C46449358   7.634   7.706   6.874 -0.5964 -0.5872  0.2724
   88MOL   C46549359   7.523   7.692   6.784 -0.4550  0.0805  0.5076
   88MOL   C46649360   7.538   7.693   6.643  0.5703 -0.9862 -0.3436
   88MOL   C46749361   7.415   7.701   6.565  0.3763 -0.4891  0.7102
   88MOL   H46849362   7.189   7.678   6.822 -1.0902 -1.1089 -1.8468
   88MOL   H46949363   7.283   7.681   7.023  0.7805 -1.5595  1.0828
   88MOL   H47049364   7.464   7.708   7.177 -0.4956 -0.5035 -0.3561
   88MOL   H47149365   7.797   7.743   7.416  0.4354  1.9150 -0.7884
   88MOL   H47249366   7.907   7.795   7.281  0.9610  0.5885  2.3323
   88MOL   H47349367   7.915   7.552   7.227 -2.2695 -1.0464 -0.7148
   88MOL   H47449368   7.991   7.588   7.382 -0.7910  0.3261  1.2743
   88MOL   H47549369   7.732   7.711   6.829 -0.4822 -2.7464  0.2024
   88MOL   H47649370   7.632   7.704   6.592  1.3533 -2.0341  0.8233
   88MOL   H47749371   7.417   7.711   6.458  3.4411 -0.9339  0.6884
   88MOL   O47849372   7.965   7.414   7.542 -0.0883  0.2938  1.1132
   88MOL   C47949373   7.845   7.419   7.507 -0.0598 -0.5559 -0.3971
   88MOL   O48049374   7.803   7.488   7.400 -0.5466  0.8230  0.7339
   88MOL   C48149375   7.742   7.356   7.589  0.0098  0.2858  0.5284
   88MOL   C48249376   7.603   7.393   7.586  0.1904  0.4426 -0.3931
   88MOL   C48349377   7.511   7.340   7.680  0.1496 -0.0860  0.1849
   88MOL   C48449378   7.375   7.369   7.669  0.3671 -0.3550 -0.4327
   88MOL   C48549379   7.283   7.312   7.751  0.0582 -0.3987 -0.6891
   88MOL   C48649380   7.329   7.212   7.848  0.0102 -0.0441  0.2021
   88MOL   C48749381   7.230   7.145   7.941  0.1137  0.1138  0.5319
   88MOL   O48849382   7.111   7.211   7.942  0.3530 -0.0825 -0.1268
   88MOL   C48949383   6.994   7.152   7.995  0.1704 -0.3995 -0.0650
   88MOL   C49049384   6.870   7.202   7.926  0.1955 -0.3964  0.3339
   88MOL   O49149385   7.252   7.040   7.995 -0.0143  0.5908  0.3964
   88MOL   C49249386   7.464   7.182   7.860 -0.0039 -0.0428  0.7072
   88MOL   C49349387   7.554   7.242   7.772 -0.1863 -0.2373  0.5568
   88MOL   C49449388   7.691   7.200   7.772 -0.2623 -0.1746  0.3506
   88MOL   C49549389   7.774   7.253   7.678 -0.1680 -0.0579  0.2552
   88MOL   H49649390   7.570   7.473   7.521 -0.7182  0.9500  0.6618
   88MOL   H49749391   7.342   7.444   7.599  0.3975  0.6962  0.6462
   88MOL   H49849392   7.182   7.344   7.734  0.0919 -0.3792 -0.8525
   88MOL   H49949393   6.980   7.160   8.103 -2.3615 -3.2488 -0.1150
   88MOL   H50049394   6.998   7.045   7.979 -2.0017 -0.6721  0.9802
   88MOL   H50149395   6.776   7.157   7.959 -0.6827  0.3807 -1.0219
   88MOL   H50249396   6.863   7.306   7.959 -0.6930 -0.5885  0.7768
   88MOL   H50349397   7.486   7.098   7.926  0.3387  0.4469  1.2216
   88MOL   H50449398   7.727   7.118   7.833 -2.1728 -1.1697  0.1569
   88MOL   H50549399   7.879   7.229   7.675 -0.0914  0.4380 -2.4745
   88MOL   O50649400   6.889   6.998   7.739 -0.2863 -0.4130  0.5429
   88MOL   C50749401   6.892   7.117   7.707 -0.6312  0.5893 -0.1971
   88MOL   O50849402   6.879   7.218   7.790  0.7615 -0.0914  0.9689
   88MOL   C50949403   6.900   7.167   7.565 -0.5315  0.3694  0.0806
   88MOL   C51049404   6.920   7.300   7.521 -0.0970 -0.3064 -0.0749
   88MOL   C51149405   6.918   7.328   7.382  0.1466 -0.0060  0.1479
   88MOL   C51249406   6.934   7.462   7.339  0.5372 -0.2254 -0.8386
   88MOL   C51349407   6.924   7.494   7.205  0.9068  0.0078  0.4189
   88MOL   C51449408   6.909   7.397   7.104 -0.8554  0.0144  0.3929
   88MOL   C51549409   6.908   7.433   6.960  0.3801  0.8745  0.5720
   88MOL   O51649410   6.897   7.328   6.873  0.5358  0.0831  0.0001
   88MOL   C51749411   6.885   7.347   6.732 -0.0719  0.2113 -0.6050
   88MOL   C51849412   7.023   7.324   6.668  0.4097 -0.1144 -0.6129
   88MOL   O51949413   6.922   7.549   6.917 -0.0385  0.4602  0.0699
   88MOL   C52049414   6.899   7.259   7.145  0.1626  0.2102 -0.2512
   88MOL   C52149415   6.901   7.228   7.286  0.2334 -0.4814  0.7558
   88MOL   C52249416   6.899   7.094   7.328  0.4922 -0.4175  0.6383
   88MOL   C52349417   6.894   7.071   7.464  0.4045 -0.0239  0.1860
   88MOL   H52449418   6.934   7.372   7.600 -2.1805 -2.0754  1.9821
   88MOL   H52549419   6.936   7.540   7.412 -0.5014 -0.9612  0.0025
   88MOL   H52649420   6.920   7.599   7.178 -0.4130  0.4241  2.1404
   88MOL   H52749421   6.835   7.436   6.695 -2.6179 -1.3936 -1.1964
   88MOL   H52849422   6.820   7.267   6.695 -1.8070  1.2434  0.1642
   88MOL   H52949423   7.086   7.412   6.679 -1.1370  0.9620 -0.0839
   88MOL   H53049424   7.075   7.235   6.703  1.1732 -0.3976 -2.4049
   88MOL   H53149425   6.878   7.179   7.075  3.7682 -1.4118  0.4107
   88MOL   H53249426   6.868   7.015   7.261  0.7258 -1.2670  1.5293
   88MOL   H53349427   6.882   6.969   7.500 -0.4083  1.2800  3.8343
   88MOL   O53449428   7.231   7.273   6.493 -0.0381  0.3842  0.4770
   88MOL   C53549429   7.113   7.268   6.455 -0.7746  0.1582 -0.6997
   88MOL   O53649430   7.006   7.298   6.530  0.6058  0.2365 -0.0290
   88MOL   C53749431   7.076   7.227   6.321 -0.4020  0.4189  0.2363
   88MOL   C53849432   6.943   7.246   6.272  0.0913 -0.1855 -0.1559
   88MOL   C53949433   6.917   7.211   6.138  0.4558  0.4056  0.2412
   88MOL   C54049434   6.783   7.212   6.091  0.3090  0.1911  0.8078
   88MOL   C54149435   6.748   7.188   5.959 -1.1444 -0.1500  0.0522
   88MOL   C54249436   6.858   7.164   5.867  0.2551 -0.5238  0.4446
   88MOL   C54349437   6.815   7.154   5.726 -0.0428  0.4576 -0.0169
   88MOL   O54449438   6.920   7.104   5.655  0.7090 -0.1654  0.1414
   88MOL   C54549439   6.926   7.110   5.514 -0.1124 -0.3953 -0.0202
   88MOL   C54649440   6.831   7.009   5.443 -0.0874 -0.4037 -0.6765
   88MOL   O54749441   6.706   7.189   5.679  0.5199  0.2754 -0.2824
   88MOL   C54849442   6.990   7.148   5.916  0.0911  0.1429 -0.0246
   88MOL   C54949443   7.018   7.171   6.049  0.8479  0.5290  0.4413
   88MOL   C55049444   7.149   7.158   6.093 -0.0926  0.0539 -0.3919
   88MOL   C55149445   7.180   7.186   6.230  0.7433 -0.7072  0.1295
   88MOL   H55249446   6.865   7.283   6.338 -1.5486 -1.1752 -1.5200
   88MOL   H55349447   6.710   7.221   6.169  0.7609 -0.1908  1.2791
   88MOL   H55449448   6.641   7.189   5.942 -1.9303 -1.3695  4.4009
   88MOL   H55549449   7.032   7.100   5.492  0.2192 -0.8533  1.7333
   88MOL   H55649450   6.901   7.213   5.490 -0.5093 -0.4353  0.2243
   88MOL   H55749451   6.814   7.017   5.336 -2.9615 -1.1525 -0.3230
   88MOL   H55849452   6.733   7.018   5.490  0.7532 -0.4628  1.1409
   88MOL   H55949453   7.064   7.123   5.841 -0.2654  1.2660 -0.7651
   88MOL   H56049454   7.230   7.133   6.026  1.7653  0.7017  1.5523
   88MOL   H56149455   7.285   7.180   6.256  0.3826  0.5614  1.9713
   88MOL   H56249456   6.851   6.907   5.476  2.9966  0.9530  1.8959
   8.24907   8.24907   8.24907
