;
; Gromacs include topology (itp) file.
; For Molecular Group XYZ
; Force field scheme: opls2005
; Produced from DL_FIELD v4.11
;


[ moleculetype ]
; name    nrexcl
XYZ    3

[ atoms ]
; nr   type   resnr   residu    atom    cgnr    charge    mass
    1         O    1  MOL      O1     1  -0.4400000   15.9994
    2         C    1  MOL      C2     2   0.6350000   12.0115
    3        OH    1  MOL      O3     3  -0.5300000   15.9994
    4        CA    1  MOL      C4     4  -0.1150000   12.0115
    5        CA    1  MOL      C5     5  -0.1150000   12.0115
    6        CA    1  MOL      C6     6   0.0000000   12.0115
    7        CA    1  MOL      C7     7  -0.1150000   12.0115
    8        CA    1  MOL      C8     8  -0.1150000   12.0115
    9        CA    1  MOL      C9     9  -0.1150000   12.0115
   10       CO4    1  MOL     C10    10   0.6250000   12.0115
   11       OES    1  MOL     O11    11  -0.3300000   15.9994
   12        CT    1  MOL     C12    12   0.1900000   12.0115
   13        CT    1  MOL     C13    13   0.1900000   12.0115
   14         O    1  MOL     O14    14  -0.4300000   15.9994
   15        CA    1  MOL     C15    15  -0.1150000   12.0115
   16        CA    1  MOL     C16    16   0.0000000   12.0115
   17        CA    1  MOL     C17    17  -0.1150000   12.0115
   18        CA    1  MOL     C18    18  -0.1150000   12.0115
   19        HA    1  MOL     H19    19   0.1150000    1.0080
   20        HA    1  MOL     H20    20   0.1150000    1.0080
   21        HA    1  MOL     H21    21   0.1150000    1.0080
   22       HAE    1  MOL     H22    22   0.0300000    1.0080
   23       HAE    1  MOL     H23    23   0.0300000    1.0080
   24       HAE    1  MOL     H24    24   0.0300000    1.0080
   25       HAE    1  MOL     H25    25   0.0300000    1.0080
   26        HA    1  MOL     H26    26   0.1150000    1.0080
   27        HA    1  MOL     H27    27   0.1150000    1.0080
   28        HA    1  MOL     H28    28   0.1150000    1.0080
   29        HO    1  MOL     H29    29   0.4500000    1.0080
   30         O    1  MOL     O30    30  -0.4300000   15.9994
   31       CO4    1  MOL     C31    31   0.6250000   12.0115
   32       OES    1  MOL     O32    32  -0.3300000   15.9994
   33        CA    1  MOL     C33    33  -0.1150000   12.0115
   34        CA    1  MOL     C34    34  -0.1150000   12.0115
   35        CA    1  MOL     C35    35   0.0000000   12.0115
   36        CA    1  MOL     C36    36  -0.1150000   12.0115
   37        CA    1  MOL     C37    37  -0.1150000   12.0115
   38        CA    1  MOL     C38    38  -0.1150000   12.0115
   39       CO4    1  MOL     C39    39   0.6250000   12.0115
   40       OES    1  MOL     O40    40  -0.3300000   15.9994
   41        CT    1  MOL     C41    41   0.1900000   12.0115
   42        CT    1  MOL     C42    42   0.1900000   12.0115
   43         O    1  MOL     O43    43  -0.4300000   15.9994
   44        CA    1  MOL     C44    44  -0.1150000   12.0115
   45        CA    1  MOL     C45    45   0.0000000   12.0115
   46        CA    1  MOL     C46    46  -0.1150000   12.0115
   47        CA    1  MOL     C47    47  -0.1150000   12.0115
   48        HA    1  MOL     H48    48   0.1150000    1.0080
   49        HA    1  MOL     H49    49   0.1150000    1.0080
   50        HA    1  MOL     H50    50   0.1150000    1.0080
   51       HAE    1  MOL     H51    51   0.0300000    1.0080
   52       HAE    1  MOL     H52    52   0.0300000    1.0080
   53       HAE    1  MOL     H53    53   0.0300000    1.0080
   54       HAE    1  MOL     H54    54   0.0300000    1.0080
   55        HA    1  MOL     H55    55   0.1150000    1.0080
   56        HA    1  MOL     H56    56   0.1150000    1.0080
   57        HA    1  MOL     H57    57   0.1150000    1.0080
   58         O    1  MOL     O58    58  -0.4300000   15.9994
   59       CO4    1  MOL     C59    59   0.6250000   12.0115
   60       OES    1  MOL     O60    60  -0.3300000   15.9994
   61        CA    1  MOL     C61    61  -0.1150000   12.0115
   62        CA    1  MOL     C62    62  -0.1150000   12.0115
   63        CA    1  MOL     C63    63   0.0000000   12.0115
   64        CA    1  MOL     C64    64  -0.1150000   12.0115
   65        CA    1  MOL     C65    65  -0.1150000   12.0115
   66        CA    1  MOL     C66    66  -0.1150000   12.0115
   67       CO4    1  MOL     C67    67   0.6250000   12.0115
   68       OES    1  MOL     O68    68  -0.3300000   15.9994
   69        CT    1  MOL     C69    69   0.1900000   12.0115
   70        CT    1  MOL     C70    70   0.1900000   12.0115
   71         O    1  MOL     O71    71  -0.4300000   15.9994
   72        CA    1  MOL     C72    72  -0.1150000   12.0115
   73        CA    1  MOL     C73    73   0.0000000   12.0115
   74        CA    1  MOL     C74    74  -0.1150000   12.0115
   75        CA    1  MOL     C75    75  -0.1150000   12.0115
   76        HA    1  MOL     H76    76   0.1150000    1.0080
   77        HA    1  MOL     H77    77   0.1150000    1.0080
   78        HA    1  MOL     H78    78   0.1150000    1.0080
   79       HAE    1  MOL     H79    79   0.0300000    1.0080
   80       HAE    1  MOL     H80    80   0.0300000    1.0080
   81       HAE    1  MOL     H81    81   0.0300000    1.0080
   82       HAE    1  MOL     H82    82   0.0300000    1.0080
   83        HA    1  MOL     H83    83   0.1150000    1.0080
   84        HA    1  MOL     H84    84   0.1150000    1.0080
   85        HA    1  MOL     H85    85   0.1150000    1.0080
   86         O    1  MOL     O86    86  -0.4300000   15.9994
   87       CO4    1  MOL     C87    87   0.6250000   12.0115
   88       OES    1  MOL     O88    88  -0.3300000   15.9994
   89        CA    1  MOL     C89    89  -0.1150000   12.0115
   90        CA    1  MOL     C90    90  -0.1150000   12.0115
   91        CA    1  MOL     C91    91   0.0000000   12.0115
   92        CA    1  MOL     C92    92  -0.1150000   12.0115
   93        CA    1  MOL     C93    93  -0.1150000   12.0115
   94        CA    1  MOL     C94    94  -0.1150000   12.0115
   95       CO4    1  MOL     C95    95   0.6250000   12.0115
   96       OES    1  MOL     O96    96  -0.3300000   15.9994
   97        CT    1  MOL     C97    97   0.1900000   12.0115
   98        CT    1  MOL     C98    98   0.1900000   12.0115
   99         O    1  MOL     O99    99  -0.4300000   15.9994
  100        CA    1  MOL    C100   100  -0.1150000   12.0115
  101        CA    1  MOL    C101   101   0.0000000   12.0115
  102        CA    1  MOL    C102   102  -0.1150000   12.0115
  103        CA    1  MOL    C103   103  -0.1150000   12.0115
  104        HA    1  MOL    H104   104   0.1150000    1.0080
  105        HA    1  MOL    H105   105   0.1150000    1.0080
  106        HA    1  MOL    H106   106   0.1150000    1.0080
  107       HAE    1  MOL    H107   107   0.0300000    1.0080
  108       HAE    1  MOL    H108   108   0.0300000    1.0080
  109       HAE    1  MOL    H109   109   0.0300000    1.0080
  110       HAE    1  MOL    H110   110   0.0300000    1.0080
  111        HA    1  MOL    H111   111   0.1150000    1.0080
  112        HA    1  MOL    H112   112   0.1150000    1.0080
  113        HA    1  MOL    H113   113   0.1150000    1.0080
  114         O    1  MOL    O114   114  -0.4300000   15.9994
  115       CO4    1  MOL    C115   115   0.6250000   12.0115
  116       OES    1  MOL    O116   116  -0.3300000   15.9994
  117        CA    1  MOL    C117   117  -0.1150000   12.0115
  118        CA    1  MOL    C118   118  -0.1150000   12.0115
  119        CA    1  MOL    C119   119   0.0000000   12.0115
  120        CA    1  MOL    C120   120  -0.1150000   12.0115
  121        CA    1  MOL    C121   121  -0.1150000   12.0115
  122        CA    1  MOL    C122   122  -0.1150000   12.0115
  123       CO4    1  MOL    C123   123   0.6250000   12.0115
  124       OES    1  MOL    O124   124  -0.3300000   15.9994
  125        CT    1  MOL    C125   125   0.1900000   12.0115
  126        CT    1  MOL    C126   126   0.1900000   12.0115
  127         O    1  MOL    O127   127  -0.4300000   15.9994
  128        CA    1  MOL    C128   128  -0.1150000   12.0115
  129        CA    1  MOL    C129   129   0.0000000   12.0115
  130        CA    1  MOL    C130   130  -0.1150000   12.0115
  131        CA    1  MOL    C131   131  -0.1150000   12.0115
  132        HA    1  MOL    H132   132   0.1150000    1.0080
  133        HA    1  MOL    H133   133   0.1150000    1.0080
  134        HA    1  MOL    H134   134   0.1150000    1.0080
  135       HAE    1  MOL    H135   135   0.0300000    1.0080
  136       HAE    1  MOL    H136   136   0.0300000    1.0080
  137       HAE    1  MOL    H137   137   0.0300000    1.0080
  138       HAE    1  MOL    H138   138   0.0300000    1.0080
  139        HA    1  MOL    H139   139   0.1150000    1.0080
  140        HA    1  MOL    H140   140   0.1150000    1.0080
  141        HA    1  MOL    H141   141   0.1150000    1.0080
  142         O    1  MOL    O142   142  -0.4300000   15.9994
  143       CO4    1  MOL    C143   143   0.6250000   12.0115
  144       OES    1  MOL    O144   144  -0.3300000   15.9994
  145        CA    1  MOL    C145   145  -0.1150000   12.0115
  146        CA    1  MOL    C146   146  -0.1150000   12.0115
  147        CA    1  MOL    C147   147   0.0000000   12.0115
  148        CA    1  MOL    C148   148  -0.1150000   12.0115
  149        CA    1  MOL    C149   149  -0.1150000   12.0115
  150        CA    1  MOL    C150   150  -0.1150000   12.0115
  151       CO4    1  MOL    C151   151   0.6250000   12.0115
  152       OES    1  MOL    O152   152  -0.3300000   15.9994
  153        CT    1  MOL    C153   153   0.1900000   12.0115
  154        CT    1  MOL    C154   154   0.1900000   12.0115
  155         O    1  MOL    O155   155  -0.4300000   15.9994
  156        CA    1  MOL    C156   156  -0.1150000   12.0115
  157        CA    1  MOL    C157   157   0.0000000   12.0115
  158        CA    1  MOL    C158   158  -0.1150000   12.0115
  159        CA    1  MOL    C159   159  -0.1150000   12.0115
  160        HA    1  MOL    H160   160   0.1150000    1.0080
  161        HA    1  MOL    H161   161   0.1150000    1.0080
  162        HA    1  MOL    H162   162   0.1150000    1.0080
  163       HAE    1  MOL    H163   163   0.0300000    1.0080
  164       HAE    1  MOL    H164   164   0.0300000    1.0080
  165       HAE    1  MOL    H165   165   0.0300000    1.0080
  166       HAE    1  MOL    H166   166   0.0300000    1.0080
  167        HA    1  MOL    H167   167   0.1150000    1.0080
  168        HA    1  MOL    H168   168   0.1150000    1.0080
  169        HA    1  MOL    H169   169   0.1150000    1.0080
  170         O    1  MOL    O170   170  -0.4300000   15.9994
  171       CO4    1  MOL    C171   171   0.6250000   12.0115
  172       OES    1  MOL    O172   172  -0.3300000   15.9994
  173        CA    1  MOL    C173   173  -0.1150000   12.0115
  174        CA    1  MOL    C174   174  -0.1150000   12.0115
  175        CA    1  MOL    C175   175   0.0000000   12.0115
  176        CA    1  MOL    C176   176  -0.1150000   12.0115
  177        CA    1  MOL    C177   177  -0.1150000   12.0115
  178        CA    1  MOL    C178   178  -0.1150000   12.0115
  179       CO4    1  MOL    C179   179   0.6250000   12.0115
  180       OES    1  MOL    O180   180  -0.3300000   15.9994
  181        CT    1  MOL    C181   181   0.1900000   12.0115
  182        CT    1  MOL    C182   182   0.1900000   12.0115
  183         O    1  MOL    O183   183  -0.4300000   15.9994
  184        CA    1  MOL    C184   184  -0.1150000   12.0115
  185        CA    1  MOL    C185   185   0.0000000   12.0115
  186        CA    1  MOL    C186   186  -0.1150000   12.0115
  187        CA    1  MOL    C187   187  -0.1150000   12.0115
  188        HA    1  MOL    H188   188   0.1150000    1.0080
  189        HA    1  MOL    H189   189   0.1150000    1.0080
  190        HA    1  MOL    H190   190   0.1150000    1.0080
  191       HAE    1  MOL    H191   191   0.0300000    1.0080
  192       HAE    1  MOL    H192   192   0.0300000    1.0080
  193       HAE    1  MOL    H193   193   0.0300000    1.0080
  194       HAE    1  MOL    H194   194   0.0300000    1.0080
  195        HA    1  MOL    H195   195   0.1150000    1.0080
  196        HA    1  MOL    H196   196   0.1150000    1.0080
  197        HA    1  MOL    H197   197   0.1150000    1.0080
  198         O    1  MOL    O198   198  -0.4300000   15.9994
  199       CO4    1  MOL    C199   199   0.6250000   12.0115
  200       OES    1  MOL    O200   200  -0.3300000   15.9994
  201        CA    1  MOL    C201   201  -0.1150000   12.0115
  202        CA    1  MOL    C202   202  -0.1150000   12.0115
  203        CA    1  MOL    C203   203   0.0000000   12.0115
  204        CA    1  MOL    C204   204  -0.1150000   12.0115
  205        CA    1  MOL    C205   205  -0.1150000   12.0115
  206        CA    1  MOL    C206   206  -0.1150000   12.0115
  207       CO4    1  MOL    C207   207   0.6250000   12.0115
  208       OES    1  MOL    O208   208  -0.3300000   15.9994
  209        CT    1  MOL    C209   209   0.1900000   12.0115
  210        CT    1  MOL    C210   210   0.1900000   12.0115
  211         O    1  MOL    O211   211  -0.4300000   15.9994
  212        CA    1  MOL    C212   212  -0.1150000   12.0115
  213        CA    1  MOL    C213   213   0.0000000   12.0115
  214        CA    1  MOL    C214   214  -0.1150000   12.0115
  215        CA    1  MOL    C215   215  -0.1150000   12.0115
  216        HA    1  MOL    H216   216   0.1150000    1.0080
  217        HA    1  MOL    H217   217   0.1150000    1.0080
  218        HA    1  MOL    H218   218   0.1150000    1.0080
  219       HAE    1  MOL    H219   219   0.0300000    1.0080
  220       HAE    1  MOL    H220   220   0.0300000    1.0080
  221       HAE    1  MOL    H221   221   0.0300000    1.0080
  222       HAE    1  MOL    H222   222   0.0300000    1.0080
  223        HA    1  MOL    H223   223   0.1150000    1.0080
  224        HA    1  MOL    H224   224   0.1150000    1.0080
  225        HA    1  MOL    H225   225   0.1150000    1.0080
  226         O    1  MOL    O226   226  -0.4300000   15.9994
  227       CO4    1  MOL    C227   227   0.6250000   12.0115
  228       OES    1  MOL    O228   228  -0.3300000   15.9994
  229        CA    1  MOL    C229   229  -0.1150000   12.0115
  230        CA    1  MOL    C230   230  -0.1150000   12.0115
  231        CA    1  MOL    C231   231   0.0000000   12.0115
  232        CA    1  MOL    C232   232  -0.1150000   12.0115
  233        CA    1  MOL    C233   233  -0.1150000   12.0115
  234        CA    1  MOL    C234   234  -0.1150000   12.0115
  235       CO4    1  MOL    C235   235   0.6250000   12.0115
  236       OES    1  MOL    O236   236  -0.3300000   15.9994
  237        CT    1  MOL    C237   237   0.1900000   12.0115
  238        CT    1  MOL    C238   238   0.1900000   12.0115
  239         O    1  MOL    O239   239  -0.4300000   15.9994
  240        CA    1  MOL    C240   240  -0.1150000   12.0115
  241        CA    1  MOL    C241   241   0.0000000   12.0115
  242        CA    1  MOL    C242   242  -0.1150000   12.0115
  243        CA    1  MOL    C243   243  -0.1150000   12.0115
  244        HA    1  MOL    H244   244   0.1150000    1.0080
  245        HA    1  MOL    H245   245   0.1150000    1.0080
  246        HA    1  MOL    H246   246   0.1150000    1.0080
  247       HAE    1  MOL    H247   247   0.0300000    1.0080
  248       HAE    1  MOL    H248   248   0.0300000    1.0080
  249       HAE    1  MOL    H249   249   0.0300000    1.0080
  250       HAE    1  MOL    H250   250   0.0300000    1.0080
  251        HA    1  MOL    H251   251   0.1150000    1.0080
  252        HA    1  MOL    H252   252   0.1150000    1.0080
  253        HA    1  MOL    H253   253   0.1150000    1.0080
  254         O    1  MOL    O254   254  -0.4300000   15.9994
  255       CO4    1  MOL    C255   255   0.6250000   12.0115
  256       OES    1  MOL    O256   256  -0.3300000   15.9994
  257        CA    1  MOL    C257   257  -0.1150000   12.0115
  258        CA    1  MOL    C258   258  -0.1150000   12.0115
  259        CA    1  MOL    C259   259   0.0000000   12.0115
  260        CA    1  MOL    C260   260  -0.1150000   12.0115
  261        CA    1  MOL    C261   261  -0.1150000   12.0115
  262        CA    1  MOL    C262   262  -0.1150000   12.0115
  263       CO4    1  MOL    C263   263   0.6250000   12.0115
  264       OES    1  MOL    O264   264  -0.3300000   15.9994
  265        CT    1  MOL    C265   265   0.1900000   12.0115
  266        CT    1  MOL    C266   266   0.1900000   12.0115
  267         O    1  MOL    O267   267  -0.4300000   15.9994
  268        CA    1  MOL    C268   268  -0.1150000   12.0115
  269        CA    1  MOL    C269   269   0.0000000   12.0115
  270        CA    1  MOL    C270   270  -0.1150000   12.0115
  271        CA    1  MOL    C271   271  -0.1150000   12.0115
  272        HA    1  MOL    H272   272   0.1150000    1.0080
  273        HA    1  MOL    H273   273   0.1150000    1.0080
  274        HA    1  MOL    H274   274   0.1150000    1.0080
  275       HAE    1  MOL    H275   275   0.0300000    1.0080
  276       HAE    1  MOL    H276   276   0.0300000    1.0080
  277       HAE    1  MOL    H277   277   0.0300000    1.0080
  278       HAE    1  MOL    H278   278   0.0300000    1.0080
  279        HA    1  MOL    H279   279   0.1150000    1.0080
  280        HA    1  MOL    H280   280   0.1150000    1.0080
  281        HA    1  MOL    H281   281   0.1150000    1.0080
  282         O    1  MOL    O282   282  -0.4300000   15.9994
  283       CO4    1  MOL    C283   283   0.6250000   12.0115
  284       OES    1  MOL    O284   284  -0.3300000   15.9994
  285        CA    1  MOL    C285   285  -0.1150000   12.0115
  286        CA    1  MOL    C286   286  -0.1150000   12.0115
  287        CA    1  MOL    C287   287   0.0000000   12.0115
  288        CA    1  MOL    C288   288  -0.1150000   12.0115
  289        CA    1  MOL    C289   289  -0.1150000   12.0115
  290        CA    1  MOL    C290   290  -0.1150000   12.0115
  291       CO4    1  MOL    C291   291   0.6250000   12.0115
  292       OES    1  MOL    O292   292  -0.3300000   15.9994
  293        CT    1  MOL    C293   293   0.1900000   12.0115
  294        CT    1  MOL    C294   294   0.1900000   12.0115
  295         O    1  MOL    O295   295  -0.4300000   15.9994
  296        CA    1  MOL    C296   296  -0.1150000   12.0115
  297        CA    1  MOL    C297   297   0.0000000   12.0115
  298        CA    1  MOL    C298   298  -0.1150000   12.0115
  299        CA    1  MOL    C299   299  -0.1150000   12.0115
  300        HA    1  MOL    H300   300   0.1150000    1.0080
  301        HA    1  MOL    H301   301   0.1150000    1.0080
  302        HA    1  MOL    H302   302   0.1150000    1.0080
  303       HAE    1  MOL    H303   303   0.0300000    1.0080
  304       HAE    1  MOL    H304   304   0.0300000    1.0080
  305       HAE    1  MOL    H305   305   0.0300000    1.0080
  306       HAE    1  MOL    H306   306   0.0300000    1.0080
  307        HA    1  MOL    H307   307   0.1150000    1.0080
  308        HA    1  MOL    H308   308   0.1150000    1.0080
  309        HA    1  MOL    H309   309   0.1150000    1.0080
  310         O    1  MOL    O310   310  -0.4300000   15.9994
  311       CO4    1  MOL    C311   311   0.6250000   12.0115
  312       OES    1  MOL    O312   312  -0.3300000   15.9994
  313        CA    1  MOL    C313   313  -0.1150000   12.0115
  314        CA    1  MOL    C314   314  -0.1150000   12.0115
  315        CA    1  MOL    C315   315   0.0000000   12.0115
  316        CA    1  MOL    C316   316  -0.1150000   12.0115
  317        CA    1  MOL    C317   317  -0.1150000   12.0115
  318        CA    1  MOL    C318   318  -0.1150000   12.0115
  319       CO4    1  MOL    C319   319   0.6250000   12.0115
  320       OES    1  MOL    O320   320  -0.3300000   15.9994
  321        CT    1  MOL    C321   321   0.1900000   12.0115
  322        CT    1  MOL    C322   322   0.1900000   12.0115
  323         O    1  MOL    O323   323  -0.4300000   15.9994
  324        CA    1  MOL    C324   324  -0.1150000   12.0115
  325        CA    1  MOL    C325   325   0.0000000   12.0115
  326        CA    1  MOL    C326   326  -0.1150000   12.0115
  327        CA    1  MOL    C327   327  -0.1150000   12.0115
  328        HA    1  MOL    H328   328   0.1150000    1.0080
  329        HA    1  MOL    H329   329   0.1150000    1.0080
  330        HA    1  MOL    H330   330   0.1150000    1.0080
  331       HAE    1  MOL    H331   331   0.0300000    1.0080
  332       HAE    1  MOL    H332   332   0.0300000    1.0080
  333       HAE    1  MOL    H333   333   0.0300000    1.0080
  334       HAE    1  MOL    H334   334   0.0300000    1.0080
  335        HA    1  MOL    H335   335   0.1150000    1.0080
  336        HA    1  MOL    H336   336   0.1150000    1.0080
  337        HA    1  MOL    H337   337   0.1150000    1.0080
  338         O    1  MOL    O338   338  -0.4300000   15.9994
  339       CO4    1  MOL    C339   339   0.6250000   12.0115
  340       OES    1  MOL    O340   340  -0.3300000   15.9994
  341        CA    1  MOL    C341   341  -0.1150000   12.0115
  342        CA    1  MOL    C342   342  -0.1150000   12.0115
  343        CA    1  MOL    C343   343   0.0000000   12.0115
  344        CA    1  MOL    C344   344  -0.1150000   12.0115
  345        CA    1  MOL    C345   345  -0.1150000   12.0115
  346        CA    1  MOL    C346   346  -0.1150000   12.0115
  347       CO4    1  MOL    C347   347   0.6250000   12.0115
  348       OES    1  MOL    O348   348  -0.3300000   15.9994
  349        CT    1  MOL    C349   349   0.1900000   12.0115
  350        CT    1  MOL    C350   350   0.1900000   12.0115
  351         O    1  MOL    O351   351  -0.4300000   15.9994
  352        CA    1  MOL    C352   352  -0.1150000   12.0115
  353        CA    1  MOL    C353   353   0.0000000   12.0115
  354        CA    1  MOL    C354   354  -0.1150000   12.0115
  355        CA    1  MOL    C355   355  -0.1150000   12.0115
  356        HA    1  MOL    H356   356   0.1150000    1.0080
  357        HA    1  MOL    H357   357   0.1150000    1.0080
  358        HA    1  MOL    H358   358   0.1150000    1.0080
  359       HAE    1  MOL    H359   359   0.0300000    1.0080
  360       HAE    1  MOL    H360   360   0.0300000    1.0080
  361       HAE    1  MOL    H361   361   0.0300000    1.0080
  362       HAE    1  MOL    H362   362   0.0300000    1.0080
  363        HA    1  MOL    H363   363   0.1150000    1.0080
  364        HA    1  MOL    H364   364   0.1150000    1.0080
  365        HA    1  MOL    H365   365   0.1150000    1.0080
  366         O    1  MOL    O366   366  -0.4300000   15.9994
  367       CO4    1  MOL    C367   367   0.6250000   12.0115
  368       OES    1  MOL    O368   368  -0.3300000   15.9994
  369        CA    1  MOL    C369   369  -0.1150000   12.0115
  370        CA    1  MOL    C370   370  -0.1150000   12.0115
  371        CA    1  MOL    C371   371   0.0000000   12.0115
  372        CA    1  MOL    C372   372  -0.1150000   12.0115
  373        CA    1  MOL    C373   373  -0.1150000   12.0115
  374        CA    1  MOL    C374   374  -0.1150000   12.0115
  375       CO4    1  MOL    C375   375   0.6250000   12.0115
  376       OES    1  MOL    O376   376  -0.3300000   15.9994
  377        CT    1  MOL    C377   377   0.1900000   12.0115
  378        CT    1  MOL    C378   378   0.1900000   12.0115
  379         O    1  MOL    O379   379  -0.4300000   15.9994
  380        CA    1  MOL    C380   380  -0.1150000   12.0115
  381        CA    1  MOL    C381   381   0.0000000   12.0115
  382        CA    1  MOL    C382   382  -0.1150000   12.0115
  383        CA    1  MOL    C383   383  -0.1150000   12.0115
  384        HA    1  MOL    H384   384   0.1150000    1.0080
  385        HA    1  MOL    H385   385   0.1150000    1.0080
  386        HA    1  MOL    H386   386   0.1150000    1.0080
  387       HAE    1  MOL    H387   387   0.0300000    1.0080
  388       HAE    1  MOL    H388   388   0.0300000    1.0080
  389       HAE    1  MOL    H389   389   0.0300000    1.0080
  390       HAE    1  MOL    H390   390   0.0300000    1.0080
  391        HA    1  MOL    H391   391   0.1150000    1.0080
  392        HA    1  MOL    H392   392   0.1150000    1.0080
  393        HA    1  MOL    H393   393   0.1150000    1.0080
  394         O    1  MOL    O394   394  -0.4300000   15.9994
  395       CO4    1  MOL    C395   395   0.6250000   12.0115
  396       OES    1  MOL    O396   396  -0.3300000   15.9994
  397        CA    1  MOL    C397   397  -0.1150000   12.0115
  398        CA    1  MOL    C398   398  -0.1150000   12.0115
  399        CA    1  MOL    C399   399   0.0000000   12.0115
  400        CA    1  MOL    C400   400  -0.1150000   12.0115
  401        CA    1  MOL    C401   401  -0.1150000   12.0115
  402        CA    1  MOL    C402   402  -0.1150000   12.0115
  403       CO4    1  MOL    C403   403   0.6250000   12.0115
  404       OES    1  MOL    O404   404  -0.3300000   15.9994
  405        CT    1  MOL    C405   405   0.1900000   12.0115
  406        CT    1  MOL    C406   406   0.1900000   12.0115
  407         O    1  MOL    O407   407  -0.4300000   15.9994
  408        CA    1  MOL    C408   408  -0.1150000   12.0115
  409        CA    1  MOL    C409   409   0.0000000   12.0115
  410        CA    1  MOL    C410   410  -0.1150000   12.0115
  411        CA    1  MOL    C411   411  -0.1150000   12.0115
  412        HA    1  MOL    H412   412   0.1150000    1.0080
  413        HA    1  MOL    H413   413   0.1150000    1.0080
  414        HA    1  MOL    H414   414   0.1150000    1.0080
  415       HAE    1  MOL    H415   415   0.0300000    1.0080
  416       HAE    1  MOL    H416   416   0.0300000    1.0080
  417       HAE    1  MOL    H417   417   0.0300000    1.0080
  418       HAE    1  MOL    H418   418   0.0300000    1.0080
  419        HA    1  MOL    H419   419   0.1150000    1.0080
  420        HA    1  MOL    H420   420   0.1150000    1.0080
  421        HA    1  MOL    H421   421   0.1150000    1.0080
  422         O    1  MOL    O422   422  -0.4300000   15.9994
  423       CO4    1  MOL    C423   423   0.6250000   12.0115
  424       OES    1  MOL    O424   424  -0.3300000   15.9994
  425        CA    1  MOL    C425   425  -0.1150000   12.0115
  426        CA    1  MOL    C426   426  -0.1150000   12.0115
  427        CA    1  MOL    C427   427   0.0000000   12.0115
  428        CA    1  MOL    C428   428  -0.1150000   12.0115
  429        CA    1  MOL    C429   429  -0.1150000   12.0115
  430        CA    1  MOL    C430   430  -0.1150000   12.0115
  431       CO4    1  MOL    C431   431   0.6250000   12.0115
  432       OES    1  MOL    O432   432  -0.3300000   15.9994
  433        CT    1  MOL    C433   433   0.1900000   12.0115
  434        CT    1  MOL    C434   434   0.1900000   12.0115
  435         O    1  MOL    O435   435  -0.4300000   15.9994
  436        CA    1  MOL    C436   436  -0.1150000   12.0115
  437        CA    1  MOL    C437   437   0.0000000   12.0115
  438        CA    1  MOL    C438   438  -0.1150000   12.0115
  439        CA    1  MOL    C439   439  -0.1150000   12.0115
  440        HA    1  MOL    H440   440   0.1150000    1.0080
  441        HA    1  MOL    H441   441   0.1150000    1.0080
  442        HA    1  MOL    H442   442   0.1150000    1.0080
  443       HAE    1  MOL    H443   443   0.0300000    1.0080
  444       HAE    1  MOL    H444   444   0.0300000    1.0080
  445       HAE    1  MOL    H445   445   0.0300000    1.0080
  446       HAE    1  MOL    H446   446   0.0300000    1.0080
  447        HA    1  MOL    H447   447   0.1150000    1.0080
  448        HA    1  MOL    H448   448   0.1150000    1.0080
  449        HA    1  MOL    H449   449   0.1150000    1.0080
  450         O    1  MOL    O450   450  -0.4300000   15.9994
  451       CO4    1  MOL    C451   451   0.6250000   12.0115
  452       OES    1  MOL    O452   452  -0.3300000   15.9994
  453        CA    1  MOL    C453   453  -0.1150000   12.0115
  454        CA    1  MOL    C454   454  -0.1150000   12.0115
  455        CA    1  MOL    C455   455   0.0000000   12.0115
  456        CA    1  MOL    C456   456  -0.1150000   12.0115
  457        CA    1  MOL    C457   457  -0.1150000   12.0115
  458        CA    1  MOL    C458   458  -0.1150000   12.0115
  459       CO4    1  MOL    C459   459   0.6250000   12.0115
  460       OES    1  MOL    O460   460  -0.3300000   15.9994
  461        CT    1  MOL    C461   461   0.1900000   12.0115
  462        CT    1  MOL    C462   462   0.1900000   12.0115
  463         O    1  MOL    O463   463  -0.4300000   15.9994
  464        CA    1  MOL    C464   464  -0.1150000   12.0115
  465        CA    1  MOL    C465   465   0.0000000   12.0115
  466        CA    1  MOL    C466   466  -0.1150000   12.0115
  467        CA    1  MOL    C467   467  -0.1150000   12.0115
  468        HA    1  MOL    H468   468   0.1150000    1.0080
  469        HA    1  MOL    H469   469   0.1150000    1.0080
  470        HA    1  MOL    H470   470   0.1150000    1.0080
  471       HAE    1  MOL    H471   471   0.0300000    1.0080
  472       HAE    1  MOL    H472   472   0.0300000    1.0080
  473       HAE    1  MOL    H473   473   0.0300000    1.0080
  474       HAE    1  MOL    H474   474   0.0300000    1.0080
  475        HA    1  MOL    H475   475   0.1150000    1.0080
  476        HA    1  MOL    H476   476   0.1150000    1.0080
  477        HA    1  MOL    H477   477   0.1150000    1.0080
  478         O    1  MOL    O478   478  -0.4300000   15.9994
  479       CO4    1  MOL    C479   479   0.6250000   12.0115
  480       OES    1  MOL    O480   480  -0.3300000   15.9994
  481        CA    1  MOL    C481   481  -0.1150000   12.0115
  482        CA    1  MOL    C482   482  -0.1150000   12.0115
  483        CA    1  MOL    C483   483   0.0000000   12.0115
  484        CA    1  MOL    C484   484  -0.1150000   12.0115
  485        CA    1  MOL    C485   485  -0.1150000   12.0115
  486        CA    1  MOL    C486   486  -0.1150000   12.0115
  487       CO4    1  MOL    C487   487   0.6250000   12.0115
  488       OES    1  MOL    O488   488  -0.3300000   15.9994
  489        CT    1  MOL    C489   489   0.1900000   12.0115
  490        CT    1  MOL    C490   490   0.1900000   12.0115
  491         O    1  MOL    O491   491  -0.4300000   15.9994
  492        CA    1  MOL    C492   492  -0.1150000   12.0115
  493        CA    1  MOL    C493   493   0.0000000   12.0115
  494        CA    1  MOL    C494   494  -0.1150000   12.0115
  495        CA    1  MOL    C495   495  -0.1150000   12.0115
  496        HA    1  MOL    H496   496   0.1150000    1.0080
  497        HA    1  MOL    H497   497   0.1150000    1.0080
  498        HA    1  MOL    H498   498   0.1150000    1.0080
  499       HAE    1  MOL    H499   499   0.0300000    1.0080
  500       HAE    1  MOL    H500   500   0.0300000    1.0080
  501       HAE    1  MOL    H501   501   0.0300000    1.0080
  502       HAE    1  MOL    H502   502   0.0300000    1.0080
  503        HA    1  MOL    H503   503   0.1150000    1.0080
  504        HA    1  MOL    H504   504   0.1150000    1.0080
  505        HA    1  MOL    H505   505   0.1150000    1.0080
  506         O    1  MOL    O506   506  -0.4300000   15.9994
  507       CO4    1  MOL    C507   507   0.6250000   12.0115
  508       OES    1  MOL    O508   508  -0.3300000   15.9994
  509        CA    1  MOL    C509   509  -0.1150000   12.0115
  510        CA    1  MOL    C510   510  -0.1150000   12.0115
  511        CA    1  MOL    C511   511   0.0000000   12.0115
  512        CA    1  MOL    C512   512  -0.1150000   12.0115
  513        CA    1  MOL    C513   513  -0.1150000   12.0115
  514        CA    1  MOL    C514   514  -0.1150000   12.0115
  515       CO4    1  MOL    C515   515   0.6250000   12.0115
  516       OES    1  MOL    O516   516  -0.3300000   15.9994
  517        CT    1  MOL    C517   517   0.1900000   12.0115
  518        CT    1  MOL    C518   518   0.1900000   12.0115
  519         O    1  MOL    O519   519  -0.4300000   15.9994
  520        CA    1  MOL    C520   520  -0.1150000   12.0115
  521        CA    1  MOL    C521   521   0.0000000   12.0115
  522        CA    1  MOL    C522   522  -0.1150000   12.0115
  523        CA    1  MOL    C523   523  -0.1150000   12.0115
  524        HA    1  MOL    H524   524   0.1150000    1.0080
  525        HA    1  MOL    H525   525   0.1150000    1.0080
  526        HA    1  MOL    H526   526   0.1150000    1.0080
  527       HAE    1  MOL    H527   527   0.0300000    1.0080
  528       HAE    1  MOL    H528   528   0.0300000    1.0080
  529       HAE    1  MOL    H529   529   0.0300000    1.0080
  530       HAE    1  MOL    H530   530   0.0300000    1.0080
  531        HA    1  MOL    H531   531   0.1150000    1.0080
  532        HA    1  MOL    H532   532   0.1150000    1.0080
  533        HA    1  MOL    H533   533   0.1150000    1.0080
  534         O    1  MOL    O534   534  -0.4300000   15.9994
  535       CO4    1  MOL    C535   535   0.6250000   12.0115
  536       OES    1  MOL    O536   536  -0.3300000   15.9994
  537        CA    1  MOL    C537   537  -0.1150000   12.0115
  538        CA    1  MOL    C538   538  -0.1150000   12.0115
  539        CA    1  MOL    C539   539   0.0000000   12.0115
  540        CA    1  MOL    C540   540  -0.1150000   12.0115
  541        CA    1  MOL    C541   541  -0.1150000   12.0115
  542        CA    1  MOL    C542   542  -0.1150000   12.0115
  543       CO4    1  MOL    C543   543   0.6250000   12.0115
  544       OES    1  MOL    O544   544  -0.3300000   15.9994
  545        CT    1  MOL    C545   545   0.1900000   12.0115
  546        CT    1  MOL    C546   546  -0.1800000   12.0115
  547         O    1  MOL    O547   547  -0.4300000   15.9994
  548        CA    1  MOL    C548   548  -0.1150000   12.0115
  549        CA    1  MOL    C549   549   0.0000000   12.0115
  550        CA    1  MOL    C550   550  -0.1150000   12.0115
  551        CA    1  MOL    C551   551  -0.1150000   12.0115
  552        HA    1  MOL    H552   552   0.1150000    1.0080
  553        HA    1  MOL    H553   553   0.1150000    1.0080
  554        HA    1  MOL    H554   554   0.1150000    1.0080
  555       HAE    1  MOL    H555   555   0.0300000    1.0080
  556       HAE    1  MOL    H556   556   0.0300000    1.0080
  557        HC    1  MOL    H557   557   0.0600000    1.0080
  558        HC    1  MOL    H558   558   0.0600000    1.0080
  559        HA    1  MOL    H559   559   0.1150000    1.0080
  560        HA    1  MOL    H560   560   0.1150000    1.0080
  561        HA    1  MOL    H561   561   0.1150000    1.0080
  562        HC    1  MOL    H562   562   0.0600000    1.0080

[ bonds ]
      1      2   1      0.1229 476976.0000
      2      3   1      0.1364 376560.0000
      2      4   1      0.1490 334720.0000
      3     29   1      0.0945 462750.4000
      4      5   1      0.1400 392459.2000
      4     18   1      0.1400 392459.2000
      5      6   1      0.1400 392459.2000
      5     19   1      0.1080 307105.6000
      6      7   1      0.1400 392459.2000
      6     16   1      0.1400 392459.2000
      7      8   1      0.1400 392459.2000
      7     20   1      0.1080 307105.6000
      8      9   1      0.1400 392459.2000
      8     21   1      0.1080 307105.6000
      9     10   1      0.1470 259408.0000
      9     15   1      0.1400 392459.2000
     10     11   1      0.1327 179075.2000
     10     14   1      0.1229 476976.0000
     11     12   1      0.1410 267776.0000
     12     13   1      0.1529 224262.4000
     12     22   1      0.1090 284512.0000
     12     23   1      0.1090 284512.0000
     13     24   1      0.1090 284512.0000
     13     25   1      0.1090 284512.0000
     13     32   1      0.1410 267776.0000
     15     16   1      0.1400 392459.2000
     15     26   1      0.1080 307105.6000
     16     17   1      0.1400 392459.2000
     17     18   1      0.1400 392459.2000
     17     27   1      0.1080 307105.6000
     18     28   1      0.1080 307105.6000
     30     31   1      0.1229 476976.0000
     31     32   1      0.1327 179075.2000
     31     33   1      0.1470 259408.0000
     33     34   1      0.1400 392459.2000
     33     47   1      0.1400 392459.2000
     34     35   1      0.1400 392459.2000
     34     48   1      0.1080 307105.6000
     35     36   1      0.1400 392459.2000
     35     45   1      0.1400 392459.2000
     36     37   1      0.1400 392459.2000
     36     49   1      0.1080 307105.6000
     37     38   1      0.1400 392459.2000
     37     50   1      0.1080 307105.6000
     38     39   1      0.1470 259408.0000
     38     44   1      0.1400 392459.2000
     39     40   1      0.1327 179075.2000
     39     43   1      0.1229 476976.0000
     40     41   1      0.1410 267776.0000
     41     42   1      0.1529 224262.4000
     41     51   1      0.1090 284512.0000
     41     52   1      0.1090 284512.0000
     42     53   1      0.1090 284512.0000
     42     54   1      0.1090 284512.0000
     42     60   1      0.1410 267776.0000
     44     45   1      0.1400 392459.2000
     44     55   1      0.1080 307105.6000
     45     46   1      0.1400 392459.2000
     46     47   1      0.1400 392459.2000
     46     56   1      0.1080 307105.6000
     47     57   1      0.1080 307105.6000
     58     59   1      0.1229 476976.0000
     59     60   1      0.1327 179075.2000
     59     61   1      0.1470 259408.0000
     61     62   1      0.1400 392459.2000
     61     75   1      0.1400 392459.2000
     62     63   1      0.1400 392459.2000
     62     76   1      0.1080 307105.6000
     63     64   1      0.1400 392459.2000
     63     73   1      0.1400 392459.2000
     64     65   1      0.1400 392459.2000
     64     77   1      0.1080 307105.6000
     65     66   1      0.1400 392459.2000
     65     78   1      0.1080 307105.6000
     66     67   1      0.1470 259408.0000
     66     72   1      0.1400 392459.2000
     67     68   1      0.1327 179075.2000
     67     71   1      0.1229 476976.0000
     68     69   1      0.1410 267776.0000
     69     70   1      0.1529 224262.4000
     69     79   1      0.1090 284512.0000
     69     80   1      0.1090 284512.0000
     70     81   1      0.1090 284512.0000
     70     82   1      0.1090 284512.0000
     70     88   1      0.1410 267776.0000
     72     73   1      0.1400 392459.2000
     72     83   1      0.1080 307105.6000
     73     74   1      0.1400 392459.2000
     74     75   1      0.1400 392459.2000
     74     84   1      0.1080 307105.6000
     75     85   1      0.1080 307105.6000
     86     87   1      0.1229 476976.0000
     87     88   1      0.1327 179075.2000
     87     89   1      0.1470 259408.0000
     89     90   1      0.1400 392459.2000
     89    103   1      0.1400 392459.2000
     90     91   1      0.1400 392459.2000
     90    104   1      0.1080 307105.6000
     91     92   1      0.1400 392459.2000
     91    101   1      0.1400 392459.2000
     92     93   1      0.1400 392459.2000
     92    105   1      0.1080 307105.6000
     93     94   1      0.1400 392459.2000
     93    106   1      0.1080 307105.6000
     94     95   1      0.1470 259408.0000
     94    100   1      0.1400 392459.2000
     95     96   1      0.1327 179075.2000
     95     99   1      0.1229 476976.0000
     96     97   1      0.1410 267776.0000
     97     98   1      0.1529 224262.4000
     97    107   1      0.1090 284512.0000
     97    108   1      0.1090 284512.0000
     98    109   1      0.1090 284512.0000
     98    110   1      0.1090 284512.0000
     98    116   1      0.1410 267776.0000
    100    101   1      0.1400 392459.2000
    100    111   1      0.1080 307105.6000
    101    102   1      0.1400 392459.2000
    102    103   1      0.1400 392459.2000
    102    112   1      0.1080 307105.6000
    103    113   1      0.1080 307105.6000
    114    115   1      0.1229 476976.0000
    115    116   1      0.1327 179075.2000
    115    117   1      0.1470 259408.0000
    117    118   1      0.1400 392459.2000
    117    131   1      0.1400 392459.2000
    118    119   1      0.1400 392459.2000
    118    132   1      0.1080 307105.6000
    119    120   1      0.1400 392459.2000
    119    129   1      0.1400 392459.2000
    120    121   1      0.1400 392459.2000
    120    133   1      0.1080 307105.6000
    121    122   1      0.1400 392459.2000
    121    134   1      0.1080 307105.6000
    122    123   1      0.1470 259408.0000
    122    128   1      0.1400 392459.2000
    123    124   1      0.1327 179075.2000
    123    127   1      0.1229 476976.0000
    124    125   1      0.1410 267776.0000
    125    126   1      0.1529 224262.4000
    125    135   1      0.1090 284512.0000
    125    136   1      0.1090 284512.0000
    126    137   1      0.1090 284512.0000
    126    138   1      0.1090 284512.0000
    126    144   1      0.1410 267776.0000
    128    129   1      0.1400 392459.2000
    128    139   1      0.1080 307105.6000
    129    130   1      0.1400 392459.2000
    130    131   1      0.1400 392459.2000
    130    140   1      0.1080 307105.6000
    131    141   1      0.1080 307105.6000
    142    143   1      0.1229 476976.0000
    143    144   1      0.1327 179075.2000
    143    145   1      0.1470 259408.0000
    145    146   1      0.1400 392459.2000
    145    159   1      0.1400 392459.2000
    146    147   1      0.1400 392459.2000
    146    160   1      0.1080 307105.6000
    147    148   1      0.1400 392459.2000
    147    157   1      0.1400 392459.2000
    148    149   1      0.1400 392459.2000
    148    161   1      0.1080 307105.6000
    149    150   1      0.1400 392459.2000
    149    162   1      0.1080 307105.6000
    150    151   1      0.1470 259408.0000
    150    156   1      0.1400 392459.2000
    151    152   1      0.1327 179075.2000
    151    155   1      0.1229 476976.0000
    152    153   1      0.1410 267776.0000
    153    154   1      0.1529 224262.4000
    153    163   1      0.1090 284512.0000
    153    164   1      0.1090 284512.0000
    154    165   1      0.1090 284512.0000
    154    166   1      0.1090 284512.0000
    154    172   1      0.1410 267776.0000
    156    157   1      0.1400 392459.2000
    156    167   1      0.1080 307105.6000
    157    158   1      0.1400 392459.2000
    158    159   1      0.1400 392459.2000
    158    168   1      0.1080 307105.6000
    159    169   1      0.1080 307105.6000
    170    171   1      0.1229 476976.0000
    171    172   1      0.1327 179075.2000
    171    173   1      0.1470 259408.0000
    173    174   1      0.1400 392459.2000
    173    187   1      0.1400 392459.2000
    174    175   1      0.1400 392459.2000
    174    188   1      0.1080 307105.6000
    175    176   1      0.1400 392459.2000
    175    185   1      0.1400 392459.2000
    176    177   1      0.1400 392459.2000
    176    189   1      0.1080 307105.6000
    177    178   1      0.1400 392459.2000
    177    190   1      0.1080 307105.6000
    178    179   1      0.1470 259408.0000
    178    184   1      0.1400 392459.2000
    179    180   1      0.1327 179075.2000
    179    183   1      0.1229 476976.0000
    180    181   1      0.1410 267776.0000
    181    182   1      0.1529 224262.4000
    181    191   1      0.1090 284512.0000
    181    192   1      0.1090 284512.0000
    182    193   1      0.1090 284512.0000
    182    194   1      0.1090 284512.0000
    182    200   1      0.1410 267776.0000
    184    185   1      0.1400 392459.2000
    184    195   1      0.1080 307105.6000
    185    186   1      0.1400 392459.2000
    186    187   1      0.1400 392459.2000
    186    196   1      0.1080 307105.6000
    187    197   1      0.1080 307105.6000
    198    199   1      0.1229 476976.0000
    199    200   1      0.1327 179075.2000
    199    201   1      0.1470 259408.0000
    201    202   1      0.1400 392459.2000
    201    215   1      0.1400 392459.2000
    202    203   1      0.1400 392459.2000
    202    216   1      0.1080 307105.6000
    203    204   1      0.1400 392459.2000
    203    213   1      0.1400 392459.2000
    204    205   1      0.1400 392459.2000
    204    217   1      0.1080 307105.6000
    205    206   1      0.1400 392459.2000
    205    218   1      0.1080 307105.6000
    206    207   1      0.1470 259408.0000
    206    212   1      0.1400 392459.2000
    207    208   1      0.1327 179075.2000
    207    211   1      0.1229 476976.0000
    208    209   1      0.1410 267776.0000
    209    210   1      0.1529 224262.4000
    209    219   1      0.1090 284512.0000
    209    220   1      0.1090 284512.0000
    210    221   1      0.1090 284512.0000
    210    222   1      0.1090 284512.0000
    210    228   1      0.1410 267776.0000
    212    213   1      0.1400 392459.2000
    212    223   1      0.1080 307105.6000
    213    214   1      0.1400 392459.2000
    214    215   1      0.1400 392459.2000
    214    224   1      0.1080 307105.6000
    215    225   1      0.1080 307105.6000
    226    227   1      0.1229 476976.0000
    227    228   1      0.1327 179075.2000
    227    229   1      0.1470 259408.0000
    229    230   1      0.1400 392459.2000
    229    243   1      0.1400 392459.2000
    230    231   1      0.1400 392459.2000
    230    244   1      0.1080 307105.6000
    231    232   1      0.1400 392459.2000
    231    241   1      0.1400 392459.2000
    232    233   1      0.1400 392459.2000
    232    245   1      0.1080 307105.6000
    233    234   1      0.1400 392459.2000
    233    246   1      0.1080 307105.6000
    234    235   1      0.1470 259408.0000
    234    240   1      0.1400 392459.2000
    235    236   1      0.1327 179075.2000
    235    239   1      0.1229 476976.0000
    236    237   1      0.1410 267776.0000
    237    238   1      0.1529 224262.4000
    237    247   1      0.1090 284512.0000
    237    248   1      0.1090 284512.0000
    238    249   1      0.1090 284512.0000
    238    250   1      0.1090 284512.0000
    238    256   1      0.1410 267776.0000
    240    241   1      0.1400 392459.2000
    240    251   1      0.1080 307105.6000
    241    242   1      0.1400 392459.2000
    242    243   1      0.1400 392459.2000
    242    252   1      0.1080 307105.6000
    243    253   1      0.1080 307105.6000
    254    255   1      0.1229 476976.0000
    255    256   1      0.1327 179075.2000
    255    257   1      0.1470 259408.0000
    257    258   1      0.1400 392459.2000
    257    271   1      0.1400 392459.2000
    258    259   1      0.1400 392459.2000
    258    272   1      0.1080 307105.6000
    259    260   1      0.1400 392459.2000
    259    269   1      0.1400 392459.2000
    260    261   1      0.1400 392459.2000
    260    273   1      0.1080 307105.6000
    261    262   1      0.1400 392459.2000
    261    274   1      0.1080 307105.6000
    262    263   1      0.1470 259408.0000
    262    268   1      0.1400 392459.2000
    263    264   1      0.1327 179075.2000
    263    267   1      0.1229 476976.0000
    264    265   1      0.1410 267776.0000
    265    266   1      0.1529 224262.4000
    265    275   1      0.1090 284512.0000
    265    276   1      0.1090 284512.0000
    266    277   1      0.1090 284512.0000
    266    278   1      0.1090 284512.0000
    266    284   1      0.1410 267776.0000
    268    269   1      0.1400 392459.2000
    268    279   1      0.1080 307105.6000
    269    270   1      0.1400 392459.2000
    270    271   1      0.1400 392459.2000
    270    280   1      0.1080 307105.6000
    271    281   1      0.1080 307105.6000
    282    283   1      0.1229 476976.0000
    283    284   1      0.1327 179075.2000
    283    285   1      0.1470 259408.0000
    285    286   1      0.1400 392459.2000
    285    299   1      0.1400 392459.2000
    286    287   1      0.1400 392459.2000
    286    300   1      0.1080 307105.6000
    287    288   1      0.1400 392459.2000
    287    297   1      0.1400 392459.2000
    288    289   1      0.1400 392459.2000
    288    301   1      0.1080 307105.6000
    289    290   1      0.1400 392459.2000
    289    302   1      0.1080 307105.6000
    290    291   1      0.1470 259408.0000
    290    296   1      0.1400 392459.2000
    291    292   1      0.1327 179075.2000
    291    295   1      0.1229 476976.0000
    292    293   1      0.1410 267776.0000
    293    294   1      0.1529 224262.4000
    293    303   1      0.1090 284512.0000
    293    304   1      0.1090 284512.0000
    294    305   1      0.1090 284512.0000
    294    306   1      0.1090 284512.0000
    294    312   1      0.1410 267776.0000
    296    297   1      0.1400 392459.2000
    296    307   1      0.1080 307105.6000
    297    298   1      0.1400 392459.2000
    298    299   1      0.1400 392459.2000
    298    308   1      0.1080 307105.6000
    299    309   1      0.1080 307105.6000
    310    311   1      0.1229 476976.0000
    311    312   1      0.1327 179075.2000
    311    313   1      0.1470 259408.0000
    313    314   1      0.1400 392459.2000
    313    327   1      0.1400 392459.2000
    314    315   1      0.1400 392459.2000
    314    328   1      0.1080 307105.6000
    315    316   1      0.1400 392459.2000
    315    325   1      0.1400 392459.2000
    316    317   1      0.1400 392459.2000
    316    329   1      0.1080 307105.6000
    317    318   1      0.1400 392459.2000
    317    330   1      0.1080 307105.6000
    318    319   1      0.1470 259408.0000
    318    324   1      0.1400 392459.2000
    319    320   1      0.1327 179075.2000
    319    323   1      0.1229 476976.0000
    320    321   1      0.1410 267776.0000
    321    322   1      0.1529 224262.4000
    321    331   1      0.1090 284512.0000
    321    332   1      0.1090 284512.0000
    322    333   1      0.1090 284512.0000
    322    334   1      0.1090 284512.0000
    322    340   1      0.1410 267776.0000
    324    325   1      0.1400 392459.2000
    324    335   1      0.1080 307105.6000
    325    326   1      0.1400 392459.2000
    326    327   1      0.1400 392459.2000
    326    336   1      0.1080 307105.6000
    327    337   1      0.1080 307105.6000
    338    339   1      0.1229 476976.0000
    339    340   1      0.1327 179075.2000
    339    341   1      0.1470 259408.0000
    341    342   1      0.1400 392459.2000
    341    355   1      0.1400 392459.2000
    342    343   1      0.1400 392459.2000
    342    356   1      0.1080 307105.6000
    343    344   1      0.1400 392459.2000
    343    353   1      0.1400 392459.2000
    344    345   1      0.1400 392459.2000
    344    357   1      0.1080 307105.6000
    345    346   1      0.1400 392459.2000
    345    358   1      0.1080 307105.6000
    346    347   1      0.1470 259408.0000
    346    352   1      0.1400 392459.2000
    347    348   1      0.1327 179075.2000
    347    351   1      0.1229 476976.0000
    348    349   1      0.1410 267776.0000
    349    350   1      0.1529 224262.4000
    349    359   1      0.1090 284512.0000
    349    360   1      0.1090 284512.0000
    350    361   1      0.1090 284512.0000
    350    362   1      0.1090 284512.0000
    350    368   1      0.1410 267776.0000
    352    353   1      0.1400 392459.2000
    352    363   1      0.1080 307105.6000
    353    354   1      0.1400 392459.2000
    354    355   1      0.1400 392459.2000
    354    364   1      0.1080 307105.6000
    355    365   1      0.1080 307105.6000
    366    367   1      0.1229 476976.0000
    367    368   1      0.1327 179075.2000
    367    369   1      0.1470 259408.0000
    369    370   1      0.1400 392459.2000
    369    383   1      0.1400 392459.2000
    370    371   1      0.1400 392459.2000
    370    384   1      0.1080 307105.6000
    371    372   1      0.1400 392459.2000
    371    381   1      0.1400 392459.2000
    372    373   1      0.1400 392459.2000
    372    385   1      0.1080 307105.6000
    373    374   1      0.1400 392459.2000
    373    386   1      0.1080 307105.6000
    374    375   1      0.1470 259408.0000
    374    380   1      0.1400 392459.2000
    375    376   1      0.1327 179075.2000
    375    379   1      0.1229 476976.0000
    376    377   1      0.1410 267776.0000
    377    378   1      0.1529 224262.4000
    377    387   1      0.1090 284512.0000
    377    388   1      0.1090 284512.0000
    378    389   1      0.1090 284512.0000
    378    390   1      0.1090 284512.0000
    378    396   1      0.1410 267776.0000
    380    381   1      0.1400 392459.2000
    380    391   1      0.1080 307105.6000
    381    382   1      0.1400 392459.2000
    382    383   1      0.1400 392459.2000
    382    392   1      0.1080 307105.6000
    383    393   1      0.1080 307105.6000
    394    395   1      0.1229 476976.0000
    395    396   1      0.1327 179075.2000
    395    397   1      0.1470 259408.0000
    397    398   1      0.1400 392459.2000
    397    411   1      0.1400 392459.2000
    398    399   1      0.1400 392459.2000
    398    412   1      0.1080 307105.6000
    399    400   1      0.1400 392459.2000
    399    409   1      0.1400 392459.2000
    400    401   1      0.1400 392459.2000
    400    413   1      0.1080 307105.6000
    401    402   1      0.1400 392459.2000
    401    414   1      0.1080 307105.6000
    402    403   1      0.1470 259408.0000
    402    408   1      0.1400 392459.2000
    403    404   1      0.1327 179075.2000
    403    407   1      0.1229 476976.0000
    404    405   1      0.1410 267776.0000
    405    406   1      0.1529 224262.4000
    405    415   1      0.1090 284512.0000
    405    416   1      0.1090 284512.0000
    406    417   1      0.1090 284512.0000
    406    418   1      0.1090 284512.0000
    406    424   1      0.1410 267776.0000
    408    409   1      0.1400 392459.2000
    408    419   1      0.1080 307105.6000
    409    410   1      0.1400 392459.2000
    410    411   1      0.1400 392459.2000
    410    420   1      0.1080 307105.6000
    411    421   1      0.1080 307105.6000
    422    423   1      0.1229 476976.0000
    423    424   1      0.1327 179075.2000
    423    425   1      0.1470 259408.0000
    425    426   1      0.1400 392459.2000
    425    439   1      0.1400 392459.2000
    426    427   1      0.1400 392459.2000
    426    440   1      0.1080 307105.6000
    427    428   1      0.1400 392459.2000
    427    437   1      0.1400 392459.2000
    428    429   1      0.1400 392459.2000
    428    441   1      0.1080 307105.6000
    429    430   1      0.1400 392459.2000
    429    442   1      0.1080 307105.6000
    430    431   1      0.1470 259408.0000
    430    436   1      0.1400 392459.2000
    431    432   1      0.1327 179075.2000
    431    435   1      0.1229 476976.0000
    432    433   1      0.1410 267776.0000
    433    434   1      0.1529 224262.4000
    433    443   1      0.1090 284512.0000
    433    444   1      0.1090 284512.0000
    434    445   1      0.1090 284512.0000
    434    446   1      0.1090 284512.0000
    434    452   1      0.1410 267776.0000
    436    437   1      0.1400 392459.2000
    436    447   1      0.1080 307105.6000
    437    438   1      0.1400 392459.2000
    438    439   1      0.1400 392459.2000
    438    448   1      0.1080 307105.6000
    439    449   1      0.1080 307105.6000
    450    451   1      0.1229 476976.0000
    451    452   1      0.1327 179075.2000
    451    453   1      0.1470 259408.0000
    453    454   1      0.1400 392459.2000
    453    467   1      0.1400 392459.2000
    454    455   1      0.1400 392459.2000
    454    468   1      0.1080 307105.6000
    455    456   1      0.1400 392459.2000
    455    465   1      0.1400 392459.2000
    456    457   1      0.1400 392459.2000
    456    469   1      0.1080 307105.6000
    457    458   1      0.1400 392459.2000
    457    470   1      0.1080 307105.6000
    458    459   1      0.1470 259408.0000
    458    464   1      0.1400 392459.2000
    459    460   1      0.1327 179075.2000
    459    463   1      0.1229 476976.0000
    460    461   1      0.1410 267776.0000
    461    462   1      0.1529 224262.4000
    461    471   1      0.1090 284512.0000
    461    472   1      0.1090 284512.0000
    462    473   1      0.1090 284512.0000
    462    474   1      0.1090 284512.0000
    462    480   1      0.1410 267776.0000
    464    465   1      0.1400 392459.2000
    464    475   1      0.1080 307105.6000
    465    466   1      0.1400 392459.2000
    466    467   1      0.1400 392459.2000
    466    476   1      0.1080 307105.6000
    467    477   1      0.1080 307105.6000
    478    479   1      0.1229 476976.0000
    479    480   1      0.1327 179075.2000
    479    481   1      0.1470 259408.0000
    481    482   1      0.1400 392459.2000
    481    495   1      0.1400 392459.2000
    482    483   1      0.1400 392459.2000
    482    496   1      0.1080 307105.6000
    483    484   1      0.1400 392459.2000
    483    493   1      0.1400 392459.2000
    484    485   1      0.1400 392459.2000
    484    497   1      0.1080 307105.6000
    485    486   1      0.1400 392459.2000
    485    498   1      0.1080 307105.6000
    486    487   1      0.1470 259408.0000
    486    492   1      0.1400 392459.2000
    487    488   1      0.1327 179075.2000
    487    491   1      0.1229 476976.0000
    488    489   1      0.1410 267776.0000
    489    490   1      0.1529 224262.4000
    489    499   1      0.1090 284512.0000
    489    500   1      0.1090 284512.0000
    490    501   1      0.1090 284512.0000
    490    502   1      0.1090 284512.0000
    490    508   1      0.1410 267776.0000
    492    493   1      0.1400 392459.2000
    492    503   1      0.1080 307105.6000
    493    494   1      0.1400 392459.2000
    494    495   1      0.1400 392459.2000
    494    504   1      0.1080 307105.6000
    495    505   1      0.1080 307105.6000
    506    507   1      0.1229 476976.0000
    507    508   1      0.1327 179075.2000
    507    509   1      0.1470 259408.0000
    509    510   1      0.1400 392459.2000
    509    523   1      0.1400 392459.2000
    510    511   1      0.1400 392459.2000
    510    524   1      0.1080 307105.6000
    511    512   1      0.1400 392459.2000
    511    521   1      0.1400 392459.2000
    512    513   1      0.1400 392459.2000
    512    525   1      0.1080 307105.6000
    513    514   1      0.1400 392459.2000
    513    526   1      0.1080 307105.6000
    514    515   1      0.1470 259408.0000
    514    520   1      0.1400 392459.2000
    515    516   1      0.1327 179075.2000
    515    519   1      0.1229 476976.0000
    516    517   1      0.1410 267776.0000
    517    518   1      0.1529 224262.4000
    517    527   1      0.1090 284512.0000
    517    528   1      0.1090 284512.0000
    518    529   1      0.1090 284512.0000
    518    530   1      0.1090 284512.0000
    518    536   1      0.1410 267776.0000
    520    521   1      0.1400 392459.2000
    520    531   1      0.1080 307105.6000
    521    522   1      0.1400 392459.2000
    522    523   1      0.1400 392459.2000
    522    532   1      0.1080 307105.6000
    523    533   1      0.1080 307105.6000
    534    535   1      0.1229 476976.0000
    535    536   1      0.1327 179075.2000
    535    537   1      0.1470 259408.0000
    537    538   1      0.1400 392459.2000
    537    551   1      0.1400 392459.2000
    538    539   1      0.1400 392459.2000
    538    552   1      0.1080 307105.6000
    539    540   1      0.1400 392459.2000
    539    549   1      0.1400 392459.2000
    540    541   1      0.1400 392459.2000
    540    553   1      0.1080 307105.6000
    541    542   1      0.1400 392459.2000
    541    554   1      0.1080 307105.6000
    542    543   1      0.1470 259408.0000
    542    548   1      0.1400 392459.2000
    543    544   1      0.1327 179075.2000
    543    547   1      0.1229 476976.0000
    544    545   1      0.1410 267776.0000
    545    546   1      0.1529 224262.4000
    545    555   1      0.1090 284512.0000
    545    556   1      0.1090 284512.0000
    546    557   1      0.1090 284512.0000
    546    558   1      0.1090 284512.0000
    546    562   1      0.1090 284512.0000
    548    549   1      0.1400 392459.2000
    548    559   1      0.1080 307105.6000
    549    550   1      0.1400 392459.2000
    550    551   1      0.1400 392459.2000
    550    560   1      0.1080 307105.6000
    551    561   1      0.1080 307105.6000

[ pairs ]
; ai   aj   funct   fudge_QQ  charge_i   charge_j   c6    c12
      1     29   2   0.50000    -0.4400000    0.4500000   2.153164e-06  6.980110e-12
      4     29   2   0.50000    -0.1150000    0.4500000   2.144502e-06  1.199282e-11
      1      5   2   0.50000    -0.4400000   -0.1150000   1.177174e-03  1.365843e-06
      1     18   2   0.50000    -0.4400000   -0.1150000   1.177174e-03  1.365843e-06
      3      5   2   0.50000    -0.5300000   -0.1150000   1.102666e-03  1.331965e-06
      3     18   2   0.50000    -0.5300000   -0.1150000   1.102666e-03  1.331965e-06
      2      6   2   0.50000     0.6350000    0.0000000   1.692561e-03  3.993218e-06
      2     19   2   0.50000     0.6350000    0.1150000   3.510079e-04  2.623353e-07
     18      6   2   0.50000    -0.1150000    0.0000000   1.172438e-03  2.346713e-06
     18     19   2   0.50000    -0.1150000    0.1150000   2.431434e-04  1.541678e-07
      2     17   2   0.50000     0.6350000   -0.1150000   1.692561e-03  3.993218e-06
      2     28   2   0.50000     0.6350000    0.1150000   3.510079e-04  2.623353e-07
      5     17   2   0.50000    -0.1150000   -0.1150000   1.172438e-03  2.346713e-06
      5     28   2   0.50000    -0.1150000    0.1150000   2.431434e-04  1.541678e-07
      4      7   2   0.50000    -0.1150000   -0.1150000   1.172438e-03  2.346713e-06
      4     16   2   0.50000    -0.1150000    0.0000000   1.172438e-03  2.346713e-06
     19      7   2   0.50000     0.1150000   -0.1150000   2.431434e-04  1.541678e-07
     19     16   2   0.50000     0.1150000    0.0000000   2.431434e-04  1.541678e-07
      5      8   2   0.50000    -0.1150000   -0.1150000   1.172438e-03  2.346713e-06
      5     20   2   0.50000    -0.1150000    0.1150000   2.431434e-04  1.541678e-07
     16      8   2   0.50000     0.0000000   -0.1150000   1.172438e-03  2.346713e-06
     16     20   2   0.50000     0.0000000    0.1150000   2.431434e-04  1.541678e-07
      5     15   2   0.50000    -0.1150000   -0.1150000   1.172438e-03  2.346713e-06
      7     15   2   0.50000    -0.1150000   -0.1150000   1.172438e-03  2.346713e-06
      7     17   2   0.50000    -0.1150000   -0.1150000   1.172438e-03  2.346713e-06
      6      9   2   0.50000     0.0000000   -0.1150000   1.172438e-03  2.346713e-06
      6     21   2   0.50000     0.0000000    0.1150000   2.431434e-04  1.541678e-07
     20      9   2   0.50000     0.1150000   -0.1150000   2.431434e-04  1.541678e-07
     20     21   2   0.50000     0.1150000    0.1150000   5.042375e-05  1.012808e-08
      7     10   2   0.50000    -0.1150000    0.6250000   1.692561e-03  3.993218e-06
     21     10   2   0.50000     0.1150000    0.6250000   3.510079e-04  2.623353e-07
     21     15   2   0.50000     0.1150000   -0.1150000   2.431434e-04  1.541678e-07
      8     11   2   0.50000    -0.1150000   -0.3300000   1.102666e-03  1.331965e-06
      8     14   2   0.50000    -0.1150000   -0.4300000   1.177174e-03  1.365843e-06
     15     11   2   0.50000    -0.1150000   -0.3300000   1.102666e-03  1.331965e-06
     15     14   2   0.50000    -0.1150000   -0.4300000   1.177174e-03  1.365843e-06
      8     26   2   0.50000    -0.1150000    0.1150000   2.431434e-04  1.541678e-07
     10     16   2   0.50000     0.6250000    0.0000000   1.692561e-03  3.993218e-06
     10     26   2   0.50000     0.6250000    0.1150000   3.510079e-04  2.623353e-07
      9     12   2   0.50000    -0.1150000    0.1900000   1.091018e-03  2.092768e-06
     14     12   2   0.50000    -0.4300000    0.1900000   1.095425e-03  1.218041e-06
     10     13   2   0.50000     0.6250000    0.1900000   1.575021e-03  3.561100e-06
     10     22   2   0.50000     0.6250000    0.0300000   2.482000e-04  1.854991e-07
     10     23   2   0.50000     0.6250000    0.0300000   2.482000e-04  1.854991e-07
     11     24   2   0.50000    -0.3300000    0.0300000   1.616969e-04  6.187447e-08
     11     25   2   0.50000    -0.3300000    0.0300000   1.616969e-04  6.187447e-08
     11     32   2   0.50000    -0.3300000   -0.3300000   1.037046e-03  7.560067e-07
     22     24   2   0.50000     0.0300000    0.0300000   2.521187e-05  5.064042e-09
     22     25   2   0.50000     0.0300000    0.0300000   2.521187e-05  5.064042e-09
     22     32   2   0.50000     0.0300000   -0.3300000   1.616969e-04  6.187447e-08
     23     24   2   0.50000     0.0300000    0.0300000   2.521187e-05  5.064042e-09
     23     25   2   0.50000     0.0300000    0.0300000   2.521187e-05  5.064042e-09
     23     32   2   0.50000     0.0300000   -0.3300000   1.616969e-04  6.187447e-08
     12     31   2   0.50000     0.1900000    0.6250000   1.575021e-03  3.561100e-06
     24     31   2   0.50000     0.0300000    0.6250000   2.482000e-04  1.854991e-07
     25     31   2   0.50000     0.0300000    0.6250000   2.482000e-04  1.854991e-07
      9     17   2   0.50000    -0.1150000   -0.1150000   1.172438e-03  2.346713e-06
     26      6   2   0.50000     0.1150000    0.0000000   2.431434e-04  1.541678e-07
     26     17   2   0.50000     0.1150000   -0.1150000   2.431434e-04  1.541678e-07
      6     27   2   0.50000     0.0000000    0.1150000   2.431434e-04  1.541678e-07
     15     18   2   0.50000    -0.1150000   -0.1150000   1.172438e-03  2.346713e-06
     15     27   2   0.50000    -0.1150000    0.1150000   2.431434e-04  1.541678e-07
     16     28   2   0.50000     0.0000000    0.1150000   2.431434e-04  1.541678e-07
     27      4   2   0.50000     0.1150000   -0.1150000   2.431434e-04  1.541678e-07
     27     28   2   0.50000     0.1150000    0.1150000   5.042375e-05  1.012808e-08
     30     13   2   0.50000    -0.4300000    0.1900000   1.095425e-03  1.218041e-06
     33     13   2   0.50000    -0.1150000    0.1900000   1.091018e-03  2.092768e-06
     30     34   2   0.50000    -0.4300000   -0.1150000   1.177174e-03  1.365843e-06
     30     47   2   0.50000    -0.4300000   -0.1150000   1.177174e-03  1.365843e-06
     32     34   2   0.50000    -0.3300000   -0.1150000   1.102666e-03  1.331965e-06
     32     47   2   0.50000    -0.3300000   -0.1150000   1.102666e-03  1.331965e-06
     31     35   2   0.50000     0.6250000    0.0000000   1.692561e-03  3.993218e-06
     31     48   2   0.50000     0.6250000    0.1150000   3.510079e-04  2.623353e-07
     47     35   2   0.50000    -0.1150000    0.0000000   1.172438e-03  2.346713e-06
     47     48   2   0.50000    -0.1150000    0.1150000   2.431434e-04  1.541678e-07
     31     46   2   0.50000     0.6250000   -0.1150000   1.692561e-03  3.993218e-06
     31     57   2   0.50000     0.6250000    0.1150000   3.510079e-04  2.623353e-07
     34     46   2   0.50000    -0.1150000   -0.1150000   1.172438e-03  2.346713e-06
     34     57   2   0.50000    -0.1150000    0.1150000   2.431434e-04  1.541678e-07
     33     36   2   0.50000    -0.1150000   -0.1150000   1.172438e-03  2.346713e-06
     33     45   2   0.50000    -0.1150000    0.0000000   1.172438e-03  2.346713e-06
     48     36   2   0.50000     0.1150000   -0.1150000   2.431434e-04  1.541678e-07
     48     45   2   0.50000     0.1150000    0.0000000   2.431434e-04  1.541678e-07
     34     37   2   0.50000    -0.1150000   -0.1150000   1.172438e-03  2.346713e-06
     34     49   2   0.50000    -0.1150000    0.1150000   2.431434e-04  1.541678e-07
     45     37   2   0.50000     0.0000000   -0.1150000   1.172438e-03  2.346713e-06
     45     49   2   0.50000     0.0000000    0.1150000   2.431434e-04  1.541678e-07
     34     44   2   0.50000    -0.1150000   -0.1150000   1.172438e-03  2.346713e-06
     36     44   2   0.50000    -0.1150000   -0.1150000   1.172438e-03  2.346713e-06
     36     46   2   0.50000    -0.1150000   -0.1150000   1.172438e-03  2.346713e-06
     35     38   2   0.50000     0.0000000   -0.1150000   1.172438e-03  2.346713e-06
     35     50   2   0.50000     0.0000000    0.1150000   2.431434e-04  1.541678e-07
     49     38   2   0.50000     0.1150000   -0.1150000   2.431434e-04  1.541678e-07
     49     50   2   0.50000     0.1150000    0.1150000   5.042375e-05  1.012808e-08
     36     39   2   0.50000    -0.1150000    0.6250000   1.692561e-03  3.993218e-06
     50     39   2   0.50000     0.1150000    0.6250000   3.510079e-04  2.623353e-07
     50     44   2   0.50000     0.1150000   -0.1150000   2.431434e-04  1.541678e-07
     37     40   2   0.50000    -0.1150000   -0.3300000   1.102666e-03  1.331965e-06
     37     43   2   0.50000    -0.1150000   -0.4300000   1.177174e-03  1.365843e-06
     44     40   2   0.50000    -0.1150000   -0.3300000   1.102666e-03  1.331965e-06
     44     43   2   0.50000    -0.1150000   -0.4300000   1.177174e-03  1.365843e-06
     37     55   2   0.50000    -0.1150000    0.1150000   2.431434e-04  1.541678e-07
     39     45   2   0.50000     0.6250000    0.0000000   1.692561e-03  3.993218e-06
     39     55   2   0.50000     0.6250000    0.1150000   3.510079e-04  2.623353e-07
     38     41   2   0.50000    -0.1150000    0.1900000   1.091018e-03  2.092768e-06
     43     41   2   0.50000    -0.4300000    0.1900000   1.095425e-03  1.218041e-06
     39     42   2   0.50000     0.6250000    0.1900000   1.575021e-03  3.561100e-06
     39     51   2   0.50000     0.6250000    0.0300000   2.482000e-04  1.854991e-07
     39     52   2   0.50000     0.6250000    0.0300000   2.482000e-04  1.854991e-07
     40     53   2   0.50000    -0.3300000    0.0300000   1.616969e-04  6.187447e-08
     40     54   2   0.50000    -0.3300000    0.0300000   1.616969e-04  6.187447e-08
     40     60   2   0.50000    -0.3300000   -0.3300000   1.037046e-03  7.560067e-07
     51     53   2   0.50000     0.0300000    0.0300000   2.521187e-05  5.064042e-09
     51     54   2   0.50000     0.0300000    0.0300000   2.521187e-05  5.064042e-09
     51     60   2   0.50000     0.0300000   -0.3300000   1.616969e-04  6.187447e-08
     52     53   2   0.50000     0.0300000    0.0300000   2.521187e-05  5.064042e-09
     52     54   2   0.50000     0.0300000    0.0300000   2.521187e-05  5.064042e-09
     52     60   2   0.50000     0.0300000   -0.3300000   1.616969e-04  6.187447e-08
     41     59   2   0.50000     0.1900000    0.6250000   1.575021e-03  3.561100e-06
     53     59   2   0.50000     0.0300000    0.6250000   2.482000e-04  1.854991e-07
     54     59   2   0.50000     0.0300000    0.6250000   2.482000e-04  1.854991e-07
     38     46   2   0.50000    -0.1150000   -0.1150000   1.172438e-03  2.346713e-06
     55     35   2   0.50000     0.1150000    0.0000000   2.431434e-04  1.541678e-07
     55     46   2   0.50000     0.1150000   -0.1150000   2.431434e-04  1.541678e-07
     35     56   2   0.50000     0.0000000    0.1150000   2.431434e-04  1.541678e-07
     44     47   2   0.50000    -0.1150000   -0.1150000   1.172438e-03  2.346713e-06
     44     56   2   0.50000    -0.1150000    0.1150000   2.431434e-04  1.541678e-07
     45     57   2   0.50000     0.0000000    0.1150000   2.431434e-04  1.541678e-07
     56     33   2   0.50000     0.1150000   -0.1150000   2.431434e-04  1.541678e-07
     56     57   2   0.50000     0.1150000    0.1150000   5.042375e-05  1.012808e-08
     58     42   2   0.50000    -0.4300000    0.1900000   1.095425e-03  1.218041e-06
     61     42   2   0.50000    -0.1150000    0.1900000   1.091018e-03  2.092768e-06
     58     62   2   0.50000    -0.4300000   -0.1150000   1.177174e-03  1.365843e-06
     58     75   2   0.50000    -0.4300000   -0.1150000   1.177174e-03  1.365843e-06
     60     62   2   0.50000    -0.3300000   -0.1150000   1.102666e-03  1.331965e-06
     60     75   2   0.50000    -0.3300000   -0.1150000   1.102666e-03  1.331965e-06
     59     63   2   0.50000     0.6250000    0.0000000   1.692561e-03  3.993218e-06
     59     76   2   0.50000     0.6250000    0.1150000   3.510079e-04  2.623353e-07
     75     63   2   0.50000    -0.1150000    0.0000000   1.172438e-03  2.346713e-06
     75     76   2   0.50000    -0.1150000    0.1150000   2.431434e-04  1.541678e-07
     59     74   2   0.50000     0.6250000   -0.1150000   1.692561e-03  3.993218e-06
     59     85   2   0.50000     0.6250000    0.1150000   3.510079e-04  2.623353e-07
     62     74   2   0.50000    -0.1150000   -0.1150000   1.172438e-03  2.346713e-06
     62     85   2   0.50000    -0.1150000    0.1150000   2.431434e-04  1.541678e-07
     61     64   2   0.50000    -0.1150000   -0.1150000   1.172438e-03  2.346713e-06
     61     73   2   0.50000    -0.1150000    0.0000000   1.172438e-03  2.346713e-06
     76     64   2   0.50000     0.1150000   -0.1150000   2.431434e-04  1.541678e-07
     76     73   2   0.50000     0.1150000    0.0000000   2.431434e-04  1.541678e-07
     62     65   2   0.50000    -0.1150000   -0.1150000   1.172438e-03  2.346713e-06
     62     77   2   0.50000    -0.1150000    0.1150000   2.431434e-04  1.541678e-07
     73     65   2   0.50000     0.0000000   -0.1150000   1.172438e-03  2.346713e-06
     73     77   2   0.50000     0.0000000    0.1150000   2.431434e-04  1.541678e-07
     62     72   2   0.50000    -0.1150000   -0.1150000   1.172438e-03  2.346713e-06
     64     72   2   0.50000    -0.1150000   -0.1150000   1.172438e-03  2.346713e-06
     64     74   2   0.50000    -0.1150000   -0.1150000   1.172438e-03  2.346713e-06
     63     66   2   0.50000     0.0000000   -0.1150000   1.172438e-03  2.346713e-06
     63     78   2   0.50000     0.0000000    0.1150000   2.431434e-04  1.541678e-07
     77     66   2   0.50000     0.1150000   -0.1150000   2.431434e-04  1.541678e-07
     77     78   2   0.50000     0.1150000    0.1150000   5.042375e-05  1.012808e-08
     64     67   2   0.50000    -0.1150000    0.6250000   1.692561e-03  3.993218e-06
     78     67   2   0.50000     0.1150000    0.6250000   3.510079e-04  2.623353e-07
     78     72   2   0.50000     0.1150000   -0.1150000   2.431434e-04  1.541678e-07
     65     68   2   0.50000    -0.1150000   -0.3300000   1.102666e-03  1.331965e-06
     65     71   2   0.50000    -0.1150000   -0.4300000   1.177174e-03  1.365843e-06
     72     68   2   0.50000    -0.1150000   -0.3300000   1.102666e-03  1.331965e-06
     72     71   2   0.50000    -0.1150000   -0.4300000   1.177174e-03  1.365843e-06
     65     83   2   0.50000    -0.1150000    0.1150000   2.431434e-04  1.541678e-07
     67     73   2   0.50000     0.6250000    0.0000000   1.692561e-03  3.993218e-06
     67     83   2   0.50000     0.6250000    0.1150000   3.510079e-04  2.623353e-07
     66     69   2   0.50000    -0.1150000    0.1900000   1.091018e-03  2.092768e-06
     71     69   2   0.50000    -0.4300000    0.1900000   1.095425e-03  1.218041e-06
     67     70   2   0.50000     0.6250000    0.1900000   1.575021e-03  3.561100e-06
     67     79   2   0.50000     0.6250000    0.0300000   2.482000e-04  1.854991e-07
     67     80   2   0.50000     0.6250000    0.0300000   2.482000e-04  1.854991e-07
     68     81   2   0.50000    -0.3300000    0.0300000   1.616969e-04  6.187447e-08
     68     82   2   0.50000    -0.3300000    0.0300000   1.616969e-04  6.187447e-08
     68     88   2   0.50000    -0.3300000   -0.3300000   1.037046e-03  7.560067e-07
     79     81   2   0.50000     0.0300000    0.0300000   2.521187e-05  5.064042e-09
     79     82   2   0.50000     0.0300000    0.0300000   2.521187e-05  5.064042e-09
     79     88   2   0.50000     0.0300000   -0.3300000   1.616969e-04  6.187447e-08
     80     81   2   0.50000     0.0300000    0.0300000   2.521187e-05  5.064042e-09
     80     82   2   0.50000     0.0300000    0.0300000   2.521187e-05  5.064042e-09
     80     88   2   0.50000     0.0300000   -0.3300000   1.616969e-04  6.187447e-08
     69     87   2   0.50000     0.1900000    0.6250000   1.575021e-03  3.561100e-06
     81     87   2   0.50000     0.0300000    0.6250000   2.482000e-04  1.854991e-07
     82     87   2   0.50000     0.0300000    0.6250000   2.482000e-04  1.854991e-07
     66     74   2   0.50000    -0.1150000   -0.1150000   1.172438e-03  2.346713e-06
     83     63   2   0.50000     0.1150000    0.0000000   2.431434e-04  1.541678e-07
     83     74   2   0.50000     0.1150000   -0.1150000   2.431434e-04  1.541678e-07
     63     84   2   0.50000     0.0000000    0.1150000   2.431434e-04  1.541678e-07
     72     75   2   0.50000    -0.1150000   -0.1150000   1.172438e-03  2.346713e-06
     72     84   2   0.50000    -0.1150000    0.1150000   2.431434e-04  1.541678e-07
     73     85   2   0.50000     0.0000000    0.1150000   2.431434e-04  1.541678e-07
     84     61   2   0.50000     0.1150000   -0.1150000   2.431434e-04  1.541678e-07
     84     85   2   0.50000     0.1150000    0.1150000   5.042375e-05  1.012808e-08
     86     70   2   0.50000    -0.4300000    0.1900000   1.095425e-03  1.218041e-06
     89     70   2   0.50000    -0.1150000    0.1900000   1.091018e-03  2.092768e-06
     86     90   2   0.50000    -0.4300000   -0.1150000   1.177174e-03  1.365843e-06
     86    103   2   0.50000    -0.4300000   -0.1150000   1.177174e-03  1.365843e-06
     88     90   2   0.50000    -0.3300000   -0.1150000   1.102666e-03  1.331965e-06
     88    103   2   0.50000    -0.3300000   -0.1150000   1.102666e-03  1.331965e-06
     87     91   2   0.50000     0.6250000    0.0000000   1.692561e-03  3.993218e-06
     87    104   2   0.50000     0.6250000    0.1150000   3.510079e-04  2.623353e-07
    103     91   2   0.50000    -0.1150000    0.0000000   1.172438e-03  2.346713e-06
    103    104   2   0.50000    -0.1150000    0.1150000   2.431434e-04  1.541678e-07
     87    102   2   0.50000     0.6250000   -0.1150000   1.692561e-03  3.993218e-06
     87    113   2   0.50000     0.6250000    0.1150000   3.510079e-04  2.623353e-07
     90    102   2   0.50000    -0.1150000   -0.1150000   1.172438e-03  2.346713e-06
     90    113   2   0.50000    -0.1150000    0.1150000   2.431434e-04  1.541678e-07
     89     92   2   0.50000    -0.1150000   -0.1150000   1.172438e-03  2.346713e-06
     89    101   2   0.50000    -0.1150000    0.0000000   1.172438e-03  2.346713e-06
    104     92   2   0.50000     0.1150000   -0.1150000   2.431434e-04  1.541678e-07
    104    101   2   0.50000     0.1150000    0.0000000   2.431434e-04  1.541678e-07
     90     93   2   0.50000    -0.1150000   -0.1150000   1.172438e-03  2.346713e-06
     90    105   2   0.50000    -0.1150000    0.1150000   2.431434e-04  1.541678e-07
    101     93   2   0.50000     0.0000000   -0.1150000   1.172438e-03  2.346713e-06
    101    105   2   0.50000     0.0000000    0.1150000   2.431434e-04  1.541678e-07
     90    100   2   0.50000    -0.1150000   -0.1150000   1.172438e-03  2.346713e-06
     92    100   2   0.50000    -0.1150000   -0.1150000   1.172438e-03  2.346713e-06
     92    102   2   0.50000    -0.1150000   -0.1150000   1.172438e-03  2.346713e-06
     91     94   2   0.50000     0.0000000   -0.1150000   1.172438e-03  2.346713e-06
     91    106   2   0.50000     0.0000000    0.1150000   2.431434e-04  1.541678e-07
    105     94   2   0.50000     0.1150000   -0.1150000   2.431434e-04  1.541678e-07
    105    106   2   0.50000     0.1150000    0.1150000   5.042375e-05  1.012808e-08
     92     95   2   0.50000    -0.1150000    0.6250000   1.692561e-03  3.993218e-06
    106     95   2   0.50000     0.1150000    0.6250000   3.510079e-04  2.623353e-07
    106    100   2   0.50000     0.1150000   -0.1150000   2.431434e-04  1.541678e-07
     93     96   2   0.50000    -0.1150000   -0.3300000   1.102666e-03  1.331965e-06
     93     99   2   0.50000    -0.1150000   -0.4300000   1.177174e-03  1.365843e-06
    100     96   2   0.50000    -0.1150000   -0.3300000   1.102666e-03  1.331965e-06
    100     99   2   0.50000    -0.1150000   -0.4300000   1.177174e-03  1.365843e-06
     93    111   2   0.50000    -0.1150000    0.1150000   2.431434e-04  1.541678e-07
     95    101   2   0.50000     0.6250000    0.0000000   1.692561e-03  3.993218e-06
     95    111   2   0.50000     0.6250000    0.1150000   3.510079e-04  2.623353e-07
     94     97   2   0.50000    -0.1150000    0.1900000   1.091018e-03  2.092768e-06
     99     97   2   0.50000    -0.4300000    0.1900000   1.095425e-03  1.218041e-06
     95     98   2   0.50000     0.6250000    0.1900000   1.575021e-03  3.561100e-06
     95    107   2   0.50000     0.6250000    0.0300000   2.482000e-04  1.854991e-07
     95    108   2   0.50000     0.6250000    0.0300000   2.482000e-04  1.854991e-07
     96    109   2   0.50000    -0.3300000    0.0300000   1.616969e-04  6.187447e-08
     96    110   2   0.50000    -0.3300000    0.0300000   1.616969e-04  6.187447e-08
     96    116   2   0.50000    -0.3300000   -0.3300000   1.037046e-03  7.560067e-07
    107    109   2   0.50000     0.0300000    0.0300000   2.521187e-05  5.064042e-09
    107    110   2   0.50000     0.0300000    0.0300000   2.521187e-05  5.064042e-09
    107    116   2   0.50000     0.0300000   -0.3300000   1.616969e-04  6.187447e-08
    108    109   2   0.50000     0.0300000    0.0300000   2.521187e-05  5.064042e-09
    108    110   2   0.50000     0.0300000    0.0300000   2.521187e-05  5.064042e-09
    108    116   2   0.50000     0.0300000   -0.3300000   1.616969e-04  6.187447e-08
     97    115   2   0.50000     0.1900000    0.6250000   1.575021e-03  3.561100e-06
    109    115   2   0.50000     0.0300000    0.6250000   2.482000e-04  1.854991e-07
    110    115   2   0.50000     0.0300000    0.6250000   2.482000e-04  1.854991e-07
     94    102   2   0.50000    -0.1150000   -0.1150000   1.172438e-03  2.346713e-06
    111     91   2   0.50000     0.1150000    0.0000000   2.431434e-04  1.541678e-07
    111    102   2   0.50000     0.1150000   -0.1150000   2.431434e-04  1.541678e-07
     91    112   2   0.50000     0.0000000    0.1150000   2.431434e-04  1.541678e-07
    100    103   2   0.50000    -0.1150000   -0.1150000   1.172438e-03  2.346713e-06
    100    112   2   0.50000    -0.1150000    0.1150000   2.431434e-04  1.541678e-07
    101    113   2   0.50000     0.0000000    0.1150000   2.431434e-04  1.541678e-07
    112     89   2   0.50000     0.1150000   -0.1150000   2.431434e-04  1.541678e-07
    112    113   2   0.50000     0.1150000    0.1150000   5.042375e-05  1.012808e-08
    114     98   2   0.50000    -0.4300000    0.1900000   1.095425e-03  1.218041e-06
    117     98   2   0.50000    -0.1150000    0.1900000   1.091018e-03  2.092768e-06
    114    118   2   0.50000    -0.4300000   -0.1150000   1.177174e-03  1.365843e-06
    114    131   2   0.50000    -0.4300000   -0.1150000   1.177174e-03  1.365843e-06
    116    118   2   0.50000    -0.3300000   -0.1150000   1.102666e-03  1.331965e-06
    116    131   2   0.50000    -0.3300000   -0.1150000   1.102666e-03  1.331965e-06
    115    119   2   0.50000     0.6250000    0.0000000   1.692561e-03  3.993218e-06
    115    132   2   0.50000     0.6250000    0.1150000   3.510079e-04  2.623353e-07
    131    119   2   0.50000    -0.1150000    0.0000000   1.172438e-03  2.346713e-06
    131    132   2   0.50000    -0.1150000    0.1150000   2.431434e-04  1.541678e-07
    115    130   2   0.50000     0.6250000   -0.1150000   1.692561e-03  3.993218e-06
    115    141   2   0.50000     0.6250000    0.1150000   3.510079e-04  2.623353e-07
    118    130   2   0.50000    -0.1150000   -0.1150000   1.172438e-03  2.346713e-06
    118    141   2   0.50000    -0.1150000    0.1150000   2.431434e-04  1.541678e-07
    117    120   2   0.50000    -0.1150000   -0.1150000   1.172438e-03  2.346713e-06
    117    129   2   0.50000    -0.1150000    0.0000000   1.172438e-03  2.346713e-06
    132    120   2   0.50000     0.1150000   -0.1150000   2.431434e-04  1.541678e-07
    132    129   2   0.50000     0.1150000    0.0000000   2.431434e-04  1.541678e-07
    118    121   2   0.50000    -0.1150000   -0.1150000   1.172438e-03  2.346713e-06
    118    133   2   0.50000    -0.1150000    0.1150000   2.431434e-04  1.541678e-07
    129    121   2   0.50000     0.0000000   -0.1150000   1.172438e-03  2.346713e-06
    129    133   2   0.50000     0.0000000    0.1150000   2.431434e-04  1.541678e-07
    118    128   2   0.50000    -0.1150000   -0.1150000   1.172438e-03  2.346713e-06
    120    128   2   0.50000    -0.1150000   -0.1150000   1.172438e-03  2.346713e-06
    120    130   2   0.50000    -0.1150000   -0.1150000   1.172438e-03  2.346713e-06
    119    122   2   0.50000     0.0000000   -0.1150000   1.172438e-03  2.346713e-06
    119    134   2   0.50000     0.0000000    0.1150000   2.431434e-04  1.541678e-07
    133    122   2   0.50000     0.1150000   -0.1150000   2.431434e-04  1.541678e-07
    133    134   2   0.50000     0.1150000    0.1150000   5.042375e-05  1.012808e-08
    120    123   2   0.50000    -0.1150000    0.6250000   1.692561e-03  3.993218e-06
    134    123   2   0.50000     0.1150000    0.6250000   3.510079e-04  2.623353e-07
    134    128   2   0.50000     0.1150000   -0.1150000   2.431434e-04  1.541678e-07
    121    124   2   0.50000    -0.1150000   -0.3300000   1.102666e-03  1.331965e-06
    121    127   2   0.50000    -0.1150000   -0.4300000   1.177174e-03  1.365843e-06
    128    124   2   0.50000    -0.1150000   -0.3300000   1.102666e-03  1.331965e-06
    128    127   2   0.50000    -0.1150000   -0.4300000   1.177174e-03  1.365843e-06
    121    139   2   0.50000    -0.1150000    0.1150000   2.431434e-04  1.541678e-07
    123    129   2   0.50000     0.6250000    0.0000000   1.692561e-03  3.993218e-06
    123    139   2   0.50000     0.6250000    0.1150000   3.510079e-04  2.623353e-07
    122    125   2   0.50000    -0.1150000    0.1900000   1.091018e-03  2.092768e-06
    127    125   2   0.50000    -0.4300000    0.1900000   1.095425e-03  1.218041e-06
    123    126   2   0.50000     0.6250000    0.1900000   1.575021e-03  3.561100e-06
    123    135   2   0.50000     0.6250000    0.0300000   2.482000e-04  1.854991e-07
    123    136   2   0.50000     0.6250000    0.0300000   2.482000e-04  1.854991e-07
    124    137   2   0.50000    -0.3300000    0.0300000   1.616969e-04  6.187447e-08
    124    138   2   0.50000    -0.3300000    0.0300000   1.616969e-04  6.187447e-08
    124    144   2   0.50000    -0.3300000   -0.3300000   1.037046e-03  7.560067e-07
    135    137   2   0.50000     0.0300000    0.0300000   2.521187e-05  5.064042e-09
    135    138   2   0.50000     0.0300000    0.0300000   2.521187e-05  5.064042e-09
    135    144   2   0.50000     0.0300000   -0.3300000   1.616969e-04  6.187447e-08
    136    137   2   0.50000     0.0300000    0.0300000   2.521187e-05  5.064042e-09
    136    138   2   0.50000     0.0300000    0.0300000   2.521187e-05  5.064042e-09
    136    144   2   0.50000     0.0300000   -0.3300000   1.616969e-04  6.187447e-08
    125    143   2   0.50000     0.1900000    0.6250000   1.575021e-03  3.561100e-06
    137    143   2   0.50000     0.0300000    0.6250000   2.482000e-04  1.854991e-07
    138    143   2   0.50000     0.0300000    0.6250000   2.482000e-04  1.854991e-07
    122    130   2   0.50000    -0.1150000   -0.1150000   1.172438e-03  2.346713e-06
    139    119   2   0.50000     0.1150000    0.0000000   2.431434e-04  1.541678e-07
    139    130   2   0.50000     0.1150000   -0.1150000   2.431434e-04  1.541678e-07
    119    140   2   0.50000     0.0000000    0.1150000   2.431434e-04  1.541678e-07
    128    131   2   0.50000    -0.1150000   -0.1150000   1.172438e-03  2.346713e-06
    128    140   2   0.50000    -0.1150000    0.1150000   2.431434e-04  1.541678e-07
    129    141   2   0.50000     0.0000000    0.1150000   2.431434e-04  1.541678e-07
    140    117   2   0.50000     0.1150000   -0.1150000   2.431434e-04  1.541678e-07
    140    141   2   0.50000     0.1150000    0.1150000   5.042375e-05  1.012808e-08
    142    126   2   0.50000    -0.4300000    0.1900000   1.095425e-03  1.218041e-06
    145    126   2   0.50000    -0.1150000    0.1900000   1.091018e-03  2.092768e-06
    142    146   2   0.50000    -0.4300000   -0.1150000   1.177174e-03  1.365843e-06
    142    159   2   0.50000    -0.4300000   -0.1150000   1.177174e-03  1.365843e-06
    144    146   2   0.50000    -0.3300000   -0.1150000   1.102666e-03  1.331965e-06
    144    159   2   0.50000    -0.3300000   -0.1150000   1.102666e-03  1.331965e-06
    143    147   2   0.50000     0.6250000    0.0000000   1.692561e-03  3.993218e-06
    143    160   2   0.50000     0.6250000    0.1150000   3.510079e-04  2.623353e-07
    159    147   2   0.50000    -0.1150000    0.0000000   1.172438e-03  2.346713e-06
    159    160   2   0.50000    -0.1150000    0.1150000   2.431434e-04  1.541678e-07
    143    158   2   0.50000     0.6250000   -0.1150000   1.692561e-03  3.993218e-06
    143    169   2   0.50000     0.6250000    0.1150000   3.510079e-04  2.623353e-07
    146    158   2   0.50000    -0.1150000   -0.1150000   1.172438e-03  2.346713e-06
    146    169   2   0.50000    -0.1150000    0.1150000   2.431434e-04  1.541678e-07
    145    148   2   0.50000    -0.1150000   -0.1150000   1.172438e-03  2.346713e-06
    145    157   2   0.50000    -0.1150000    0.0000000   1.172438e-03  2.346713e-06
    160    148   2   0.50000     0.1150000   -0.1150000   2.431434e-04  1.541678e-07
    160    157   2   0.50000     0.1150000    0.0000000   2.431434e-04  1.541678e-07
    146    149   2   0.50000    -0.1150000   -0.1150000   1.172438e-03  2.346713e-06
    146    161   2   0.50000    -0.1150000    0.1150000   2.431434e-04  1.541678e-07
    157    149   2   0.50000     0.0000000   -0.1150000   1.172438e-03  2.346713e-06
    157    161   2   0.50000     0.0000000    0.1150000   2.431434e-04  1.541678e-07
    146    156   2   0.50000    -0.1150000   -0.1150000   1.172438e-03  2.346713e-06
    148    156   2   0.50000    -0.1150000   -0.1150000   1.172438e-03  2.346713e-06
    148    158   2   0.50000    -0.1150000   -0.1150000   1.172438e-03  2.346713e-06
    147    150   2   0.50000     0.0000000   -0.1150000   1.172438e-03  2.346713e-06
    147    162   2   0.50000     0.0000000    0.1150000   2.431434e-04  1.541678e-07
    161    150   2   0.50000     0.1150000   -0.1150000   2.431434e-04  1.541678e-07
    161    162   2   0.50000     0.1150000    0.1150000   5.042375e-05  1.012808e-08
    148    151   2   0.50000    -0.1150000    0.6250000   1.692561e-03  3.993218e-06
    162    151   2   0.50000     0.1150000    0.6250000   3.510079e-04  2.623353e-07
    162    156   2   0.50000     0.1150000   -0.1150000   2.431434e-04  1.541678e-07
    149    152   2   0.50000    -0.1150000   -0.3300000   1.102666e-03  1.331965e-06
    149    155   2   0.50000    -0.1150000   -0.4300000   1.177174e-03  1.365843e-06
    156    152   2   0.50000    -0.1150000   -0.3300000   1.102666e-03  1.331965e-06
    156    155   2   0.50000    -0.1150000   -0.4300000   1.177174e-03  1.365843e-06
    149    167   2   0.50000    -0.1150000    0.1150000   2.431434e-04  1.541678e-07
    151    157   2   0.50000     0.6250000    0.0000000   1.692561e-03  3.993218e-06
    151    167   2   0.50000     0.6250000    0.1150000   3.510079e-04  2.623353e-07
    150    153   2   0.50000    -0.1150000    0.1900000   1.091018e-03  2.092768e-06
    155    153   2   0.50000    -0.4300000    0.1900000   1.095425e-03  1.218041e-06
    151    154   2   0.50000     0.6250000    0.1900000   1.575021e-03  3.561100e-06
    151    163   2   0.50000     0.6250000    0.0300000   2.482000e-04  1.854991e-07
    151    164   2   0.50000     0.6250000    0.0300000   2.482000e-04  1.854991e-07
    152    165   2   0.50000    -0.3300000    0.0300000   1.616969e-04  6.187447e-08
    152    166   2   0.50000    -0.3300000    0.0300000   1.616969e-04  6.187447e-08
    152    172   2   0.50000    -0.3300000   -0.3300000   1.037046e-03  7.560067e-07
    163    165   2   0.50000     0.0300000    0.0300000   2.521187e-05  5.064042e-09
    163    166   2   0.50000     0.0300000    0.0300000   2.521187e-05  5.064042e-09
    163    172   2   0.50000     0.0300000   -0.3300000   1.616969e-04  6.187447e-08
    164    165   2   0.50000     0.0300000    0.0300000   2.521187e-05  5.064042e-09
    164    166   2   0.50000     0.0300000    0.0300000   2.521187e-05  5.064042e-09
    164    172   2   0.50000     0.0300000   -0.3300000   1.616969e-04  6.187447e-08
    153    171   2   0.50000     0.1900000    0.6250000   1.575021e-03  3.561100e-06
    165    171   2   0.50000     0.0300000    0.6250000   2.482000e-04  1.854991e-07
    166    171   2   0.50000     0.0300000    0.6250000   2.482000e-04  1.854991e-07
    150    158   2   0.50000    -0.1150000   -0.1150000   1.172438e-03  2.346713e-06
    167    147   2   0.50000     0.1150000    0.0000000   2.431434e-04  1.541678e-07
    167    158   2   0.50000     0.1150000   -0.1150000   2.431434e-04  1.541678e-07
    147    168   2   0.50000     0.0000000    0.1150000   2.431434e-04  1.541678e-07
    156    159   2   0.50000    -0.1150000   -0.1150000   1.172438e-03  2.346713e-06
    156    168   2   0.50000    -0.1150000    0.1150000   2.431434e-04  1.541678e-07
    157    169   2   0.50000     0.0000000    0.1150000   2.431434e-04  1.541678e-07
    168    145   2   0.50000     0.1150000   -0.1150000   2.431434e-04  1.541678e-07
    168    169   2   0.50000     0.1150000    0.1150000   5.042375e-05  1.012808e-08
    170    154   2   0.50000    -0.4300000    0.1900000   1.095425e-03  1.218041e-06
    173    154   2   0.50000    -0.1150000    0.1900000   1.091018e-03  2.092768e-06
    170    174   2   0.50000    -0.4300000   -0.1150000   1.177174e-03  1.365843e-06
    170    187   2   0.50000    -0.4300000   -0.1150000   1.177174e-03  1.365843e-06
    172    174   2   0.50000    -0.3300000   -0.1150000   1.102666e-03  1.331965e-06
    172    187   2   0.50000    -0.3300000   -0.1150000   1.102666e-03  1.331965e-06
    171    175   2   0.50000     0.6250000    0.0000000   1.692561e-03  3.993218e-06
    171    188   2   0.50000     0.6250000    0.1150000   3.510079e-04  2.623353e-07
    187    175   2   0.50000    -0.1150000    0.0000000   1.172438e-03  2.346713e-06
    187    188   2   0.50000    -0.1150000    0.1150000   2.431434e-04  1.541678e-07
    171    186   2   0.50000     0.6250000   -0.1150000   1.692561e-03  3.993218e-06
    171    197   2   0.50000     0.6250000    0.1150000   3.510079e-04  2.623353e-07
    174    186   2   0.50000    -0.1150000   -0.1150000   1.172438e-03  2.346713e-06
    174    197   2   0.50000    -0.1150000    0.1150000   2.431434e-04  1.541678e-07
    173    176   2   0.50000    -0.1150000   -0.1150000   1.172438e-03  2.346713e-06
    173    185   2   0.50000    -0.1150000    0.0000000   1.172438e-03  2.346713e-06
    188    176   2   0.50000     0.1150000   -0.1150000   2.431434e-04  1.541678e-07
    188    185   2   0.50000     0.1150000    0.0000000   2.431434e-04  1.541678e-07
    174    177   2   0.50000    -0.1150000   -0.1150000   1.172438e-03  2.346713e-06
    174    189   2   0.50000    -0.1150000    0.1150000   2.431434e-04  1.541678e-07
    185    177   2   0.50000     0.0000000   -0.1150000   1.172438e-03  2.346713e-06
    185    189   2   0.50000     0.0000000    0.1150000   2.431434e-04  1.541678e-07
    174    184   2   0.50000    -0.1150000   -0.1150000   1.172438e-03  2.346713e-06
    176    184   2   0.50000    -0.1150000   -0.1150000   1.172438e-03  2.346713e-06
    176    186   2   0.50000    -0.1150000   -0.1150000   1.172438e-03  2.346713e-06
    175    178   2   0.50000     0.0000000   -0.1150000   1.172438e-03  2.346713e-06
    175    190   2   0.50000     0.0000000    0.1150000   2.431434e-04  1.541678e-07
    189    178   2   0.50000     0.1150000   -0.1150000   2.431434e-04  1.541678e-07
    189    190   2   0.50000     0.1150000    0.1150000   5.042375e-05  1.012808e-08
    176    179   2   0.50000    -0.1150000    0.6250000   1.692561e-03  3.993218e-06
    190    179   2   0.50000     0.1150000    0.6250000   3.510079e-04  2.623353e-07
    190    184   2   0.50000     0.1150000   -0.1150000   2.431434e-04  1.541678e-07
    177    180   2   0.50000    -0.1150000   -0.3300000   1.102666e-03  1.331965e-06
    177    183   2   0.50000    -0.1150000   -0.4300000   1.177174e-03  1.365843e-06
    184    180   2   0.50000    -0.1150000   -0.3300000   1.102666e-03  1.331965e-06
    184    183   2   0.50000    -0.1150000   -0.4300000   1.177174e-03  1.365843e-06
    177    195   2   0.50000    -0.1150000    0.1150000   2.431434e-04  1.541678e-07
    179    185   2   0.50000     0.6250000    0.0000000   1.692561e-03  3.993218e-06
    179    195   2   0.50000     0.6250000    0.1150000   3.510079e-04  2.623353e-07
    178    181   2   0.50000    -0.1150000    0.1900000   1.091018e-03  2.092768e-06
    183    181   2   0.50000    -0.4300000    0.1900000   1.095425e-03  1.218041e-06
    179    182   2   0.50000     0.6250000    0.1900000   1.575021e-03  3.561100e-06
    179    191   2   0.50000     0.6250000    0.0300000   2.482000e-04  1.854991e-07
    179    192   2   0.50000     0.6250000    0.0300000   2.482000e-04  1.854991e-07
    180    193   2   0.50000    -0.3300000    0.0300000   1.616969e-04  6.187447e-08
    180    194   2   0.50000    -0.3300000    0.0300000   1.616969e-04  6.187447e-08
    180    200   2   0.50000    -0.3300000   -0.3300000   1.037046e-03  7.560067e-07
    191    193   2   0.50000     0.0300000    0.0300000   2.521187e-05  5.064042e-09
    191    194   2   0.50000     0.0300000    0.0300000   2.521187e-05  5.064042e-09
    191    200   2   0.50000     0.0300000   -0.3300000   1.616969e-04  6.187447e-08
    192    193   2   0.50000     0.0300000    0.0300000   2.521187e-05  5.064042e-09
    192    194   2   0.50000     0.0300000    0.0300000   2.521187e-05  5.064042e-09
    192    200   2   0.50000     0.0300000   -0.3300000   1.616969e-04  6.187447e-08
    181    199   2   0.50000     0.1900000    0.6250000   1.575021e-03  3.561100e-06
    193    199   2   0.50000     0.0300000    0.6250000   2.482000e-04  1.854991e-07
    194    199   2   0.50000     0.0300000    0.6250000   2.482000e-04  1.854991e-07
    178    186   2   0.50000    -0.1150000   -0.1150000   1.172438e-03  2.346713e-06
    195    175   2   0.50000     0.1150000    0.0000000   2.431434e-04  1.541678e-07
    195    186   2   0.50000     0.1150000   -0.1150000   2.431434e-04  1.541678e-07
    175    196   2   0.50000     0.0000000    0.1150000   2.431434e-04  1.541678e-07
    184    187   2   0.50000    -0.1150000   -0.1150000   1.172438e-03  2.346713e-06
    184    196   2   0.50000    -0.1150000    0.1150000   2.431434e-04  1.541678e-07
    185    197   2   0.50000     0.0000000    0.1150000   2.431434e-04  1.541678e-07
    196    173   2   0.50000     0.1150000   -0.1150000   2.431434e-04  1.541678e-07
    196    197   2   0.50000     0.1150000    0.1150000   5.042375e-05  1.012808e-08
    198    182   2   0.50000    -0.4300000    0.1900000   1.095425e-03  1.218041e-06
    201    182   2   0.50000    -0.1150000    0.1900000   1.091018e-03  2.092768e-06
    198    202   2   0.50000    -0.4300000   -0.1150000   1.177174e-03  1.365843e-06
    198    215   2   0.50000    -0.4300000   -0.1150000   1.177174e-03  1.365843e-06
    200    202   2   0.50000    -0.3300000   -0.1150000   1.102666e-03  1.331965e-06
    200    215   2   0.50000    -0.3300000   -0.1150000   1.102666e-03  1.331965e-06
    199    203   2   0.50000     0.6250000    0.0000000   1.692561e-03  3.993218e-06
    199    216   2   0.50000     0.6250000    0.1150000   3.510079e-04  2.623353e-07
    215    203   2   0.50000    -0.1150000    0.0000000   1.172438e-03  2.346713e-06
    215    216   2   0.50000    -0.1150000    0.1150000   2.431434e-04  1.541678e-07
    199    214   2   0.50000     0.6250000   -0.1150000   1.692561e-03  3.993218e-06
    199    225   2   0.50000     0.6250000    0.1150000   3.510079e-04  2.623353e-07
    202    214   2   0.50000    -0.1150000   -0.1150000   1.172438e-03  2.346713e-06
    202    225   2   0.50000    -0.1150000    0.1150000   2.431434e-04  1.541678e-07
    201    204   2   0.50000    -0.1150000   -0.1150000   1.172438e-03  2.346713e-06
    201    213   2   0.50000    -0.1150000    0.0000000   1.172438e-03  2.346713e-06
    216    204   2   0.50000     0.1150000   -0.1150000   2.431434e-04  1.541678e-07
    216    213   2   0.50000     0.1150000    0.0000000   2.431434e-04  1.541678e-07
    202    205   2   0.50000    -0.1150000   -0.1150000   1.172438e-03  2.346713e-06
    202    217   2   0.50000    -0.1150000    0.1150000   2.431434e-04  1.541678e-07
    213    205   2   0.50000     0.0000000   -0.1150000   1.172438e-03  2.346713e-06
    213    217   2   0.50000     0.0000000    0.1150000   2.431434e-04  1.541678e-07
    202    212   2   0.50000    -0.1150000   -0.1150000   1.172438e-03  2.346713e-06
    204    212   2   0.50000    -0.1150000   -0.1150000   1.172438e-03  2.346713e-06
    204    214   2   0.50000    -0.1150000   -0.1150000   1.172438e-03  2.346713e-06
    203    206   2   0.50000     0.0000000   -0.1150000   1.172438e-03  2.346713e-06
    203    218   2   0.50000     0.0000000    0.1150000   2.431434e-04  1.541678e-07
    217    206   2   0.50000     0.1150000   -0.1150000   2.431434e-04  1.541678e-07
    217    218   2   0.50000     0.1150000    0.1150000   5.042375e-05  1.012808e-08
    204    207   2   0.50000    -0.1150000    0.6250000   1.692561e-03  3.993218e-06
    218    207   2   0.50000     0.1150000    0.6250000   3.510079e-04  2.623353e-07
    218    212   2   0.50000     0.1150000   -0.1150000   2.431434e-04  1.541678e-07
    205    208   2   0.50000    -0.1150000   -0.3300000   1.102666e-03  1.331965e-06
    205    211   2   0.50000    -0.1150000   -0.4300000   1.177174e-03  1.365843e-06
    212    208   2   0.50000    -0.1150000   -0.3300000   1.102666e-03  1.331965e-06
    212    211   2   0.50000    -0.1150000   -0.4300000   1.177174e-03  1.365843e-06
    205    223   2   0.50000    -0.1150000    0.1150000   2.431434e-04  1.541678e-07
    207    213   2   0.50000     0.6250000    0.0000000   1.692561e-03  3.993218e-06
    207    223   2   0.50000     0.6250000    0.1150000   3.510079e-04  2.623353e-07
    206    209   2   0.50000    -0.1150000    0.1900000   1.091018e-03  2.092768e-06
    211    209   2   0.50000    -0.4300000    0.1900000   1.095425e-03  1.218041e-06
    207    210   2   0.50000     0.6250000    0.1900000   1.575021e-03  3.561100e-06
    207    219   2   0.50000     0.6250000    0.0300000   2.482000e-04  1.854991e-07
    207    220   2   0.50000     0.6250000    0.0300000   2.482000e-04  1.854991e-07
    208    221   2   0.50000    -0.3300000    0.0300000   1.616969e-04  6.187447e-08
    208    222   2   0.50000    -0.3300000    0.0300000   1.616969e-04  6.187447e-08
    208    228   2   0.50000    -0.3300000   -0.3300000   1.037046e-03  7.560067e-07
    219    221   2   0.50000     0.0300000    0.0300000   2.521187e-05  5.064042e-09
    219    222   2   0.50000     0.0300000    0.0300000   2.521187e-05  5.064042e-09
    219    228   2   0.50000     0.0300000   -0.3300000   1.616969e-04  6.187447e-08
    220    221   2   0.50000     0.0300000    0.0300000   2.521187e-05  5.064042e-09
    220    222   2   0.50000     0.0300000    0.0300000   2.521187e-05  5.064042e-09
    220    228   2   0.50000     0.0300000   -0.3300000   1.616969e-04  6.187447e-08
    209    227   2   0.50000     0.1900000    0.6250000   1.575021e-03  3.561100e-06
    221    227   2   0.50000     0.0300000    0.6250000   2.482000e-04  1.854991e-07
    222    227   2   0.50000     0.0300000    0.6250000   2.482000e-04  1.854991e-07
    206    214   2   0.50000    -0.1150000   -0.1150000   1.172438e-03  2.346713e-06
    223    203   2   0.50000     0.1150000    0.0000000   2.431434e-04  1.541678e-07
    223    214   2   0.50000     0.1150000   -0.1150000   2.431434e-04  1.541678e-07
    203    224   2   0.50000     0.0000000    0.1150000   2.431434e-04  1.541678e-07
    212    215   2   0.50000    -0.1150000   -0.1150000   1.172438e-03  2.346713e-06
    212    224   2   0.50000    -0.1150000    0.1150000   2.431434e-04  1.541678e-07
    213    225   2   0.50000     0.0000000    0.1150000   2.431434e-04  1.541678e-07
    224    201   2   0.50000     0.1150000   -0.1150000   2.431434e-04  1.541678e-07
    224    225   2   0.50000     0.1150000    0.1150000   5.042375e-05  1.012808e-08
    226    210   2   0.50000    -0.4300000    0.1900000   1.095425e-03  1.218041e-06
    229    210   2   0.50000    -0.1150000    0.1900000   1.091018e-03  2.092768e-06
    226    230   2   0.50000    -0.4300000   -0.1150000   1.177174e-03  1.365843e-06
    226    243   2   0.50000    -0.4300000   -0.1150000   1.177174e-03  1.365843e-06
    228    230   2   0.50000    -0.3300000   -0.1150000   1.102666e-03  1.331965e-06
    228    243   2   0.50000    -0.3300000   -0.1150000   1.102666e-03  1.331965e-06
    227    231   2   0.50000     0.6250000    0.0000000   1.692561e-03  3.993218e-06
    227    244   2   0.50000     0.6250000    0.1150000   3.510079e-04  2.623353e-07
    243    231   2   0.50000    -0.1150000    0.0000000   1.172438e-03  2.346713e-06
    243    244   2   0.50000    -0.1150000    0.1150000   2.431434e-04  1.541678e-07
    227    242   2   0.50000     0.6250000   -0.1150000   1.692561e-03  3.993218e-06
    227    253   2   0.50000     0.6250000    0.1150000   3.510079e-04  2.623353e-07
    230    242   2   0.50000    -0.1150000   -0.1150000   1.172438e-03  2.346713e-06
    230    253   2   0.50000    -0.1150000    0.1150000   2.431434e-04  1.541678e-07
    229    232   2   0.50000    -0.1150000   -0.1150000   1.172438e-03  2.346713e-06
    229    241   2   0.50000    -0.1150000    0.0000000   1.172438e-03  2.346713e-06
    244    232   2   0.50000     0.1150000   -0.1150000   2.431434e-04  1.541678e-07
    244    241   2   0.50000     0.1150000    0.0000000   2.431434e-04  1.541678e-07
    230    233   2   0.50000    -0.1150000   -0.1150000   1.172438e-03  2.346713e-06
    230    245   2   0.50000    -0.1150000    0.1150000   2.431434e-04  1.541678e-07
    241    233   2   0.50000     0.0000000   -0.1150000   1.172438e-03  2.346713e-06
    241    245   2   0.50000     0.0000000    0.1150000   2.431434e-04  1.541678e-07
    230    240   2   0.50000    -0.1150000   -0.1150000   1.172438e-03  2.346713e-06
    232    240   2   0.50000    -0.1150000   -0.1150000   1.172438e-03  2.346713e-06
    232    242   2   0.50000    -0.1150000   -0.1150000   1.172438e-03  2.346713e-06
    231    234   2   0.50000     0.0000000   -0.1150000   1.172438e-03  2.346713e-06
    231    246   2   0.50000     0.0000000    0.1150000   2.431434e-04  1.541678e-07
    245    234   2   0.50000     0.1150000   -0.1150000   2.431434e-04  1.541678e-07
    245    246   2   0.50000     0.1150000    0.1150000   5.042375e-05  1.012808e-08
    232    235   2   0.50000    -0.1150000    0.6250000   1.692561e-03  3.993218e-06
    246    235   2   0.50000     0.1150000    0.6250000   3.510079e-04  2.623353e-07
    246    240   2   0.50000     0.1150000   -0.1150000   2.431434e-04  1.541678e-07
    233    236   2   0.50000    -0.1150000   -0.3300000   1.102666e-03  1.331965e-06
    233    239   2   0.50000    -0.1150000   -0.4300000   1.177174e-03  1.365843e-06
    240    236   2   0.50000    -0.1150000   -0.3300000   1.102666e-03  1.331965e-06
    240    239   2   0.50000    -0.1150000   -0.4300000   1.177174e-03  1.365843e-06
    233    251   2   0.50000    -0.1150000    0.1150000   2.431434e-04  1.541678e-07
    235    241   2   0.50000     0.6250000    0.0000000   1.692561e-03  3.993218e-06
    235    251   2   0.50000     0.6250000    0.1150000   3.510079e-04  2.623353e-07
    234    237   2   0.50000    -0.1150000    0.1900000   1.091018e-03  2.092768e-06
    239    237   2   0.50000    -0.4300000    0.1900000   1.095425e-03  1.218041e-06
    235    238   2   0.50000     0.6250000    0.1900000   1.575021e-03  3.561100e-06
    235    247   2   0.50000     0.6250000    0.0300000   2.482000e-04  1.854991e-07
    235    248   2   0.50000     0.6250000    0.0300000   2.482000e-04  1.854991e-07
    236    249   2   0.50000    -0.3300000    0.0300000   1.616969e-04  6.187447e-08
    236    250   2   0.50000    -0.3300000    0.0300000   1.616969e-04  6.187447e-08
    236    256   2   0.50000    -0.3300000   -0.3300000   1.037046e-03  7.560067e-07
    247    249   2   0.50000     0.0300000    0.0300000   2.521187e-05  5.064042e-09
    247    250   2   0.50000     0.0300000    0.0300000   2.521187e-05  5.064042e-09
    247    256   2   0.50000     0.0300000   -0.3300000   1.616969e-04  6.187447e-08
    248    249   2   0.50000     0.0300000    0.0300000   2.521187e-05  5.064042e-09
    248    250   2   0.50000     0.0300000    0.0300000   2.521187e-05  5.064042e-09
    248    256   2   0.50000     0.0300000   -0.3300000   1.616969e-04  6.187447e-08
    237    255   2   0.50000     0.1900000    0.6250000   1.575021e-03  3.561100e-06
    249    255   2   0.50000     0.0300000    0.6250000   2.482000e-04  1.854991e-07
    250    255   2   0.50000     0.0300000    0.6250000   2.482000e-04  1.854991e-07
    234    242   2   0.50000    -0.1150000   -0.1150000   1.172438e-03  2.346713e-06
    251    231   2   0.50000     0.1150000    0.0000000   2.431434e-04  1.541678e-07
    251    242   2   0.50000     0.1150000   -0.1150000   2.431434e-04  1.541678e-07
    231    252   2   0.50000     0.0000000    0.1150000   2.431434e-04  1.541678e-07
    240    243   2   0.50000    -0.1150000   -0.1150000   1.172438e-03  2.346713e-06
    240    252   2   0.50000    -0.1150000    0.1150000   2.431434e-04  1.541678e-07
    241    253   2   0.50000     0.0000000    0.1150000   2.431434e-04  1.541678e-07
    252    229   2   0.50000     0.1150000   -0.1150000   2.431434e-04  1.541678e-07
    252    253   2   0.50000     0.1150000    0.1150000   5.042375e-05  1.012808e-08
    254    238   2   0.50000    -0.4300000    0.1900000   1.095425e-03  1.218041e-06
    257    238   2   0.50000    -0.1150000    0.1900000   1.091018e-03  2.092768e-06
    254    258   2   0.50000    -0.4300000   -0.1150000   1.177174e-03  1.365843e-06
    254    271   2   0.50000    -0.4300000   -0.1150000   1.177174e-03  1.365843e-06
    256    258   2   0.50000    -0.3300000   -0.1150000   1.102666e-03  1.331965e-06
    256    271   2   0.50000    -0.3300000   -0.1150000   1.102666e-03  1.331965e-06
    255    259   2   0.50000     0.6250000    0.0000000   1.692561e-03  3.993218e-06
    255    272   2   0.50000     0.6250000    0.1150000   3.510079e-04  2.623353e-07
    271    259   2   0.50000    -0.1150000    0.0000000   1.172438e-03  2.346713e-06
    271    272   2   0.50000    -0.1150000    0.1150000   2.431434e-04  1.541678e-07
    255    270   2   0.50000     0.6250000   -0.1150000   1.692561e-03  3.993218e-06
    255    281   2   0.50000     0.6250000    0.1150000   3.510079e-04  2.623353e-07
    258    270   2   0.50000    -0.1150000   -0.1150000   1.172438e-03  2.346713e-06
    258    281   2   0.50000    -0.1150000    0.1150000   2.431434e-04  1.541678e-07
    257    260   2   0.50000    -0.1150000   -0.1150000   1.172438e-03  2.346713e-06
    257    269   2   0.50000    -0.1150000    0.0000000   1.172438e-03  2.346713e-06
    272    260   2   0.50000     0.1150000   -0.1150000   2.431434e-04  1.541678e-07
    272    269   2   0.50000     0.1150000    0.0000000   2.431434e-04  1.541678e-07
    258    261   2   0.50000    -0.1150000   -0.1150000   1.172438e-03  2.346713e-06
    258    273   2   0.50000    -0.1150000    0.1150000   2.431434e-04  1.541678e-07
    269    261   2   0.50000     0.0000000   -0.1150000   1.172438e-03  2.346713e-06
    269    273   2   0.50000     0.0000000    0.1150000   2.431434e-04  1.541678e-07
    258    268   2   0.50000    -0.1150000   -0.1150000   1.172438e-03  2.346713e-06
    260    268   2   0.50000    -0.1150000   -0.1150000   1.172438e-03  2.346713e-06
    260    270   2   0.50000    -0.1150000   -0.1150000   1.172438e-03  2.346713e-06
    259    262   2   0.50000     0.0000000   -0.1150000   1.172438e-03  2.346713e-06
    259    274   2   0.50000     0.0000000    0.1150000   2.431434e-04  1.541678e-07
    273    262   2   0.50000     0.1150000   -0.1150000   2.431434e-04  1.541678e-07
    273    274   2   0.50000     0.1150000    0.1150000   5.042375e-05  1.012808e-08
    260    263   2   0.50000    -0.1150000    0.6250000   1.692561e-03  3.993218e-06
    274    263   2   0.50000     0.1150000    0.6250000   3.510079e-04  2.623353e-07
    274    268   2   0.50000     0.1150000   -0.1150000   2.431434e-04  1.541678e-07
    261    264   2   0.50000    -0.1150000   -0.3300000   1.102666e-03  1.331965e-06
    261    267   2   0.50000    -0.1150000   -0.4300000   1.177174e-03  1.365843e-06
    268    264   2   0.50000    -0.1150000   -0.3300000   1.102666e-03  1.331965e-06
    268    267   2   0.50000    -0.1150000   -0.4300000   1.177174e-03  1.365843e-06
    261    279   2   0.50000    -0.1150000    0.1150000   2.431434e-04  1.541678e-07
    263    269   2   0.50000     0.6250000    0.0000000   1.692561e-03  3.993218e-06
    263    279   2   0.50000     0.6250000    0.1150000   3.510079e-04  2.623353e-07
    262    265   2   0.50000    -0.1150000    0.1900000   1.091018e-03  2.092768e-06
    267    265   2   0.50000    -0.4300000    0.1900000   1.095425e-03  1.218041e-06
    263    266   2   0.50000     0.6250000    0.1900000   1.575021e-03  3.561100e-06
    263    275   2   0.50000     0.6250000    0.0300000   2.482000e-04  1.854991e-07
    263    276   2   0.50000     0.6250000    0.0300000   2.482000e-04  1.854991e-07
    264    277   2   0.50000    -0.3300000    0.0300000   1.616969e-04  6.187447e-08
    264    278   2   0.50000    -0.3300000    0.0300000   1.616969e-04  6.187447e-08
    264    284   2   0.50000    -0.3300000   -0.3300000   1.037046e-03  7.560067e-07
    275    277   2   0.50000     0.0300000    0.0300000   2.521187e-05  5.064042e-09
    275    278   2   0.50000     0.0300000    0.0300000   2.521187e-05  5.064042e-09
    275    284   2   0.50000     0.0300000   -0.3300000   1.616969e-04  6.187447e-08
    276    277   2   0.50000     0.0300000    0.0300000   2.521187e-05  5.064042e-09
    276    278   2   0.50000     0.0300000    0.0300000   2.521187e-05  5.064042e-09
    276    284   2   0.50000     0.0300000   -0.3300000   1.616969e-04  6.187447e-08
    265    283   2   0.50000     0.1900000    0.6250000   1.575021e-03  3.561100e-06
    277    283   2   0.50000     0.0300000    0.6250000   2.482000e-04  1.854991e-07
    278    283   2   0.50000     0.0300000    0.6250000   2.482000e-04  1.854991e-07
    262    270   2   0.50000    -0.1150000   -0.1150000   1.172438e-03  2.346713e-06
    279    259   2   0.50000     0.1150000    0.0000000   2.431434e-04  1.541678e-07
    279    270   2   0.50000     0.1150000   -0.1150000   2.431434e-04  1.541678e-07
    259    280   2   0.50000     0.0000000    0.1150000   2.431434e-04  1.541678e-07
    268    271   2   0.50000    -0.1150000   -0.1150000   1.172438e-03  2.346713e-06
    268    280   2   0.50000    -0.1150000    0.1150000   2.431434e-04  1.541678e-07
    269    281   2   0.50000     0.0000000    0.1150000   2.431434e-04  1.541678e-07
    280    257   2   0.50000     0.1150000   -0.1150000   2.431434e-04  1.541678e-07
    280    281   2   0.50000     0.1150000    0.1150000   5.042375e-05  1.012808e-08
    282    266   2   0.50000    -0.4300000    0.1900000   1.095425e-03  1.218041e-06
    285    266   2   0.50000    -0.1150000    0.1900000   1.091018e-03  2.092768e-06
    282    286   2   0.50000    -0.4300000   -0.1150000   1.177174e-03  1.365843e-06
    282    299   2   0.50000    -0.4300000   -0.1150000   1.177174e-03  1.365843e-06
    284    286   2   0.50000    -0.3300000   -0.1150000   1.102666e-03  1.331965e-06
    284    299   2   0.50000    -0.3300000   -0.1150000   1.102666e-03  1.331965e-06
    283    287   2   0.50000     0.6250000    0.0000000   1.692561e-03  3.993218e-06
    283    300   2   0.50000     0.6250000    0.1150000   3.510079e-04  2.623353e-07
    299    287   2   0.50000    -0.1150000    0.0000000   1.172438e-03  2.346713e-06
    299    300   2   0.50000    -0.1150000    0.1150000   2.431434e-04  1.541678e-07
    283    298   2   0.50000     0.6250000   -0.1150000   1.692561e-03  3.993218e-06
    283    309   2   0.50000     0.6250000    0.1150000   3.510079e-04  2.623353e-07
    286    298   2   0.50000    -0.1150000   -0.1150000   1.172438e-03  2.346713e-06
    286    309   2   0.50000    -0.1150000    0.1150000   2.431434e-04  1.541678e-07
    285    288   2   0.50000    -0.1150000   -0.1150000   1.172438e-03  2.346713e-06
    285    297   2   0.50000    -0.1150000    0.0000000   1.172438e-03  2.346713e-06
    300    288   2   0.50000     0.1150000   -0.1150000   2.431434e-04  1.541678e-07
    300    297   2   0.50000     0.1150000    0.0000000   2.431434e-04  1.541678e-07
    286    289   2   0.50000    -0.1150000   -0.1150000   1.172438e-03  2.346713e-06
    286    301   2   0.50000    -0.1150000    0.1150000   2.431434e-04  1.541678e-07
    297    289   2   0.50000     0.0000000   -0.1150000   1.172438e-03  2.346713e-06
    297    301   2   0.50000     0.0000000    0.1150000   2.431434e-04  1.541678e-07
    286    296   2   0.50000    -0.1150000   -0.1150000   1.172438e-03  2.346713e-06
    288    296   2   0.50000    -0.1150000   -0.1150000   1.172438e-03  2.346713e-06
    288    298   2   0.50000    -0.1150000   -0.1150000   1.172438e-03  2.346713e-06
    287    290   2   0.50000     0.0000000   -0.1150000   1.172438e-03  2.346713e-06
    287    302   2   0.50000     0.0000000    0.1150000   2.431434e-04  1.541678e-07
    301    290   2   0.50000     0.1150000   -0.1150000   2.431434e-04  1.541678e-07
    301    302   2   0.50000     0.1150000    0.1150000   5.042375e-05  1.012808e-08
    288    291   2   0.50000    -0.1150000    0.6250000   1.692561e-03  3.993218e-06
    302    291   2   0.50000     0.1150000    0.6250000   3.510079e-04  2.623353e-07
    302    296   2   0.50000     0.1150000   -0.1150000   2.431434e-04  1.541678e-07
    289    292   2   0.50000    -0.1150000   -0.3300000   1.102666e-03  1.331965e-06
    289    295   2   0.50000    -0.1150000   -0.4300000   1.177174e-03  1.365843e-06
    296    292   2   0.50000    -0.1150000   -0.3300000   1.102666e-03  1.331965e-06
    296    295   2   0.50000    -0.1150000   -0.4300000   1.177174e-03  1.365843e-06
    289    307   2   0.50000    -0.1150000    0.1150000   2.431434e-04  1.541678e-07
    291    297   2   0.50000     0.6250000    0.0000000   1.692561e-03  3.993218e-06
    291    307   2   0.50000     0.6250000    0.1150000   3.510079e-04  2.623353e-07
    290    293   2   0.50000    -0.1150000    0.1900000   1.091018e-03  2.092768e-06
    295    293   2   0.50000    -0.4300000    0.1900000   1.095425e-03  1.218041e-06
    291    294   2   0.50000     0.6250000    0.1900000   1.575021e-03  3.561100e-06
    291    303   2   0.50000     0.6250000    0.0300000   2.482000e-04  1.854991e-07
    291    304   2   0.50000     0.6250000    0.0300000   2.482000e-04  1.854991e-07
    292    305   2   0.50000    -0.3300000    0.0300000   1.616969e-04  6.187447e-08
    292    306   2   0.50000    -0.3300000    0.0300000   1.616969e-04  6.187447e-08
    292    312   2   0.50000    -0.3300000   -0.3300000   1.037046e-03  7.560067e-07
    303    305   2   0.50000     0.0300000    0.0300000   2.521187e-05  5.064042e-09
    303    306   2   0.50000     0.0300000    0.0300000   2.521187e-05  5.064042e-09
    303    312   2   0.50000     0.0300000   -0.3300000   1.616969e-04  6.187447e-08
    304    305   2   0.50000     0.0300000    0.0300000   2.521187e-05  5.064042e-09
    304    306   2   0.50000     0.0300000    0.0300000   2.521187e-05  5.064042e-09
    304    312   2   0.50000     0.0300000   -0.3300000   1.616969e-04  6.187447e-08
    293    311   2   0.50000     0.1900000    0.6250000   1.575021e-03  3.561100e-06
    305    311   2   0.50000     0.0300000    0.6250000   2.482000e-04  1.854991e-07
    306    311   2   0.50000     0.0300000    0.6250000   2.482000e-04  1.854991e-07
    290    298   2   0.50000    -0.1150000   -0.1150000   1.172438e-03  2.346713e-06
    307    287   2   0.50000     0.1150000    0.0000000   2.431434e-04  1.541678e-07
    307    298   2   0.50000     0.1150000   -0.1150000   2.431434e-04  1.541678e-07
    287    308   2   0.50000     0.0000000    0.1150000   2.431434e-04  1.541678e-07
    296    299   2   0.50000    -0.1150000   -0.1150000   1.172438e-03  2.346713e-06
    296    308   2   0.50000    -0.1150000    0.1150000   2.431434e-04  1.541678e-07
    297    309   2   0.50000     0.0000000    0.1150000   2.431434e-04  1.541678e-07
    308    285   2   0.50000     0.1150000   -0.1150000   2.431434e-04  1.541678e-07
    308    309   2   0.50000     0.1150000    0.1150000   5.042375e-05  1.012808e-08
    310    294   2   0.50000    -0.4300000    0.1900000   1.095425e-03  1.218041e-06
    313    294   2   0.50000    -0.1150000    0.1900000   1.091018e-03  2.092768e-06
    310    314   2   0.50000    -0.4300000   -0.1150000   1.177174e-03  1.365843e-06
    310    327   2   0.50000    -0.4300000   -0.1150000   1.177174e-03  1.365843e-06
    312    314   2   0.50000    -0.3300000   -0.1150000   1.102666e-03  1.331965e-06
    312    327   2   0.50000    -0.3300000   -0.1150000   1.102666e-03  1.331965e-06
    311    315   2   0.50000     0.6250000    0.0000000   1.692561e-03  3.993218e-06
    311    328   2   0.50000     0.6250000    0.1150000   3.510079e-04  2.623353e-07
    327    315   2   0.50000    -0.1150000    0.0000000   1.172438e-03  2.346713e-06
    327    328   2   0.50000    -0.1150000    0.1150000   2.431434e-04  1.541678e-07
    311    326   2   0.50000     0.6250000   -0.1150000   1.692561e-03  3.993218e-06
    311    337   2   0.50000     0.6250000    0.1150000   3.510079e-04  2.623353e-07
    314    326   2   0.50000    -0.1150000   -0.1150000   1.172438e-03  2.346713e-06
    314    337   2   0.50000    -0.1150000    0.1150000   2.431434e-04  1.541678e-07
    313    316   2   0.50000    -0.1150000   -0.1150000   1.172438e-03  2.346713e-06
    313    325   2   0.50000    -0.1150000    0.0000000   1.172438e-03  2.346713e-06
    328    316   2   0.50000     0.1150000   -0.1150000   2.431434e-04  1.541678e-07
    328    325   2   0.50000     0.1150000    0.0000000   2.431434e-04  1.541678e-07
    314    317   2   0.50000    -0.1150000   -0.1150000   1.172438e-03  2.346713e-06
    314    329   2   0.50000    -0.1150000    0.1150000   2.431434e-04  1.541678e-07
    325    317   2   0.50000     0.0000000   -0.1150000   1.172438e-03  2.346713e-06
    325    329   2   0.50000     0.0000000    0.1150000   2.431434e-04  1.541678e-07
    314    324   2   0.50000    -0.1150000   -0.1150000   1.172438e-03  2.346713e-06
    316    324   2   0.50000    -0.1150000   -0.1150000   1.172438e-03  2.346713e-06
    316    326   2   0.50000    -0.1150000   -0.1150000   1.172438e-03  2.346713e-06
    315    318   2   0.50000     0.0000000   -0.1150000   1.172438e-03  2.346713e-06
    315    330   2   0.50000     0.0000000    0.1150000   2.431434e-04  1.541678e-07
    329    318   2   0.50000     0.1150000   -0.1150000   2.431434e-04  1.541678e-07
    329    330   2   0.50000     0.1150000    0.1150000   5.042375e-05  1.012808e-08
    316    319   2   0.50000    -0.1150000    0.6250000   1.692561e-03  3.993218e-06
    330    319   2   0.50000     0.1150000    0.6250000   3.510079e-04  2.623353e-07
    330    324   2   0.50000     0.1150000   -0.1150000   2.431434e-04  1.541678e-07
    317    320   2   0.50000    -0.1150000   -0.3300000   1.102666e-03  1.331965e-06
    317    323   2   0.50000    -0.1150000   -0.4300000   1.177174e-03  1.365843e-06
    324    320   2   0.50000    -0.1150000   -0.3300000   1.102666e-03  1.331965e-06
    324    323   2   0.50000    -0.1150000   -0.4300000   1.177174e-03  1.365843e-06
    317    335   2   0.50000    -0.1150000    0.1150000   2.431434e-04  1.541678e-07
    319    325   2   0.50000     0.6250000    0.0000000   1.692561e-03  3.993218e-06
    319    335   2   0.50000     0.6250000    0.1150000   3.510079e-04  2.623353e-07
    318    321   2   0.50000    -0.1150000    0.1900000   1.091018e-03  2.092768e-06
    323    321   2   0.50000    -0.4300000    0.1900000   1.095425e-03  1.218041e-06
    319    322   2   0.50000     0.6250000    0.1900000   1.575021e-03  3.561100e-06
    319    331   2   0.50000     0.6250000    0.0300000   2.482000e-04  1.854991e-07
    319    332   2   0.50000     0.6250000    0.0300000   2.482000e-04  1.854991e-07
    320    333   2   0.50000    -0.3300000    0.0300000   1.616969e-04  6.187447e-08
    320    334   2   0.50000    -0.3300000    0.0300000   1.616969e-04  6.187447e-08
    320    340   2   0.50000    -0.3300000   -0.3300000   1.037046e-03  7.560067e-07
    331    333   2   0.50000     0.0300000    0.0300000   2.521187e-05  5.064042e-09
    331    334   2   0.50000     0.0300000    0.0300000   2.521187e-05  5.064042e-09
    331    340   2   0.50000     0.0300000   -0.3300000   1.616969e-04  6.187447e-08
    332    333   2   0.50000     0.0300000    0.0300000   2.521187e-05  5.064042e-09
    332    334   2   0.50000     0.0300000    0.0300000   2.521187e-05  5.064042e-09
    332    340   2   0.50000     0.0300000   -0.3300000   1.616969e-04  6.187447e-08
    321    339   2   0.50000     0.1900000    0.6250000   1.575021e-03  3.561100e-06
    333    339   2   0.50000     0.0300000    0.6250000   2.482000e-04  1.854991e-07
    334    339   2   0.50000     0.0300000    0.6250000   2.482000e-04  1.854991e-07
    318    326   2   0.50000    -0.1150000   -0.1150000   1.172438e-03  2.346713e-06
    335    315   2   0.50000     0.1150000    0.0000000   2.431434e-04  1.541678e-07
    335    326   2   0.50000     0.1150000   -0.1150000   2.431434e-04  1.541678e-07
    315    336   2   0.50000     0.0000000    0.1150000   2.431434e-04  1.541678e-07
    324    327   2   0.50000    -0.1150000   -0.1150000   1.172438e-03  2.346713e-06
    324    336   2   0.50000    -0.1150000    0.1150000   2.431434e-04  1.541678e-07
    325    337   2   0.50000     0.0000000    0.1150000   2.431434e-04  1.541678e-07
    336    313   2   0.50000     0.1150000   -0.1150000   2.431434e-04  1.541678e-07
    336    337   2   0.50000     0.1150000    0.1150000   5.042375e-05  1.012808e-08
    338    322   2   0.50000    -0.4300000    0.1900000   1.095425e-03  1.218041e-06
    341    322   2   0.50000    -0.1150000    0.1900000   1.091018e-03  2.092768e-06
    338    342   2   0.50000    -0.4300000   -0.1150000   1.177174e-03  1.365843e-06
    338    355   2   0.50000    -0.4300000   -0.1150000   1.177174e-03  1.365843e-06
    340    342   2   0.50000    -0.3300000   -0.1150000   1.102666e-03  1.331965e-06
    340    355   2   0.50000    -0.3300000   -0.1150000   1.102666e-03  1.331965e-06
    339    343   2   0.50000     0.6250000    0.0000000   1.692561e-03  3.993218e-06
    339    356   2   0.50000     0.6250000    0.1150000   3.510079e-04  2.623353e-07
    355    343   2   0.50000    -0.1150000    0.0000000   1.172438e-03  2.346713e-06
    355    356   2   0.50000    -0.1150000    0.1150000   2.431434e-04  1.541678e-07
    339    354   2   0.50000     0.6250000   -0.1150000   1.692561e-03  3.993218e-06
    339    365   2   0.50000     0.6250000    0.1150000   3.510079e-04  2.623353e-07
    342    354   2   0.50000    -0.1150000   -0.1150000   1.172438e-03  2.346713e-06
    342    365   2   0.50000    -0.1150000    0.1150000   2.431434e-04  1.541678e-07
    341    344   2   0.50000    -0.1150000   -0.1150000   1.172438e-03  2.346713e-06
    341    353   2   0.50000    -0.1150000    0.0000000   1.172438e-03  2.346713e-06
    356    344   2   0.50000     0.1150000   -0.1150000   2.431434e-04  1.541678e-07
    356    353   2   0.50000     0.1150000    0.0000000   2.431434e-04  1.541678e-07
    342    345   2   0.50000    -0.1150000   -0.1150000   1.172438e-03  2.346713e-06
    342    357   2   0.50000    -0.1150000    0.1150000   2.431434e-04  1.541678e-07
    353    345   2   0.50000     0.0000000   -0.1150000   1.172438e-03  2.346713e-06
    353    357   2   0.50000     0.0000000    0.1150000   2.431434e-04  1.541678e-07
    342    352   2   0.50000    -0.1150000   -0.1150000   1.172438e-03  2.346713e-06
    344    352   2   0.50000    -0.1150000   -0.1150000   1.172438e-03  2.346713e-06
    344    354   2   0.50000    -0.1150000   -0.1150000   1.172438e-03  2.346713e-06
    343    346   2   0.50000     0.0000000   -0.1150000   1.172438e-03  2.346713e-06
    343    358   2   0.50000     0.0000000    0.1150000   2.431434e-04  1.541678e-07
    357    346   2   0.50000     0.1150000   -0.1150000   2.431434e-04  1.541678e-07
    357    358   2   0.50000     0.1150000    0.1150000   5.042375e-05  1.012808e-08
    344    347   2   0.50000    -0.1150000    0.6250000   1.692561e-03  3.993218e-06
    358    347   2   0.50000     0.1150000    0.6250000   3.510079e-04  2.623353e-07
    358    352   2   0.50000     0.1150000   -0.1150000   2.431434e-04  1.541678e-07
    345    348   2   0.50000    -0.1150000   -0.3300000   1.102666e-03  1.331965e-06
    345    351   2   0.50000    -0.1150000   -0.4300000   1.177174e-03  1.365843e-06
    352    348   2   0.50000    -0.1150000   -0.3300000   1.102666e-03  1.331965e-06
    352    351   2   0.50000    -0.1150000   -0.4300000   1.177174e-03  1.365843e-06
    345    363   2   0.50000    -0.1150000    0.1150000   2.431434e-04  1.541678e-07
    347    353   2   0.50000     0.6250000    0.0000000   1.692561e-03  3.993218e-06
    347    363   2   0.50000     0.6250000    0.1150000   3.510079e-04  2.623353e-07
    346    349   2   0.50000    -0.1150000    0.1900000   1.091018e-03  2.092768e-06
    351    349   2   0.50000    -0.4300000    0.1900000   1.095425e-03  1.218041e-06
    347    350   2   0.50000     0.6250000    0.1900000   1.575021e-03  3.561100e-06
    347    359   2   0.50000     0.6250000    0.0300000   2.482000e-04  1.854991e-07
    347    360   2   0.50000     0.6250000    0.0300000   2.482000e-04  1.854991e-07
    348    361   2   0.50000    -0.3300000    0.0300000   1.616969e-04  6.187447e-08
    348    362   2   0.50000    -0.3300000    0.0300000   1.616969e-04  6.187447e-08
    348    368   2   0.50000    -0.3300000   -0.3300000   1.037046e-03  7.560067e-07
    359    361   2   0.50000     0.0300000    0.0300000   2.521187e-05  5.064042e-09
    359    362   2   0.50000     0.0300000    0.0300000   2.521187e-05  5.064042e-09
    359    368   2   0.50000     0.0300000   -0.3300000   1.616969e-04  6.187447e-08
    360    361   2   0.50000     0.0300000    0.0300000   2.521187e-05  5.064042e-09
    360    362   2   0.50000     0.0300000    0.0300000   2.521187e-05  5.064042e-09
    360    368   2   0.50000     0.0300000   -0.3300000   1.616969e-04  6.187447e-08
    349    367   2   0.50000     0.1900000    0.6250000   1.575021e-03  3.561100e-06
    361    367   2   0.50000     0.0300000    0.6250000   2.482000e-04  1.854991e-07
    362    367   2   0.50000     0.0300000    0.6250000   2.482000e-04  1.854991e-07
    346    354   2   0.50000    -0.1150000   -0.1150000   1.172438e-03  2.346713e-06
    363    343   2   0.50000     0.1150000    0.0000000   2.431434e-04  1.541678e-07
    363    354   2   0.50000     0.1150000   -0.1150000   2.431434e-04  1.541678e-07
    343    364   2   0.50000     0.0000000    0.1150000   2.431434e-04  1.541678e-07
    352    355   2   0.50000    -0.1150000   -0.1150000   1.172438e-03  2.346713e-06
    352    364   2   0.50000    -0.1150000    0.1150000   2.431434e-04  1.541678e-07
    353    365   2   0.50000     0.0000000    0.1150000   2.431434e-04  1.541678e-07
    364    341   2   0.50000     0.1150000   -0.1150000   2.431434e-04  1.541678e-07
    364    365   2   0.50000     0.1150000    0.1150000   5.042375e-05  1.012808e-08
    366    350   2   0.50000    -0.4300000    0.1900000   1.095425e-03  1.218041e-06
    369    350   2   0.50000    -0.1150000    0.1900000   1.091018e-03  2.092768e-06
    366    370   2   0.50000    -0.4300000   -0.1150000   1.177174e-03  1.365843e-06
    366    383   2   0.50000    -0.4300000   -0.1150000   1.177174e-03  1.365843e-06
    368    370   2   0.50000    -0.3300000   -0.1150000   1.102666e-03  1.331965e-06
    368    383   2   0.50000    -0.3300000   -0.1150000   1.102666e-03  1.331965e-06
    367    371   2   0.50000     0.6250000    0.0000000   1.692561e-03  3.993218e-06
    367    384   2   0.50000     0.6250000    0.1150000   3.510079e-04  2.623353e-07
    383    371   2   0.50000    -0.1150000    0.0000000   1.172438e-03  2.346713e-06
    383    384   2   0.50000    -0.1150000    0.1150000   2.431434e-04  1.541678e-07
    367    382   2   0.50000     0.6250000   -0.1150000   1.692561e-03  3.993218e-06
    367    393   2   0.50000     0.6250000    0.1150000   3.510079e-04  2.623353e-07
    370    382   2   0.50000    -0.1150000   -0.1150000   1.172438e-03  2.346713e-06
    370    393   2   0.50000    -0.1150000    0.1150000   2.431434e-04  1.541678e-07
    369    372   2   0.50000    -0.1150000   -0.1150000   1.172438e-03  2.346713e-06
    369    381   2   0.50000    -0.1150000    0.0000000   1.172438e-03  2.346713e-06
    384    372   2   0.50000     0.1150000   -0.1150000   2.431434e-04  1.541678e-07
    384    381   2   0.50000     0.1150000    0.0000000   2.431434e-04  1.541678e-07
    370    373   2   0.50000    -0.1150000   -0.1150000   1.172438e-03  2.346713e-06
    370    385   2   0.50000    -0.1150000    0.1150000   2.431434e-04  1.541678e-07
    381    373   2   0.50000     0.0000000   -0.1150000   1.172438e-03  2.346713e-06
    381    385   2   0.50000     0.0000000    0.1150000   2.431434e-04  1.541678e-07
    370    380   2   0.50000    -0.1150000   -0.1150000   1.172438e-03  2.346713e-06
    372    380   2   0.50000    -0.1150000   -0.1150000   1.172438e-03  2.346713e-06
    372    382   2   0.50000    -0.1150000   -0.1150000   1.172438e-03  2.346713e-06
    371    374   2   0.50000     0.0000000   -0.1150000   1.172438e-03  2.346713e-06
    371    386   2   0.50000     0.0000000    0.1150000   2.431434e-04  1.541678e-07
    385    374   2   0.50000     0.1150000   -0.1150000   2.431434e-04  1.541678e-07
    385    386   2   0.50000     0.1150000    0.1150000   5.042375e-05  1.012808e-08
    372    375   2   0.50000    -0.1150000    0.6250000   1.692561e-03  3.993218e-06
    386    375   2   0.50000     0.1150000    0.6250000   3.510079e-04  2.623353e-07
    386    380   2   0.50000     0.1150000   -0.1150000   2.431434e-04  1.541678e-07
    373    376   2   0.50000    -0.1150000   -0.3300000   1.102666e-03  1.331965e-06
    373    379   2   0.50000    -0.1150000   -0.4300000   1.177174e-03  1.365843e-06
    380    376   2   0.50000    -0.1150000   -0.3300000   1.102666e-03  1.331965e-06
    380    379   2   0.50000    -0.1150000   -0.4300000   1.177174e-03  1.365843e-06
    373    391   2   0.50000    -0.1150000    0.1150000   2.431434e-04  1.541678e-07
    375    381   2   0.50000     0.6250000    0.0000000   1.692561e-03  3.993218e-06
    375    391   2   0.50000     0.6250000    0.1150000   3.510079e-04  2.623353e-07
    374    377   2   0.50000    -0.1150000    0.1900000   1.091018e-03  2.092768e-06
    379    377   2   0.50000    -0.4300000    0.1900000   1.095425e-03  1.218041e-06
    375    378   2   0.50000     0.6250000    0.1900000   1.575021e-03  3.561100e-06
    375    387   2   0.50000     0.6250000    0.0300000   2.482000e-04  1.854991e-07
    375    388   2   0.50000     0.6250000    0.0300000   2.482000e-04  1.854991e-07
    376    389   2   0.50000    -0.3300000    0.0300000   1.616969e-04  6.187447e-08
    376    390   2   0.50000    -0.3300000    0.0300000   1.616969e-04  6.187447e-08
    376    396   2   0.50000    -0.3300000   -0.3300000   1.037046e-03  7.560067e-07
    387    389   2   0.50000     0.0300000    0.0300000   2.521187e-05  5.064042e-09
    387    390   2   0.50000     0.0300000    0.0300000   2.521187e-05  5.064042e-09
    387    396   2   0.50000     0.0300000   -0.3300000   1.616969e-04  6.187447e-08
    388    389   2   0.50000     0.0300000    0.0300000   2.521187e-05  5.064042e-09
    388    390   2   0.50000     0.0300000    0.0300000   2.521187e-05  5.064042e-09
    388    396   2   0.50000     0.0300000   -0.3300000   1.616969e-04  6.187447e-08
    377    395   2   0.50000     0.1900000    0.6250000   1.575021e-03  3.561100e-06
    389    395   2   0.50000     0.0300000    0.6250000   2.482000e-04  1.854991e-07
    390    395   2   0.50000     0.0300000    0.6250000   2.482000e-04  1.854991e-07
    374    382   2   0.50000    -0.1150000   -0.1150000   1.172438e-03  2.346713e-06
    391    371   2   0.50000     0.1150000    0.0000000   2.431434e-04  1.541678e-07
    391    382   2   0.50000     0.1150000   -0.1150000   2.431434e-04  1.541678e-07
    371    392   2   0.50000     0.0000000    0.1150000   2.431434e-04  1.541678e-07
    380    383   2   0.50000    -0.1150000   -0.1150000   1.172438e-03  2.346713e-06
    380    392   2   0.50000    -0.1150000    0.1150000   2.431434e-04  1.541678e-07
    381    393   2   0.50000     0.0000000    0.1150000   2.431434e-04  1.541678e-07
    392    369   2   0.50000     0.1150000   -0.1150000   2.431434e-04  1.541678e-07
    392    393   2   0.50000     0.1150000    0.1150000   5.042375e-05  1.012808e-08
    394    378   2   0.50000    -0.4300000    0.1900000   1.095425e-03  1.218041e-06
    397    378   2   0.50000    -0.1150000    0.1900000   1.091018e-03  2.092768e-06
    394    398   2   0.50000    -0.4300000   -0.1150000   1.177174e-03  1.365843e-06
    394    411   2   0.50000    -0.4300000   -0.1150000   1.177174e-03  1.365843e-06
    396    398   2   0.50000    -0.3300000   -0.1150000   1.102666e-03  1.331965e-06
    396    411   2   0.50000    -0.3300000   -0.1150000   1.102666e-03  1.331965e-06
    395    399   2   0.50000     0.6250000    0.0000000   1.692561e-03  3.993218e-06
    395    412   2   0.50000     0.6250000    0.1150000   3.510079e-04  2.623353e-07
    411    399   2   0.50000    -0.1150000    0.0000000   1.172438e-03  2.346713e-06
    411    412   2   0.50000    -0.1150000    0.1150000   2.431434e-04  1.541678e-07
    395    410   2   0.50000     0.6250000   -0.1150000   1.692561e-03  3.993218e-06
    395    421   2   0.50000     0.6250000    0.1150000   3.510079e-04  2.623353e-07
    398    410   2   0.50000    -0.1150000   -0.1150000   1.172438e-03  2.346713e-06
    398    421   2   0.50000    -0.1150000    0.1150000   2.431434e-04  1.541678e-07
    397    400   2   0.50000    -0.1150000   -0.1150000   1.172438e-03  2.346713e-06
    397    409   2   0.50000    -0.1150000    0.0000000   1.172438e-03  2.346713e-06
    412    400   2   0.50000     0.1150000   -0.1150000   2.431434e-04  1.541678e-07
    412    409   2   0.50000     0.1150000    0.0000000   2.431434e-04  1.541678e-07
    398    401   2   0.50000    -0.1150000   -0.1150000   1.172438e-03  2.346713e-06
    398    413   2   0.50000    -0.1150000    0.1150000   2.431434e-04  1.541678e-07
    409    401   2   0.50000     0.0000000   -0.1150000   1.172438e-03  2.346713e-06
    409    413   2   0.50000     0.0000000    0.1150000   2.431434e-04  1.541678e-07
    398    408   2   0.50000    -0.1150000   -0.1150000   1.172438e-03  2.346713e-06
    400    408   2   0.50000    -0.1150000   -0.1150000   1.172438e-03  2.346713e-06
    400    410   2   0.50000    -0.1150000   -0.1150000   1.172438e-03  2.346713e-06
    399    402   2   0.50000     0.0000000   -0.1150000   1.172438e-03  2.346713e-06
    399    414   2   0.50000     0.0000000    0.1150000   2.431434e-04  1.541678e-07
    413    402   2   0.50000     0.1150000   -0.1150000   2.431434e-04  1.541678e-07
    413    414   2   0.50000     0.1150000    0.1150000   5.042375e-05  1.012808e-08
    400    403   2   0.50000    -0.1150000    0.6250000   1.692561e-03  3.993218e-06
    414    403   2   0.50000     0.1150000    0.6250000   3.510079e-04  2.623353e-07
    414    408   2   0.50000     0.1150000   -0.1150000   2.431434e-04  1.541678e-07
    401    404   2   0.50000    -0.1150000   -0.3300000   1.102666e-03  1.331965e-06
    401    407   2   0.50000    -0.1150000   -0.4300000   1.177174e-03  1.365843e-06
    408    404   2   0.50000    -0.1150000   -0.3300000   1.102666e-03  1.331965e-06
    408    407   2   0.50000    -0.1150000   -0.4300000   1.177174e-03  1.365843e-06
    401    419   2   0.50000    -0.1150000    0.1150000   2.431434e-04  1.541678e-07
    403    409   2   0.50000     0.6250000    0.0000000   1.692561e-03  3.993218e-06
    403    419   2   0.50000     0.6250000    0.1150000   3.510079e-04  2.623353e-07
    402    405   2   0.50000    -0.1150000    0.1900000   1.091018e-03  2.092768e-06
    407    405   2   0.50000    -0.4300000    0.1900000   1.095425e-03  1.218041e-06
    403    406   2   0.50000     0.6250000    0.1900000   1.575021e-03  3.561100e-06
    403    415   2   0.50000     0.6250000    0.0300000   2.482000e-04  1.854991e-07
    403    416   2   0.50000     0.6250000    0.0300000   2.482000e-04  1.854991e-07
    404    417   2   0.50000    -0.3300000    0.0300000   1.616969e-04  6.187447e-08
    404    418   2   0.50000    -0.3300000    0.0300000   1.616969e-04  6.187447e-08
    404    424   2   0.50000    -0.3300000   -0.3300000   1.037046e-03  7.560067e-07
    415    417   2   0.50000     0.0300000    0.0300000   2.521187e-05  5.064042e-09
    415    418   2   0.50000     0.0300000    0.0300000   2.521187e-05  5.064042e-09
    415    424   2   0.50000     0.0300000   -0.3300000   1.616969e-04  6.187447e-08
    416    417   2   0.50000     0.0300000    0.0300000   2.521187e-05  5.064042e-09
    416    418   2   0.50000     0.0300000    0.0300000   2.521187e-05  5.064042e-09
    416    424   2   0.50000     0.0300000   -0.3300000   1.616969e-04  6.187447e-08
    405    423   2   0.50000     0.1900000    0.6250000   1.575021e-03  3.561100e-06
    417    423   2   0.50000     0.0300000    0.6250000   2.482000e-04  1.854991e-07
    418    423   2   0.50000     0.0300000    0.6250000   2.482000e-04  1.854991e-07
    402    410   2   0.50000    -0.1150000   -0.1150000   1.172438e-03  2.346713e-06
    419    399   2   0.50000     0.1150000    0.0000000   2.431434e-04  1.541678e-07
    419    410   2   0.50000     0.1150000   -0.1150000   2.431434e-04  1.541678e-07
    399    420   2   0.50000     0.0000000    0.1150000   2.431434e-04  1.541678e-07
    408    411   2   0.50000    -0.1150000   -0.1150000   1.172438e-03  2.346713e-06
    408    420   2   0.50000    -0.1150000    0.1150000   2.431434e-04  1.541678e-07
    409    421   2   0.50000     0.0000000    0.1150000   2.431434e-04  1.541678e-07
    420    397   2   0.50000     0.1150000   -0.1150000   2.431434e-04  1.541678e-07
    420    421   2   0.50000     0.1150000    0.1150000   5.042375e-05  1.012808e-08
    422    406   2   0.50000    -0.4300000    0.1900000   1.095425e-03  1.218041e-06
    425    406   2   0.50000    -0.1150000    0.1900000   1.091018e-03  2.092768e-06
    422    426   2   0.50000    -0.4300000   -0.1150000   1.177174e-03  1.365843e-06
    422    439   2   0.50000    -0.4300000   -0.1150000   1.177174e-03  1.365843e-06
    424    426   2   0.50000    -0.3300000   -0.1150000   1.102666e-03  1.331965e-06
    424    439   2   0.50000    -0.3300000   -0.1150000   1.102666e-03  1.331965e-06
    423    427   2   0.50000     0.6250000    0.0000000   1.692561e-03  3.993218e-06
    423    440   2   0.50000     0.6250000    0.1150000   3.510079e-04  2.623353e-07
    439    427   2   0.50000    -0.1150000    0.0000000   1.172438e-03  2.346713e-06
    439    440   2   0.50000    -0.1150000    0.1150000   2.431434e-04  1.541678e-07
    423    438   2   0.50000     0.6250000   -0.1150000   1.692561e-03  3.993218e-06
    423    449   2   0.50000     0.6250000    0.1150000   3.510079e-04  2.623353e-07
    426    438   2   0.50000    -0.1150000   -0.1150000   1.172438e-03  2.346713e-06
    426    449   2   0.50000    -0.1150000    0.1150000   2.431434e-04  1.541678e-07
    425    428   2   0.50000    -0.1150000   -0.1150000   1.172438e-03  2.346713e-06
    425    437   2   0.50000    -0.1150000    0.0000000   1.172438e-03  2.346713e-06
    440    428   2   0.50000     0.1150000   -0.1150000   2.431434e-04  1.541678e-07
    440    437   2   0.50000     0.1150000    0.0000000   2.431434e-04  1.541678e-07
    426    429   2   0.50000    -0.1150000   -0.1150000   1.172438e-03  2.346713e-06
    426    441   2   0.50000    -0.1150000    0.1150000   2.431434e-04  1.541678e-07
    437    429   2   0.50000     0.0000000   -0.1150000   1.172438e-03  2.346713e-06
    437    441   2   0.50000     0.0000000    0.1150000   2.431434e-04  1.541678e-07
    426    436   2   0.50000    -0.1150000   -0.1150000   1.172438e-03  2.346713e-06
    428    436   2   0.50000    -0.1150000   -0.1150000   1.172438e-03  2.346713e-06
    428    438   2   0.50000    -0.1150000   -0.1150000   1.172438e-03  2.346713e-06
    427    430   2   0.50000     0.0000000   -0.1150000   1.172438e-03  2.346713e-06
    427    442   2   0.50000     0.0000000    0.1150000   2.431434e-04  1.541678e-07
    441    430   2   0.50000     0.1150000   -0.1150000   2.431434e-04  1.541678e-07
    441    442   2   0.50000     0.1150000    0.1150000   5.042375e-05  1.012808e-08
    428    431   2   0.50000    -0.1150000    0.6250000   1.692561e-03  3.993218e-06
    442    431   2   0.50000     0.1150000    0.6250000   3.510079e-04  2.623353e-07
    442    436   2   0.50000     0.1150000   -0.1150000   2.431434e-04  1.541678e-07
    429    432   2   0.50000    -0.1150000   -0.3300000   1.102666e-03  1.331965e-06
    429    435   2   0.50000    -0.1150000   -0.4300000   1.177174e-03  1.365843e-06
    436    432   2   0.50000    -0.1150000   -0.3300000   1.102666e-03  1.331965e-06
    436    435   2   0.50000    -0.1150000   -0.4300000   1.177174e-03  1.365843e-06
    429    447   2   0.50000    -0.1150000    0.1150000   2.431434e-04  1.541678e-07
    431    437   2   0.50000     0.6250000    0.0000000   1.692561e-03  3.993218e-06
    431    447   2   0.50000     0.6250000    0.1150000   3.510079e-04  2.623353e-07
    430    433   2   0.50000    -0.1150000    0.1900000   1.091018e-03  2.092768e-06
    435    433   2   0.50000    -0.4300000    0.1900000   1.095425e-03  1.218041e-06
    431    434   2   0.50000     0.6250000    0.1900000   1.575021e-03  3.561100e-06
    431    443   2   0.50000     0.6250000    0.0300000   2.482000e-04  1.854991e-07
    431    444   2   0.50000     0.6250000    0.0300000   2.482000e-04  1.854991e-07
    432    445   2   0.50000    -0.3300000    0.0300000   1.616969e-04  6.187447e-08
    432    446   2   0.50000    -0.3300000    0.0300000   1.616969e-04  6.187447e-08
    432    452   2   0.50000    -0.3300000   -0.3300000   1.037046e-03  7.560067e-07
    443    445   2   0.50000     0.0300000    0.0300000   2.521187e-05  5.064042e-09
    443    446   2   0.50000     0.0300000    0.0300000   2.521187e-05  5.064042e-09
    443    452   2   0.50000     0.0300000   -0.3300000   1.616969e-04  6.187447e-08
    444    445   2   0.50000     0.0300000    0.0300000   2.521187e-05  5.064042e-09
    444    446   2   0.50000     0.0300000    0.0300000   2.521187e-05  5.064042e-09
    444    452   2   0.50000     0.0300000   -0.3300000   1.616969e-04  6.187447e-08
    433    451   2   0.50000     0.1900000    0.6250000   1.575021e-03  3.561100e-06
    445    451   2   0.50000     0.0300000    0.6250000   2.482000e-04  1.854991e-07
    446    451   2   0.50000     0.0300000    0.6250000   2.482000e-04  1.854991e-07
    430    438   2   0.50000    -0.1150000   -0.1150000   1.172438e-03  2.346713e-06
    447    427   2   0.50000     0.1150000    0.0000000   2.431434e-04  1.541678e-07
    447    438   2   0.50000     0.1150000   -0.1150000   2.431434e-04  1.541678e-07
    427    448   2   0.50000     0.0000000    0.1150000   2.431434e-04  1.541678e-07
    436    439   2   0.50000    -0.1150000   -0.1150000   1.172438e-03  2.346713e-06
    436    448   2   0.50000    -0.1150000    0.1150000   2.431434e-04  1.541678e-07
    437    449   2   0.50000     0.0000000    0.1150000   2.431434e-04  1.541678e-07
    448    425   2   0.50000     0.1150000   -0.1150000   2.431434e-04  1.541678e-07
    448    449   2   0.50000     0.1150000    0.1150000   5.042375e-05  1.012808e-08
    450    434   2   0.50000    -0.4300000    0.1900000   1.095425e-03  1.218041e-06
    453    434   2   0.50000    -0.1150000    0.1900000   1.091018e-03  2.092768e-06
    450    454   2   0.50000    -0.4300000   -0.1150000   1.177174e-03  1.365843e-06
    450    467   2   0.50000    -0.4300000   -0.1150000   1.177174e-03  1.365843e-06
    452    454   2   0.50000    -0.3300000   -0.1150000   1.102666e-03  1.331965e-06
    452    467   2   0.50000    -0.3300000   -0.1150000   1.102666e-03  1.331965e-06
    451    455   2   0.50000     0.6250000    0.0000000   1.692561e-03  3.993218e-06
    451    468   2   0.50000     0.6250000    0.1150000   3.510079e-04  2.623353e-07
    467    455   2   0.50000    -0.1150000    0.0000000   1.172438e-03  2.346713e-06
    467    468   2   0.50000    -0.1150000    0.1150000   2.431434e-04  1.541678e-07
    451    466   2   0.50000     0.6250000   -0.1150000   1.692561e-03  3.993218e-06
    451    477   2   0.50000     0.6250000    0.1150000   3.510079e-04  2.623353e-07
    454    466   2   0.50000    -0.1150000   -0.1150000   1.172438e-03  2.346713e-06
    454    477   2   0.50000    -0.1150000    0.1150000   2.431434e-04  1.541678e-07
    453    456   2   0.50000    -0.1150000   -0.1150000   1.172438e-03  2.346713e-06
    453    465   2   0.50000    -0.1150000    0.0000000   1.172438e-03  2.346713e-06
    468    456   2   0.50000     0.1150000   -0.1150000   2.431434e-04  1.541678e-07
    468    465   2   0.50000     0.1150000    0.0000000   2.431434e-04  1.541678e-07
    454    457   2   0.50000    -0.1150000   -0.1150000   1.172438e-03  2.346713e-06
    454    469   2   0.50000    -0.1150000    0.1150000   2.431434e-04  1.541678e-07
    465    457   2   0.50000     0.0000000   -0.1150000   1.172438e-03  2.346713e-06
    465    469   2   0.50000     0.0000000    0.1150000   2.431434e-04  1.541678e-07
    454    464   2   0.50000    -0.1150000   -0.1150000   1.172438e-03  2.346713e-06
    456    464   2   0.50000    -0.1150000   -0.1150000   1.172438e-03  2.346713e-06
    456    466   2   0.50000    -0.1150000   -0.1150000   1.172438e-03  2.346713e-06
    455    458   2   0.50000     0.0000000   -0.1150000   1.172438e-03  2.346713e-06
    455    470   2   0.50000     0.0000000    0.1150000   2.431434e-04  1.541678e-07
    469    458   2   0.50000     0.1150000   -0.1150000   2.431434e-04  1.541678e-07
    469    470   2   0.50000     0.1150000    0.1150000   5.042375e-05  1.012808e-08
    456    459   2   0.50000    -0.1150000    0.6250000   1.692561e-03  3.993218e-06
    470    459   2   0.50000     0.1150000    0.6250000   3.510079e-04  2.623353e-07
    470    464   2   0.50000     0.1150000   -0.1150000   2.431434e-04  1.541678e-07
    457    460   2   0.50000    -0.1150000   -0.3300000   1.102666e-03  1.331965e-06
    457    463   2   0.50000    -0.1150000   -0.4300000   1.177174e-03  1.365843e-06
    464    460   2   0.50000    -0.1150000   -0.3300000   1.102666e-03  1.331965e-06
    464    463   2   0.50000    -0.1150000   -0.4300000   1.177174e-03  1.365843e-06
    457    475   2   0.50000    -0.1150000    0.1150000   2.431434e-04  1.541678e-07
    459    465   2   0.50000     0.6250000    0.0000000   1.692561e-03  3.993218e-06
    459    475   2   0.50000     0.6250000    0.1150000   3.510079e-04  2.623353e-07
    458    461   2   0.50000    -0.1150000    0.1900000   1.091018e-03  2.092768e-06
    463    461   2   0.50000    -0.4300000    0.1900000   1.095425e-03  1.218041e-06
    459    462   2   0.50000     0.6250000    0.1900000   1.575021e-03  3.561100e-06
    459    471   2   0.50000     0.6250000    0.0300000   2.482000e-04  1.854991e-07
    459    472   2   0.50000     0.6250000    0.0300000   2.482000e-04  1.854991e-07
    460    473   2   0.50000    -0.3300000    0.0300000   1.616969e-04  6.187447e-08
    460    474   2   0.50000    -0.3300000    0.0300000   1.616969e-04  6.187447e-08
    460    480   2   0.50000    -0.3300000   -0.3300000   1.037046e-03  7.560067e-07
    471    473   2   0.50000     0.0300000    0.0300000   2.521187e-05  5.064042e-09
    471    474   2   0.50000     0.0300000    0.0300000   2.521187e-05  5.064042e-09
    471    480   2   0.50000     0.0300000   -0.3300000   1.616969e-04  6.187447e-08
    472    473   2   0.50000     0.0300000    0.0300000   2.521187e-05  5.064042e-09
    472    474   2   0.50000     0.0300000    0.0300000   2.521187e-05  5.064042e-09
    472    480   2   0.50000     0.0300000   -0.3300000   1.616969e-04  6.187447e-08
    461    479   2   0.50000     0.1900000    0.6250000   1.575021e-03  3.561100e-06
    473    479   2   0.50000     0.0300000    0.6250000   2.482000e-04  1.854991e-07
    474    479   2   0.50000     0.0300000    0.6250000   2.482000e-04  1.854991e-07
    458    466   2   0.50000    -0.1150000   -0.1150000   1.172438e-03  2.346713e-06
    475    455   2   0.50000     0.1150000    0.0000000   2.431434e-04  1.541678e-07
    475    466   2   0.50000     0.1150000   -0.1150000   2.431434e-04  1.541678e-07
    455    476   2   0.50000     0.0000000    0.1150000   2.431434e-04  1.541678e-07
    464    467   2   0.50000    -0.1150000   -0.1150000   1.172438e-03  2.346713e-06
    464    476   2   0.50000    -0.1150000    0.1150000   2.431434e-04  1.541678e-07
    465    477   2   0.50000     0.0000000    0.1150000   2.431434e-04  1.541678e-07
    476    453   2   0.50000     0.1150000   -0.1150000   2.431434e-04  1.541678e-07
    476    477   2   0.50000     0.1150000    0.1150000   5.042375e-05  1.012808e-08
    478    462   2   0.50000    -0.4300000    0.1900000   1.095425e-03  1.218041e-06
    481    462   2   0.50000    -0.1150000    0.1900000   1.091018e-03  2.092768e-06
    478    482   2   0.50000    -0.4300000   -0.1150000   1.177174e-03  1.365843e-06
    478    495   2   0.50000    -0.4300000   -0.1150000   1.177174e-03  1.365843e-06
    480    482   2   0.50000    -0.3300000   -0.1150000   1.102666e-03  1.331965e-06
    480    495   2   0.50000    -0.3300000   -0.1150000   1.102666e-03  1.331965e-06
    479    483   2   0.50000     0.6250000    0.0000000   1.692561e-03  3.993218e-06
    479    496   2   0.50000     0.6250000    0.1150000   3.510079e-04  2.623353e-07
    495    483   2   0.50000    -0.1150000    0.0000000   1.172438e-03  2.346713e-06
    495    496   2   0.50000    -0.1150000    0.1150000   2.431434e-04  1.541678e-07
    479    494   2   0.50000     0.6250000   -0.1150000   1.692561e-03  3.993218e-06
    479    505   2   0.50000     0.6250000    0.1150000   3.510079e-04  2.623353e-07
    482    494   2   0.50000    -0.1150000   -0.1150000   1.172438e-03  2.346713e-06
    482    505   2   0.50000    -0.1150000    0.1150000   2.431434e-04  1.541678e-07
    481    484   2   0.50000    -0.1150000   -0.1150000   1.172438e-03  2.346713e-06
    481    493   2   0.50000    -0.1150000    0.0000000   1.172438e-03  2.346713e-06
    496    484   2   0.50000     0.1150000   -0.1150000   2.431434e-04  1.541678e-07
    496    493   2   0.50000     0.1150000    0.0000000   2.431434e-04  1.541678e-07
    482    485   2   0.50000    -0.1150000   -0.1150000   1.172438e-03  2.346713e-06
    482    497   2   0.50000    -0.1150000    0.1150000   2.431434e-04  1.541678e-07
    493    485   2   0.50000     0.0000000   -0.1150000   1.172438e-03  2.346713e-06
    493    497   2   0.50000     0.0000000    0.1150000   2.431434e-04  1.541678e-07
    482    492   2   0.50000    -0.1150000   -0.1150000   1.172438e-03  2.346713e-06
    484    492   2   0.50000    -0.1150000   -0.1150000   1.172438e-03  2.346713e-06
    484    494   2   0.50000    -0.1150000   -0.1150000   1.172438e-03  2.346713e-06
    483    486   2   0.50000     0.0000000   -0.1150000   1.172438e-03  2.346713e-06
    483    498   2   0.50000     0.0000000    0.1150000   2.431434e-04  1.541678e-07
    497    486   2   0.50000     0.1150000   -0.1150000   2.431434e-04  1.541678e-07
    497    498   2   0.50000     0.1150000    0.1150000   5.042375e-05  1.012808e-08
    484    487   2   0.50000    -0.1150000    0.6250000   1.692561e-03  3.993218e-06
    498    487   2   0.50000     0.1150000    0.6250000   3.510079e-04  2.623353e-07
    498    492   2   0.50000     0.1150000   -0.1150000   2.431434e-04  1.541678e-07
    485    488   2   0.50000    -0.1150000   -0.3300000   1.102666e-03  1.331965e-06
    485    491   2   0.50000    -0.1150000   -0.4300000   1.177174e-03  1.365843e-06
    492    488   2   0.50000    -0.1150000   -0.3300000   1.102666e-03  1.331965e-06
    492    491   2   0.50000    -0.1150000   -0.4300000   1.177174e-03  1.365843e-06
    485    503   2   0.50000    -0.1150000    0.1150000   2.431434e-04  1.541678e-07
    487    493   2   0.50000     0.6250000    0.0000000   1.692561e-03  3.993218e-06
    487    503   2   0.50000     0.6250000    0.1150000   3.510079e-04  2.623353e-07
    486    489   2   0.50000    -0.1150000    0.1900000   1.091018e-03  2.092768e-06
    491    489   2   0.50000    -0.4300000    0.1900000   1.095425e-03  1.218041e-06
    487    490   2   0.50000     0.6250000    0.1900000   1.575021e-03  3.561100e-06
    487    499   2   0.50000     0.6250000    0.0300000   2.482000e-04  1.854991e-07
    487    500   2   0.50000     0.6250000    0.0300000   2.482000e-04  1.854991e-07
    488    501   2   0.50000    -0.3300000    0.0300000   1.616969e-04  6.187447e-08
    488    502   2   0.50000    -0.3300000    0.0300000   1.616969e-04  6.187447e-08
    488    508   2   0.50000    -0.3300000   -0.3300000   1.037046e-03  7.560067e-07
    499    501   2   0.50000     0.0300000    0.0300000   2.521187e-05  5.064042e-09
    499    502   2   0.50000     0.0300000    0.0300000   2.521187e-05  5.064042e-09
    499    508   2   0.50000     0.0300000   -0.3300000   1.616969e-04  6.187447e-08
    500    501   2   0.50000     0.0300000    0.0300000   2.521187e-05  5.064042e-09
    500    502   2   0.50000     0.0300000    0.0300000   2.521187e-05  5.064042e-09
    500    508   2   0.50000     0.0300000   -0.3300000   1.616969e-04  6.187447e-08
    489    507   2   0.50000     0.1900000    0.6250000   1.575021e-03  3.561100e-06
    501    507   2   0.50000     0.0300000    0.6250000   2.482000e-04  1.854991e-07
    502    507   2   0.50000     0.0300000    0.6250000   2.482000e-04  1.854991e-07
    486    494   2   0.50000    -0.1150000   -0.1150000   1.172438e-03  2.346713e-06
    503    483   2   0.50000     0.1150000    0.0000000   2.431434e-04  1.541678e-07
    503    494   2   0.50000     0.1150000   -0.1150000   2.431434e-04  1.541678e-07
    483    504   2   0.50000     0.0000000    0.1150000   2.431434e-04  1.541678e-07
    492    495   2   0.50000    -0.1150000   -0.1150000   1.172438e-03  2.346713e-06
    492    504   2   0.50000    -0.1150000    0.1150000   2.431434e-04  1.541678e-07
    493    505   2   0.50000     0.0000000    0.1150000   2.431434e-04  1.541678e-07
    504    481   2   0.50000     0.1150000   -0.1150000   2.431434e-04  1.541678e-07
    504    505   2   0.50000     0.1150000    0.1150000   5.042375e-05  1.012808e-08
    506    490   2   0.50000    -0.4300000    0.1900000   1.095425e-03  1.218041e-06
    509    490   2   0.50000    -0.1150000    0.1900000   1.091018e-03  2.092768e-06
    506    510   2   0.50000    -0.4300000   -0.1150000   1.177174e-03  1.365843e-06
    506    523   2   0.50000    -0.4300000   -0.1150000   1.177174e-03  1.365843e-06
    508    510   2   0.50000    -0.3300000   -0.1150000   1.102666e-03  1.331965e-06
    508    523   2   0.50000    -0.3300000   -0.1150000   1.102666e-03  1.331965e-06
    507    511   2   0.50000     0.6250000    0.0000000   1.692561e-03  3.993218e-06
    507    524   2   0.50000     0.6250000    0.1150000   3.510079e-04  2.623353e-07
    523    511   2   0.50000    -0.1150000    0.0000000   1.172438e-03  2.346713e-06
    523    524   2   0.50000    -0.1150000    0.1150000   2.431434e-04  1.541678e-07
    507    522   2   0.50000     0.6250000   -0.1150000   1.692561e-03  3.993218e-06
    507    533   2   0.50000     0.6250000    0.1150000   3.510079e-04  2.623353e-07
    510    522   2   0.50000    -0.1150000   -0.1150000   1.172438e-03  2.346713e-06
    510    533   2   0.50000    -0.1150000    0.1150000   2.431434e-04  1.541678e-07
    509    512   2   0.50000    -0.1150000   -0.1150000   1.172438e-03  2.346713e-06
    509    521   2   0.50000    -0.1150000    0.0000000   1.172438e-03  2.346713e-06
    524    512   2   0.50000     0.1150000   -0.1150000   2.431434e-04  1.541678e-07
    524    521   2   0.50000     0.1150000    0.0000000   2.431434e-04  1.541678e-07
    510    513   2   0.50000    -0.1150000   -0.1150000   1.172438e-03  2.346713e-06
    510    525   2   0.50000    -0.1150000    0.1150000   2.431434e-04  1.541678e-07
    521    513   2   0.50000     0.0000000   -0.1150000   1.172438e-03  2.346713e-06
    521    525   2   0.50000     0.0000000    0.1150000   2.431434e-04  1.541678e-07
    510    520   2   0.50000    -0.1150000   -0.1150000   1.172438e-03  2.346713e-06
    512    520   2   0.50000    -0.1150000   -0.1150000   1.172438e-03  2.346713e-06
    512    522   2   0.50000    -0.1150000   -0.1150000   1.172438e-03  2.346713e-06
    511    514   2   0.50000     0.0000000   -0.1150000   1.172438e-03  2.346713e-06
    511    526   2   0.50000     0.0000000    0.1150000   2.431434e-04  1.541678e-07
    525    514   2   0.50000     0.1150000   -0.1150000   2.431434e-04  1.541678e-07
    525    526   2   0.50000     0.1150000    0.1150000   5.042375e-05  1.012808e-08
    512    515   2   0.50000    -0.1150000    0.6250000   1.692561e-03  3.993218e-06
    526    515   2   0.50000     0.1150000    0.6250000   3.510079e-04  2.623353e-07
    526    520   2   0.50000     0.1150000   -0.1150000   2.431434e-04  1.541678e-07
    513    516   2   0.50000    -0.1150000   -0.3300000   1.102666e-03  1.331965e-06
    513    519   2   0.50000    -0.1150000   -0.4300000   1.177174e-03  1.365843e-06
    520    516   2   0.50000    -0.1150000   -0.3300000   1.102666e-03  1.331965e-06
    520    519   2   0.50000    -0.1150000   -0.4300000   1.177174e-03  1.365843e-06
    513    531   2   0.50000    -0.1150000    0.1150000   2.431434e-04  1.541678e-07
    515    521   2   0.50000     0.6250000    0.0000000   1.692561e-03  3.993218e-06
    515    531   2   0.50000     0.6250000    0.1150000   3.510079e-04  2.623353e-07
    514    517   2   0.50000    -0.1150000    0.1900000   1.091018e-03  2.092768e-06
    519    517   2   0.50000    -0.4300000    0.1900000   1.095425e-03  1.218041e-06
    515    518   2   0.50000     0.6250000    0.1900000   1.575021e-03  3.561100e-06
    515    527   2   0.50000     0.6250000    0.0300000   2.482000e-04  1.854991e-07
    515    528   2   0.50000     0.6250000    0.0300000   2.482000e-04  1.854991e-07
    516    529   2   0.50000    -0.3300000    0.0300000   1.616969e-04  6.187447e-08
    516    530   2   0.50000    -0.3300000    0.0300000   1.616969e-04  6.187447e-08
    516    536   2   0.50000    -0.3300000   -0.3300000   1.037046e-03  7.560067e-07
    527    529   2   0.50000     0.0300000    0.0300000   2.521187e-05  5.064042e-09
    527    530   2   0.50000     0.0300000    0.0300000   2.521187e-05  5.064042e-09
    527    536   2   0.50000     0.0300000   -0.3300000   1.616969e-04  6.187447e-08
    528    529   2   0.50000     0.0300000    0.0300000   2.521187e-05  5.064042e-09
    528    530   2   0.50000     0.0300000    0.0300000   2.521187e-05  5.064042e-09
    528    536   2   0.50000     0.0300000   -0.3300000   1.616969e-04  6.187447e-08
    517    535   2   0.50000     0.1900000    0.6250000   1.575021e-03  3.561100e-06
    529    535   2   0.50000     0.0300000    0.6250000   2.482000e-04  1.854991e-07
    530    535   2   0.50000     0.0300000    0.6250000   2.482000e-04  1.854991e-07
    514    522   2   0.50000    -0.1150000   -0.1150000   1.172438e-03  2.346713e-06
    531    511   2   0.50000     0.1150000    0.0000000   2.431434e-04  1.541678e-07
    531    522   2   0.50000     0.1150000   -0.1150000   2.431434e-04  1.541678e-07
    511    532   2   0.50000     0.0000000    0.1150000   2.431434e-04  1.541678e-07
    520    523   2   0.50000    -0.1150000   -0.1150000   1.172438e-03  2.346713e-06
    520    532   2   0.50000    -0.1150000    0.1150000   2.431434e-04  1.541678e-07
    521    533   2   0.50000     0.0000000    0.1150000   2.431434e-04  1.541678e-07
    532    509   2   0.50000     0.1150000   -0.1150000   2.431434e-04  1.541678e-07
    532    533   2   0.50000     0.1150000    0.1150000   5.042375e-05  1.012808e-08
    534    518   2   0.50000    -0.4300000    0.1900000   1.095425e-03  1.218041e-06
    537    518   2   0.50000    -0.1150000    0.1900000   1.091018e-03  2.092768e-06
    534    538   2   0.50000    -0.4300000   -0.1150000   1.177174e-03  1.365843e-06
    534    551   2   0.50000    -0.4300000   -0.1150000   1.177174e-03  1.365843e-06
    536    538   2   0.50000    -0.3300000   -0.1150000   1.102666e-03  1.331965e-06
    536    551   2   0.50000    -0.3300000   -0.1150000   1.102666e-03  1.331965e-06
    535    539   2   0.50000     0.6250000    0.0000000   1.692561e-03  3.993218e-06
    535    552   2   0.50000     0.6250000    0.1150000   3.510079e-04  2.623353e-07
    551    539   2   0.50000    -0.1150000    0.0000000   1.172438e-03  2.346713e-06
    551    552   2   0.50000    -0.1150000    0.1150000   2.431434e-04  1.541678e-07
    535    550   2   0.50000     0.6250000   -0.1150000   1.692561e-03  3.993218e-06
    535    561   2   0.50000     0.6250000    0.1150000   3.510079e-04  2.623353e-07
    538    550   2   0.50000    -0.1150000   -0.1150000   1.172438e-03  2.346713e-06
    538    561   2   0.50000    -0.1150000    0.1150000   2.431434e-04  1.541678e-07
    537    540   2   0.50000    -0.1150000   -0.1150000   1.172438e-03  2.346713e-06
    537    549   2   0.50000    -0.1150000    0.0000000   1.172438e-03  2.346713e-06
    552    540   2   0.50000     0.1150000   -0.1150000   2.431434e-04  1.541678e-07
    552    549   2   0.50000     0.1150000    0.0000000   2.431434e-04  1.541678e-07
    538    541   2   0.50000    -0.1150000   -0.1150000   1.172438e-03  2.346713e-06
    538    553   2   0.50000    -0.1150000    0.1150000   2.431434e-04  1.541678e-07
    549    541   2   0.50000     0.0000000   -0.1150000   1.172438e-03  2.346713e-06
    549    553   2   0.50000     0.0000000    0.1150000   2.431434e-04  1.541678e-07
    538    548   2   0.50000    -0.1150000   -0.1150000   1.172438e-03  2.346713e-06
    540    548   2   0.50000    -0.1150000   -0.1150000   1.172438e-03  2.346713e-06
    540    550   2   0.50000    -0.1150000   -0.1150000   1.172438e-03  2.346713e-06
    539    542   2   0.50000     0.0000000   -0.1150000   1.172438e-03  2.346713e-06
    539    554   2   0.50000     0.0000000    0.1150000   2.431434e-04  1.541678e-07
    553    542   2   0.50000     0.1150000   -0.1150000   2.431434e-04  1.541678e-07
    553    554   2   0.50000     0.1150000    0.1150000   5.042375e-05  1.012808e-08
    540    543   2   0.50000    -0.1150000    0.6250000   1.692561e-03  3.993218e-06
    554    543   2   0.50000     0.1150000    0.6250000   3.510079e-04  2.623353e-07
    554    548   2   0.50000     0.1150000   -0.1150000   2.431434e-04  1.541678e-07
    541    544   2   0.50000    -0.1150000   -0.3300000   1.102666e-03  1.331965e-06
    541    547   2   0.50000    -0.1150000   -0.4300000   1.177174e-03  1.365843e-06
    548    544   2   0.50000    -0.1150000   -0.3300000   1.102666e-03  1.331965e-06
    548    547   2   0.50000    -0.1150000   -0.4300000   1.177174e-03  1.365843e-06
    541    559   2   0.50000    -0.1150000    0.1150000   2.431434e-04  1.541678e-07
    543    549   2   0.50000     0.6250000    0.0000000   1.692561e-03  3.993218e-06
    543    559   2   0.50000     0.6250000    0.1150000   3.510079e-04  2.623353e-07
    542    545   2   0.50000    -0.1150000    0.1900000   1.091018e-03  2.092768e-06
    547    545   2   0.50000    -0.4300000    0.1900000   1.095425e-03  1.218041e-06
    543    546   2   0.50000     0.6250000   -0.1800000   1.575021e-03  3.561100e-06
    543    555   2   0.50000     0.6250000    0.0300000   2.482000e-04  1.854991e-07
    543    556   2   0.50000     0.6250000    0.0300000   2.482000e-04  1.854991e-07
    544    557   2   0.50000    -0.3300000    0.0600000   2.521103e-04  1.063590e-07
    544    558   2   0.50000    -0.3300000    0.0600000   2.521103e-04  1.063590e-07
    544    562   2   0.50000    -0.3300000    0.0600000   2.521103e-04  1.063590e-07
    555    557   2   0.50000     0.0300000    0.0600000   3.930919e-05  8.704828e-09
    555    558   2   0.50000     0.0300000    0.0600000   3.930919e-05  8.704828e-09
    555    562   2   0.50000     0.0300000    0.0600000   3.930919e-05  8.704828e-09
    556    557   2   0.50000     0.0300000    0.0600000   3.930919e-05  8.704828e-09
    556    558   2   0.50000     0.0300000    0.0600000   3.930919e-05  8.704828e-09
    556    562   2   0.50000     0.0300000    0.0600000   3.930919e-05  8.704828e-09
    542    550   2   0.50000    -0.1150000   -0.1150000   1.172438e-03  2.346713e-06
    559    539   2   0.50000     0.1150000    0.0000000   2.431434e-04  1.541678e-07
    559    550   2   0.50000     0.1150000   -0.1150000   2.431434e-04  1.541678e-07
    539    560   2   0.50000     0.0000000    0.1150000   2.431434e-04  1.541678e-07
    548    551   2   0.50000    -0.1150000   -0.1150000   1.172438e-03  2.346713e-06
    548    560   2   0.50000    -0.1150000    0.1150000   2.431434e-04  1.541678e-07
    549    561   2   0.50000     0.0000000    0.1150000   2.431434e-04  1.541678e-07
    560    537   2   0.50000     0.1150000   -0.1150000   2.431434e-04  1.541678e-07
    560    561   2   0.50000     0.1150000    0.1150000   5.042375e-05  1.012808e-08

[ angles ]
; ai  aj  ak
      1      2      3   1    123.3200    836.8000
      1      2      4   1    120.4000    669.4400
      3      2      4   1    111.8800    711.2800
      2      3     29   1    113.0000    292.8800
      2      4      5   1    120.0000    711.2800
      2      4     18   1    120.0000    711.2800
      5      4     18   1    120.0000    527.1840
      4      5      6   1    120.0000    527.1840
      4      5     19   1    120.0000    292.8800
      6      5     19   1    120.0000    292.8800
      5      6      7   1    120.0000    527.1840
      5      6     16   1    120.0000    527.1840
      7      6     16   1    120.0000    527.1840
      6      7      8   1    120.0000    527.1840
      6      7     20   1    120.0000    292.8800
      8      7     20   1    120.0000    292.8800
      7      8      9   1    120.0000    527.1840
      7      8     21   1    120.0000    292.8800
      9      8     21   1    120.0000    292.8800
      8      9     10   1    119.5260    502.0800
      8      9     15   1    120.0000    527.1840
     10      9     15   1    119.5260    502.0800
      9     10     11   1    111.4000    677.8080
      9     10     14   1    123.7840    627.6000
     11     10     14   1    123.4000    694.5440
     10     11     12   1    116.9000    694.5440
     11     12     13   1    109.5000    418.4000
     11     12     22   1    109.5000    292.8800
     11     12     23   1    109.5000    292.8800
     13     12     22   1    110.7000    313.8000
     13     12     23   1    110.7000    313.8000
     22     12     23   1    107.8000    276.1440
     12     13     24   1    110.7000    313.8000
     12     13     25   1    110.7000    313.8000
     12     13     32   1    109.5000    418.4000
     24     13     25   1    107.8000    276.1440
     24     13     32   1    109.5000    292.8800
     25     13     32   1    109.5000    292.8800
      9     15     16   1    120.0000    527.1840
      9     15     26   1    120.0000    292.8800
     16     15     26   1    120.0000    292.8800
      6     16     15   1    120.0000    527.1840
      6     16     17   1    120.0000    527.1840
     15     16     17   1    120.0000    527.1840
     16     17     18   1    120.0000    527.1840
     16     17     27   1    120.0000    292.8800
     18     17     27   1    120.0000    292.8800
      4     18     17   1    120.0000    527.1840
      4     18     28   1    120.0000    292.8800
     17     18     28   1    120.0000    292.8800
     30     31     32   1    123.4000    694.5440
     30     31     33   1    123.7840    627.6000
     32     31     33   1    111.4000    677.8080
     13     32     31   1    116.9000    694.5440
     31     33     34   1    119.5260    502.0800
     31     33     47   1    119.5260    502.0800
     34     33     47   1    120.0000    527.1840
     33     34     35   1    120.0000    527.1840
     33     34     48   1    120.0000    292.8800
     35     34     48   1    120.0000    292.8800
     34     35     36   1    120.0000    527.1840
     34     35     45   1    120.0000    527.1840
     36     35     45   1    120.0000    527.1840
     35     36     37   1    120.0000    527.1840
     35     36     49   1    120.0000    292.8800
     37     36     49   1    120.0000    292.8800
     36     37     38   1    120.0000    527.1840
     36     37     50   1    120.0000    292.8800
     38     37     50   1    120.0000    292.8800
     37     38     39   1    119.5260    502.0800
     37     38     44   1    120.0000    527.1840
     39     38     44   1    119.5260    502.0800
     38     39     40   1    111.4000    677.8080
     38     39     43   1    123.7840    627.6000
     40     39     43   1    123.4000    694.5440
     39     40     41   1    116.9000    694.5440
     40     41     42   1    109.5000    418.4000
     40     41     51   1    109.5000    292.8800
     40     41     52   1    109.5000    292.8800
     42     41     51   1    110.7000    313.8000
     42     41     52   1    110.7000    313.8000
     51     41     52   1    107.8000    276.1440
     41     42     53   1    110.7000    313.8000
     41     42     54   1    110.7000    313.8000
     41     42     60   1    109.5000    418.4000
     53     42     54   1    107.8000    276.1440
     53     42     60   1    109.5000    292.8800
     54     42     60   1    109.5000    292.8800
     38     44     45   1    120.0000    527.1840
     38     44     55   1    120.0000    292.8800
     45     44     55   1    120.0000    292.8800
     35     45     44   1    120.0000    527.1840
     35     45     46   1    120.0000    527.1840
     44     45     46   1    120.0000    527.1840
     45     46     47   1    120.0000    527.1840
     45     46     56   1    120.0000    292.8800
     47     46     56   1    120.0000    292.8800
     33     47     46   1    120.0000    527.1840
     33     47     57   1    120.0000    292.8800
     46     47     57   1    120.0000    292.8800
     58     59     60   1    123.4000    694.5440
     58     59     61   1    123.7840    627.6000
     60     59     61   1    111.4000    677.8080
     42     60     59   1    116.9000    694.5440
     59     61     62   1    119.5260    502.0800
     59     61     75   1    119.5260    502.0800
     62     61     75   1    120.0000    527.1840
     61     62     63   1    120.0000    527.1840
     61     62     76   1    120.0000    292.8800
     63     62     76   1    120.0000    292.8800
     62     63     64   1    120.0000    527.1840
     62     63     73   1    120.0000    527.1840
     64     63     73   1    120.0000    527.1840
     63     64     65   1    120.0000    527.1840
     63     64     77   1    120.0000    292.8800
     65     64     77   1    120.0000    292.8800
     64     65     66   1    120.0000    527.1840
     64     65     78   1    120.0000    292.8800
     66     65     78   1    120.0000    292.8800
     65     66     67   1    119.5260    502.0800
     65     66     72   1    120.0000    527.1840
     67     66     72   1    119.5260    502.0800
     66     67     68   1    111.4000    677.8080
     66     67     71   1    123.7840    627.6000
     68     67     71   1    123.4000    694.5440
     67     68     69   1    116.9000    694.5440
     68     69     70   1    109.5000    418.4000
     68     69     79   1    109.5000    292.8800
     68     69     80   1    109.5000    292.8800
     70     69     79   1    110.7000    313.8000
     70     69     80   1    110.7000    313.8000
     79     69     80   1    107.8000    276.1440
     69     70     81   1    110.7000    313.8000
     69     70     82   1    110.7000    313.8000
     69     70     88   1    109.5000    418.4000
     81     70     82   1    107.8000    276.1440
     81     70     88   1    109.5000    292.8800
     82     70     88   1    109.5000    292.8800
     66     72     73   1    120.0000    527.1840
     66     72     83   1    120.0000    292.8800
     73     72     83   1    120.0000    292.8800
     63     73     72   1    120.0000    527.1840
     63     73     74   1    120.0000    527.1840
     72     73     74   1    120.0000    527.1840
     73     74     75   1    120.0000    527.1840
     73     74     84   1    120.0000    292.8800
     75     74     84   1    120.0000    292.8800
     61     75     74   1    120.0000    527.1840
     61     75     85   1    120.0000    292.8800
     74     75     85   1    120.0000    292.8800
     86     87     88   1    123.4000    694.5440
     86     87     89   1    123.7840    627.6000
     88     87     89   1    111.4000    677.8080
     70     88     87   1    116.9000    694.5440
     87     89     90   1    119.5260    502.0800
     87     89    103   1    119.5260    502.0800
     90     89    103   1    120.0000    527.1840
     89     90     91   1    120.0000    527.1840
     89     90    104   1    120.0000    292.8800
     91     90    104   1    120.0000    292.8800
     90     91     92   1    120.0000    527.1840
     90     91    101   1    120.0000    527.1840
     92     91    101   1    120.0000    527.1840
     91     92     93   1    120.0000    527.1840
     91     92    105   1    120.0000    292.8800
     93     92    105   1    120.0000    292.8800
     92     93     94   1    120.0000    527.1840
     92     93    106   1    120.0000    292.8800
     94     93    106   1    120.0000    292.8800
     93     94     95   1    119.5260    502.0800
     93     94    100   1    120.0000    527.1840
     95     94    100   1    119.5260    502.0800
     94     95     96   1    111.4000    677.8080
     94     95     99   1    123.7840    627.6000
     96     95     99   1    123.4000    694.5440
     95     96     97   1    116.9000    694.5440
     96     97     98   1    109.5000    418.4000
     96     97    107   1    109.5000    292.8800
     96     97    108   1    109.5000    292.8800
     98     97    107   1    110.7000    313.8000
     98     97    108   1    110.7000    313.8000
    107     97    108   1    107.8000    276.1440
     97     98    109   1    110.7000    313.8000
     97     98    110   1    110.7000    313.8000
     97     98    116   1    109.5000    418.4000
    109     98    110   1    107.8000    276.1440
    109     98    116   1    109.5000    292.8800
    110     98    116   1    109.5000    292.8800
     94    100    101   1    120.0000    527.1840
     94    100    111   1    120.0000    292.8800
    101    100    111   1    120.0000    292.8800
     91    101    100   1    120.0000    527.1840
     91    101    102   1    120.0000    527.1840
    100    101    102   1    120.0000    527.1840
    101    102    103   1    120.0000    527.1840
    101    102    112   1    120.0000    292.8800
    103    102    112   1    120.0000    292.8800
     89    103    102   1    120.0000    527.1840
     89    103    113   1    120.0000    292.8800
    102    103    113   1    120.0000    292.8800
    114    115    116   1    123.4000    694.5440
    114    115    117   1    123.7840    627.6000
    116    115    117   1    111.4000    677.8080
     98    116    115   1    116.9000    694.5440
    115    117    118   1    119.5260    502.0800
    115    117    131   1    119.5260    502.0800
    118    117    131   1    120.0000    527.1840
    117    118    119   1    120.0000    527.1840
    117    118    132   1    120.0000    292.8800
    119    118    132   1    120.0000    292.8800
    118    119    120   1    120.0000    527.1840
    118    119    129   1    120.0000    527.1840
    120    119    129   1    120.0000    527.1840
    119    120    121   1    120.0000    527.1840
    119    120    133   1    120.0000    292.8800
    121    120    133   1    120.0000    292.8800
    120    121    122   1    120.0000    527.1840
    120    121    134   1    120.0000    292.8800
    122    121    134   1    120.0000    292.8800
    121    122    123   1    119.5260    502.0800
    121    122    128   1    120.0000    527.1840
    123    122    128   1    119.5260    502.0800
    122    123    124   1    111.4000    677.8080
    122    123    127   1    123.7840    627.6000
    124    123    127   1    123.4000    694.5440
    123    124    125   1    116.9000    694.5440
    124    125    126   1    109.5000    418.4000
    124    125    135   1    109.5000    292.8800
    124    125    136   1    109.5000    292.8800
    126    125    135   1    110.7000    313.8000
    126    125    136   1    110.7000    313.8000
    135    125    136   1    107.8000    276.1440
    125    126    137   1    110.7000    313.8000
    125    126    138   1    110.7000    313.8000
    125    126    144   1    109.5000    418.4000
    137    126    138   1    107.8000    276.1440
    137    126    144   1    109.5000    292.8800
    138    126    144   1    109.5000    292.8800
    122    128    129   1    120.0000    527.1840
    122    128    139   1    120.0000    292.8800
    129    128    139   1    120.0000    292.8800
    119    129    128   1    120.0000    527.1840
    119    129    130   1    120.0000    527.1840
    128    129    130   1    120.0000    527.1840
    129    130    131   1    120.0000    527.1840
    129    130    140   1    120.0000    292.8800
    131    130    140   1    120.0000    292.8800
    117    131    130   1    120.0000    527.1840
    117    131    141   1    120.0000    292.8800
    130    131    141   1    120.0000    292.8800
    142    143    144   1    123.4000    694.5440
    142    143    145   1    123.7840    627.6000
    144    143    145   1    111.4000    677.8080
    126    144    143   1    116.9000    694.5440
    143    145    146   1    119.5260    502.0800
    143    145    159   1    119.5260    502.0800
    146    145    159   1    120.0000    527.1840
    145    146    147   1    120.0000    527.1840
    145    146    160   1    120.0000    292.8800
    147    146    160   1    120.0000    292.8800
    146    147    148   1    120.0000    527.1840
    146    147    157   1    120.0000    527.1840
    148    147    157   1    120.0000    527.1840
    147    148    149   1    120.0000    527.1840
    147    148    161   1    120.0000    292.8800
    149    148    161   1    120.0000    292.8800
    148    149    150   1    120.0000    527.1840
    148    149    162   1    120.0000    292.8800
    150    149    162   1    120.0000    292.8800
    149    150    151   1    119.5260    502.0800
    149    150    156   1    120.0000    527.1840
    151    150    156   1    119.5260    502.0800
    150    151    152   1    111.4000    677.8080
    150    151    155   1    123.7840    627.6000
    152    151    155   1    123.4000    694.5440
    151    152    153   1    116.9000    694.5440
    152    153    154   1    109.5000    418.4000
    152    153    163   1    109.5000    292.8800
    152    153    164   1    109.5000    292.8800
    154    153    163   1    110.7000    313.8000
    154    153    164   1    110.7000    313.8000
    163    153    164   1    107.8000    276.1440
    153    154    165   1    110.7000    313.8000
    153    154    166   1    110.7000    313.8000
    153    154    172   1    109.5000    418.4000
    165    154    166   1    107.8000    276.1440
    165    154    172   1    109.5000    292.8800
    166    154    172   1    109.5000    292.8800
    150    156    157   1    120.0000    527.1840
    150    156    167   1    120.0000    292.8800
    157    156    167   1    120.0000    292.8800
    147    157    156   1    120.0000    527.1840
    147    157    158   1    120.0000    527.1840
    156    157    158   1    120.0000    527.1840
    157    158    159   1    120.0000    527.1840
    157    158    168   1    120.0000    292.8800
    159    158    168   1    120.0000    292.8800
    145    159    158   1    120.0000    527.1840
    145    159    169   1    120.0000    292.8800
    158    159    169   1    120.0000    292.8800
    170    171    172   1    123.4000    694.5440
    170    171    173   1    123.7840    627.6000
    172    171    173   1    111.4000    677.8080
    154    172    171   1    116.9000    694.5440
    171    173    174   1    119.5260    502.0800
    171    173    187   1    119.5260    502.0800
    174    173    187   1    120.0000    527.1840
    173    174    175   1    120.0000    527.1840
    173    174    188   1    120.0000    292.8800
    175    174    188   1    120.0000    292.8800
    174    175    176   1    120.0000    527.1840
    174    175    185   1    120.0000    527.1840
    176    175    185   1    120.0000    527.1840
    175    176    177   1    120.0000    527.1840
    175    176    189   1    120.0000    292.8800
    177    176    189   1    120.0000    292.8800
    176    177    178   1    120.0000    527.1840
    176    177    190   1    120.0000    292.8800
    178    177    190   1    120.0000    292.8800
    177    178    179   1    119.5260    502.0800
    177    178    184   1    120.0000    527.1840
    179    178    184   1    119.5260    502.0800
    178    179    180   1    111.4000    677.8080
    178    179    183   1    123.7840    627.6000
    180    179    183   1    123.4000    694.5440
    179    180    181   1    116.9000    694.5440
    180    181    182   1    109.5000    418.4000
    180    181    191   1    109.5000    292.8800
    180    181    192   1    109.5000    292.8800
    182    181    191   1    110.7000    313.8000
    182    181    192   1    110.7000    313.8000
    191    181    192   1    107.8000    276.1440
    181    182    193   1    110.7000    313.8000
    181    182    194   1    110.7000    313.8000
    181    182    200   1    109.5000    418.4000
    193    182    194   1    107.8000    276.1440
    193    182    200   1    109.5000    292.8800
    194    182    200   1    109.5000    292.8800
    178    184    185   1    120.0000    527.1840
    178    184    195   1    120.0000    292.8800
    185    184    195   1    120.0000    292.8800
    175    185    184   1    120.0000    527.1840
    175    185    186   1    120.0000    527.1840
    184    185    186   1    120.0000    527.1840
    185    186    187   1    120.0000    527.1840
    185    186    196   1    120.0000    292.8800
    187    186    196   1    120.0000    292.8800
    173    187    186   1    120.0000    527.1840
    173    187    197   1    120.0000    292.8800
    186    187    197   1    120.0000    292.8800
    198    199    200   1    123.4000    694.5440
    198    199    201   1    123.7840    627.6000
    200    199    201   1    111.4000    677.8080
    182    200    199   1    116.9000    694.5440
    199    201    202   1    119.5260    502.0800
    199    201    215   1    119.5260    502.0800
    202    201    215   1    120.0000    527.1840
    201    202    203   1    120.0000    527.1840
    201    202    216   1    120.0000    292.8800
    203    202    216   1    120.0000    292.8800
    202    203    204   1    120.0000    527.1840
    202    203    213   1    120.0000    527.1840
    204    203    213   1    120.0000    527.1840
    203    204    205   1    120.0000    527.1840
    203    204    217   1    120.0000    292.8800
    205    204    217   1    120.0000    292.8800
    204    205    206   1    120.0000    527.1840
    204    205    218   1    120.0000    292.8800
    206    205    218   1    120.0000    292.8800
    205    206    207   1    119.5260    502.0800
    205    206    212   1    120.0000    527.1840
    207    206    212   1    119.5260    502.0800
    206    207    208   1    111.4000    677.8080
    206    207    211   1    123.7840    627.6000
    208    207    211   1    123.4000    694.5440
    207    208    209   1    116.9000    694.5440
    208    209    210   1    109.5000    418.4000
    208    209    219   1    109.5000    292.8800
    208    209    220   1    109.5000    292.8800
    210    209    219   1    110.7000    313.8000
    210    209    220   1    110.7000    313.8000
    219    209    220   1    107.8000    276.1440
    209    210    221   1    110.7000    313.8000
    209    210    222   1    110.7000    313.8000
    209    210    228   1    109.5000    418.4000
    221    210    222   1    107.8000    276.1440
    221    210    228   1    109.5000    292.8800
    222    210    228   1    109.5000    292.8800
    206    212    213   1    120.0000    527.1840
    206    212    223   1    120.0000    292.8800
    213    212    223   1    120.0000    292.8800
    203    213    212   1    120.0000    527.1840
    203    213    214   1    120.0000    527.1840
    212    213    214   1    120.0000    527.1840
    213    214    215   1    120.0000    527.1840
    213    214    224   1    120.0000    292.8800
    215    214    224   1    120.0000    292.8800
    201    215    214   1    120.0000    527.1840
    201    215    225   1    120.0000    292.8800
    214    215    225   1    120.0000    292.8800
    226    227    228   1    123.4000    694.5440
    226    227    229   1    123.7840    627.6000
    228    227    229   1    111.4000    677.8080
    210    228    227   1    116.9000    694.5440
    227    229    230   1    119.5260    502.0800
    227    229    243   1    119.5260    502.0800
    230    229    243   1    120.0000    527.1840
    229    230    231   1    120.0000    527.1840
    229    230    244   1    120.0000    292.8800
    231    230    244   1    120.0000    292.8800
    230    231    232   1    120.0000    527.1840
    230    231    241   1    120.0000    527.1840
    232    231    241   1    120.0000    527.1840
    231    232    233   1    120.0000    527.1840
    231    232    245   1    120.0000    292.8800
    233    232    245   1    120.0000    292.8800
    232    233    234   1    120.0000    527.1840
    232    233    246   1    120.0000    292.8800
    234    233    246   1    120.0000    292.8800
    233    234    235   1    119.5260    502.0800
    233    234    240   1    120.0000    527.1840
    235    234    240   1    119.5260    502.0800
    234    235    236   1    111.4000    677.8080
    234    235    239   1    123.7840    627.6000
    236    235    239   1    123.4000    694.5440
    235    236    237   1    116.9000    694.5440
    236    237    238   1    109.5000    418.4000
    236    237    247   1    109.5000    292.8800
    236    237    248   1    109.5000    292.8800
    238    237    247   1    110.7000    313.8000
    238    237    248   1    110.7000    313.8000
    247    237    248   1    107.8000    276.1440
    237    238    249   1    110.7000    313.8000
    237    238    250   1    110.7000    313.8000
    237    238    256   1    109.5000    418.4000
    249    238    250   1    107.8000    276.1440
    249    238    256   1    109.5000    292.8800
    250    238    256   1    109.5000    292.8800
    234    240    241   1    120.0000    527.1840
    234    240    251   1    120.0000    292.8800
    241    240    251   1    120.0000    292.8800
    231    241    240   1    120.0000    527.1840
    231    241    242   1    120.0000    527.1840
    240    241    242   1    120.0000    527.1840
    241    242    243   1    120.0000    527.1840
    241    242    252   1    120.0000    292.8800
    243    242    252   1    120.0000    292.8800
    229    243    242   1    120.0000    527.1840
    229    243    253   1    120.0000    292.8800
    242    243    253   1    120.0000    292.8800
    254    255    256   1    123.4000    694.5440
    254    255    257   1    123.7840    627.6000
    256    255    257   1    111.4000    677.8080
    238    256    255   1    116.9000    694.5440
    255    257    258   1    119.5260    502.0800
    255    257    271   1    119.5260    502.0800
    258    257    271   1    120.0000    527.1840
    257    258    259   1    120.0000    527.1840
    257    258    272   1    120.0000    292.8800
    259    258    272   1    120.0000    292.8800
    258    259    260   1    120.0000    527.1840
    258    259    269   1    120.0000    527.1840
    260    259    269   1    120.0000    527.1840
    259    260    261   1    120.0000    527.1840
    259    260    273   1    120.0000    292.8800
    261    260    273   1    120.0000    292.8800
    260    261    262   1    120.0000    527.1840
    260    261    274   1    120.0000    292.8800
    262    261    274   1    120.0000    292.8800
    261    262    263   1    119.5260    502.0800
    261    262    268   1    120.0000    527.1840
    263    262    268   1    119.5260    502.0800
    262    263    264   1    111.4000    677.8080
    262    263    267   1    123.7840    627.6000
    264    263    267   1    123.4000    694.5440
    263    264    265   1    116.9000    694.5440
    264    265    266   1    109.5000    418.4000
    264    265    275   1    109.5000    292.8800
    264    265    276   1    109.5000    292.8800
    266    265    275   1    110.7000    313.8000
    266    265    276   1    110.7000    313.8000
    275    265    276   1    107.8000    276.1440
    265    266    277   1    110.7000    313.8000
    265    266    278   1    110.7000    313.8000
    265    266    284   1    109.5000    418.4000
    277    266    278   1    107.8000    276.1440
    277    266    284   1    109.5000    292.8800
    278    266    284   1    109.5000    292.8800
    262    268    269   1    120.0000    527.1840
    262    268    279   1    120.0000    292.8800
    269    268    279   1    120.0000    292.8800
    259    269    268   1    120.0000    527.1840
    259    269    270   1    120.0000    527.1840
    268    269    270   1    120.0000    527.1840
    269    270    271   1    120.0000    527.1840
    269    270    280   1    120.0000    292.8800
    271    270    280   1    120.0000    292.8800
    257    271    270   1    120.0000    527.1840
    257    271    281   1    120.0000    292.8800
    270    271    281   1    120.0000    292.8800
    282    283    284   1    123.4000    694.5440
    282    283    285   1    123.7840    627.6000
    284    283    285   1    111.4000    677.8080
    266    284    283   1    116.9000    694.5440
    283    285    286   1    119.5260    502.0800
    283    285    299   1    119.5260    502.0800
    286    285    299   1    120.0000    527.1840
    285    286    287   1    120.0000    527.1840
    285    286    300   1    120.0000    292.8800
    287    286    300   1    120.0000    292.8800
    286    287    288   1    120.0000    527.1840
    286    287    297   1    120.0000    527.1840
    288    287    297   1    120.0000    527.1840
    287    288    289   1    120.0000    527.1840
    287    288    301   1    120.0000    292.8800
    289    288    301   1    120.0000    292.8800
    288    289    290   1    120.0000    527.1840
    288    289    302   1    120.0000    292.8800
    290    289    302   1    120.0000    292.8800
    289    290    291   1    119.5260    502.0800
    289    290    296   1    120.0000    527.1840
    291    290    296   1    119.5260    502.0800
    290    291    292   1    111.4000    677.8080
    290    291    295   1    123.7840    627.6000
    292    291    295   1    123.4000    694.5440
    291    292    293   1    116.9000    694.5440
    292    293    294   1    109.5000    418.4000
    292    293    303   1    109.5000    292.8800
    292    293    304   1    109.5000    292.8800
    294    293    303   1    110.7000    313.8000
    294    293    304   1    110.7000    313.8000
    303    293    304   1    107.8000    276.1440
    293    294    305   1    110.7000    313.8000
    293    294    306   1    110.7000    313.8000
    293    294    312   1    109.5000    418.4000
    305    294    306   1    107.8000    276.1440
    305    294    312   1    109.5000    292.8800
    306    294    312   1    109.5000    292.8800
    290    296    297   1    120.0000    527.1840
    290    296    307   1    120.0000    292.8800
    297    296    307   1    120.0000    292.8800
    287    297    296   1    120.0000    527.1840
    287    297    298   1    120.0000    527.1840
    296    297    298   1    120.0000    527.1840
    297    298    299   1    120.0000    527.1840
    297    298    308   1    120.0000    292.8800
    299    298    308   1    120.0000    292.8800
    285    299    298   1    120.0000    527.1840
    285    299    309   1    120.0000    292.8800
    298    299    309   1    120.0000    292.8800
    310    311    312   1    123.4000    694.5440
    310    311    313   1    123.7840    627.6000
    312    311    313   1    111.4000    677.8080
    294    312    311   1    116.9000    694.5440
    311    313    314   1    119.5260    502.0800
    311    313    327   1    119.5260    502.0800
    314    313    327   1    120.0000    527.1840
    313    314    315   1    120.0000    527.1840
    313    314    328   1    120.0000    292.8800
    315    314    328   1    120.0000    292.8800
    314    315    316   1    120.0000    527.1840
    314    315    325   1    120.0000    527.1840
    316    315    325   1    120.0000    527.1840
    315    316    317   1    120.0000    527.1840
    315    316    329   1    120.0000    292.8800
    317    316    329   1    120.0000    292.8800
    316    317    318   1    120.0000    527.1840
    316    317    330   1    120.0000    292.8800
    318    317    330   1    120.0000    292.8800
    317    318    319   1    119.5260    502.0800
    317    318    324   1    120.0000    527.1840
    319    318    324   1    119.5260    502.0800
    318    319    320   1    111.4000    677.8080
    318    319    323   1    123.7840    627.6000
    320    319    323   1    123.4000    694.5440
    319    320    321   1    116.9000    694.5440
    320    321    322   1    109.5000    418.4000
    320    321    331   1    109.5000    292.8800
    320    321    332   1    109.5000    292.8800
    322    321    331   1    110.7000    313.8000
    322    321    332   1    110.7000    313.8000
    331    321    332   1    107.8000    276.1440
    321    322    333   1    110.7000    313.8000
    321    322    334   1    110.7000    313.8000
    321    322    340   1    109.5000    418.4000
    333    322    334   1    107.8000    276.1440
    333    322    340   1    109.5000    292.8800
    334    322    340   1    109.5000    292.8800
    318    324    325   1    120.0000    527.1840
    318    324    335   1    120.0000    292.8800
    325    324    335   1    120.0000    292.8800
    315    325    324   1    120.0000    527.1840
    315    325    326   1    120.0000    527.1840
    324    325    326   1    120.0000    527.1840
    325    326    327   1    120.0000    527.1840
    325    326    336   1    120.0000    292.8800
    327    326    336   1    120.0000    292.8800
    313    327    326   1    120.0000    527.1840
    313    327    337   1    120.0000    292.8800
    326    327    337   1    120.0000    292.8800
    338    339    340   1    123.4000    694.5440
    338    339    341   1    123.7840    627.6000
    340    339    341   1    111.4000    677.8080
    322    340    339   1    116.9000    694.5440
    339    341    342   1    119.5260    502.0800
    339    341    355   1    119.5260    502.0800
    342    341    355   1    120.0000    527.1840
    341    342    343   1    120.0000    527.1840
    341    342    356   1    120.0000    292.8800
    343    342    356   1    120.0000    292.8800
    342    343    344   1    120.0000    527.1840
    342    343    353   1    120.0000    527.1840
    344    343    353   1    120.0000    527.1840
    343    344    345   1    120.0000    527.1840
    343    344    357   1    120.0000    292.8800
    345    344    357   1    120.0000    292.8800
    344    345    346   1    120.0000    527.1840
    344    345    358   1    120.0000    292.8800
    346    345    358   1    120.0000    292.8800
    345    346    347   1    119.5260    502.0800
    345    346    352   1    120.0000    527.1840
    347    346    352   1    119.5260    502.0800
    346    347    348   1    111.4000    677.8080
    346    347    351   1    123.7840    627.6000
    348    347    351   1    123.4000    694.5440
    347    348    349   1    116.9000    694.5440
    348    349    350   1    109.5000    418.4000
    348    349    359   1    109.5000    292.8800
    348    349    360   1    109.5000    292.8800
    350    349    359   1    110.7000    313.8000
    350    349    360   1    110.7000    313.8000
    359    349    360   1    107.8000    276.1440
    349    350    361   1    110.7000    313.8000
    349    350    362   1    110.7000    313.8000
    349    350    368   1    109.5000    418.4000
    361    350    362   1    107.8000    276.1440
    361    350    368   1    109.5000    292.8800
    362    350    368   1    109.5000    292.8800
    346    352    353   1    120.0000    527.1840
    346    352    363   1    120.0000    292.8800
    353    352    363   1    120.0000    292.8800
    343    353    352   1    120.0000    527.1840
    343    353    354   1    120.0000    527.1840
    352    353    354   1    120.0000    527.1840
    353    354    355   1    120.0000    527.1840
    353    354    364   1    120.0000    292.8800
    355    354    364   1    120.0000    292.8800
    341    355    354   1    120.0000    527.1840
    341    355    365   1    120.0000    292.8800
    354    355    365   1    120.0000    292.8800
    366    367    368   1    123.4000    694.5440
    366    367    369   1    123.7840    627.6000
    368    367    369   1    111.4000    677.8080
    350    368    367   1    116.9000    694.5440
    367    369    370   1    119.5260    502.0800
    367    369    383   1    119.5260    502.0800
    370    369    383   1    120.0000    527.1840
    369    370    371   1    120.0000    527.1840
    369    370    384   1    120.0000    292.8800
    371    370    384   1    120.0000    292.8800
    370    371    372   1    120.0000    527.1840
    370    371    381   1    120.0000    527.1840
    372    371    381   1    120.0000    527.1840
    371    372    373   1    120.0000    527.1840
    371    372    385   1    120.0000    292.8800
    373    372    385   1    120.0000    292.8800
    372    373    374   1    120.0000    527.1840
    372    373    386   1    120.0000    292.8800
    374    373    386   1    120.0000    292.8800
    373    374    375   1    119.5260    502.0800
    373    374    380   1    120.0000    527.1840
    375    374    380   1    119.5260    502.0800
    374    375    376   1    111.4000    677.8080
    374    375    379   1    123.7840    627.6000
    376    375    379   1    123.4000    694.5440
    375    376    377   1    116.9000    694.5440
    376    377    378   1    109.5000    418.4000
    376    377    387   1    109.5000    292.8800
    376    377    388   1    109.5000    292.8800
    378    377    387   1    110.7000    313.8000
    378    377    388   1    110.7000    313.8000
    387    377    388   1    107.8000    276.1440
    377    378    389   1    110.7000    313.8000
    377    378    390   1    110.7000    313.8000
    377    378    396   1    109.5000    418.4000
    389    378    390   1    107.8000    276.1440
    389    378    396   1    109.5000    292.8800
    390    378    396   1    109.5000    292.8800
    374    380    381   1    120.0000    527.1840
    374    380    391   1    120.0000    292.8800
    381    380    391   1    120.0000    292.8800
    371    381    380   1    120.0000    527.1840
    371    381    382   1    120.0000    527.1840
    380    381    382   1    120.0000    527.1840
    381    382    383   1    120.0000    527.1840
    381    382    392   1    120.0000    292.8800
    383    382    392   1    120.0000    292.8800
    369    383    382   1    120.0000    527.1840
    369    383    393   1    120.0000    292.8800
    382    383    393   1    120.0000    292.8800
    394    395    396   1    123.4000    694.5440
    394    395    397   1    123.7840    627.6000
    396    395    397   1    111.4000    677.8080
    378    396    395   1    116.9000    694.5440
    395    397    398   1    119.5260    502.0800
    395    397    411   1    119.5260    502.0800
    398    397    411   1    120.0000    527.1840
    397    398    399   1    120.0000    527.1840
    397    398    412   1    120.0000    292.8800
    399    398    412   1    120.0000    292.8800
    398    399    400   1    120.0000    527.1840
    398    399    409   1    120.0000    527.1840
    400    399    409   1    120.0000    527.1840
    399    400    401   1    120.0000    527.1840
    399    400    413   1    120.0000    292.8800
    401    400    413   1    120.0000    292.8800
    400    401    402   1    120.0000    527.1840
    400    401    414   1    120.0000    292.8800
    402    401    414   1    120.0000    292.8800
    401    402    403   1    119.5260    502.0800
    401    402    408   1    120.0000    527.1840
    403    402    408   1    119.5260    502.0800
    402    403    404   1    111.4000    677.8080
    402    403    407   1    123.7840    627.6000
    404    403    407   1    123.4000    694.5440
    403    404    405   1    116.9000    694.5440
    404    405    406   1    109.5000    418.4000
    404    405    415   1    109.5000    292.8800
    404    405    416   1    109.5000    292.8800
    406    405    415   1    110.7000    313.8000
    406    405    416   1    110.7000    313.8000
    415    405    416   1    107.8000    276.1440
    405    406    417   1    110.7000    313.8000
    405    406    418   1    110.7000    313.8000
    405    406    424   1    109.5000    418.4000
    417    406    418   1    107.8000    276.1440
    417    406    424   1    109.5000    292.8800
    418    406    424   1    109.5000    292.8800
    402    408    409   1    120.0000    527.1840
    402    408    419   1    120.0000    292.8800
    409    408    419   1    120.0000    292.8800
    399    409    408   1    120.0000    527.1840
    399    409    410   1    120.0000    527.1840
    408    409    410   1    120.0000    527.1840
    409    410    411   1    120.0000    527.1840
    409    410    420   1    120.0000    292.8800
    411    410    420   1    120.0000    292.8800
    397    411    410   1    120.0000    527.1840
    397    411    421   1    120.0000    292.8800
    410    411    421   1    120.0000    292.8800
    422    423    424   1    123.4000    694.5440
    422    423    425   1    123.7840    627.6000
    424    423    425   1    111.4000    677.8080
    406    424    423   1    116.9000    694.5440
    423    425    426   1    119.5260    502.0800
    423    425    439   1    119.5260    502.0800
    426    425    439   1    120.0000    527.1840
    425    426    427   1    120.0000    527.1840
    425    426    440   1    120.0000    292.8800
    427    426    440   1    120.0000    292.8800
    426    427    428   1    120.0000    527.1840
    426    427    437   1    120.0000    527.1840
    428    427    437   1    120.0000    527.1840
    427    428    429   1    120.0000    527.1840
    427    428    441   1    120.0000    292.8800
    429    428    441   1    120.0000    292.8800
    428    429    430   1    120.0000    527.1840
    428    429    442   1    120.0000    292.8800
    430    429    442   1    120.0000    292.8800
    429    430    431   1    119.5260    502.0800
    429    430    436   1    120.0000    527.1840
    431    430    436   1    119.5260    502.0800
    430    431    432   1    111.4000    677.8080
    430    431    435   1    123.7840    627.6000
    432    431    435   1    123.4000    694.5440
    431    432    433   1    116.9000    694.5440
    432    433    434   1    109.5000    418.4000
    432    433    443   1    109.5000    292.8800
    432    433    444   1    109.5000    292.8800
    434    433    443   1    110.7000    313.8000
    434    433    444   1    110.7000    313.8000
    443    433    444   1    107.8000    276.1440
    433    434    445   1    110.7000    313.8000
    433    434    446   1    110.7000    313.8000
    433    434    452   1    109.5000    418.4000
    445    434    446   1    107.8000    276.1440
    445    434    452   1    109.5000    292.8800
    446    434    452   1    109.5000    292.8800
    430    436    437   1    120.0000    527.1840
    430    436    447   1    120.0000    292.8800
    437    436    447   1    120.0000    292.8800
    427    437    436   1    120.0000    527.1840
    427    437    438   1    120.0000    527.1840
    436    437    438   1    120.0000    527.1840
    437    438    439   1    120.0000    527.1840
    437    438    448   1    120.0000    292.8800
    439    438    448   1    120.0000    292.8800
    425    439    438   1    120.0000    527.1840
    425    439    449   1    120.0000    292.8800
    438    439    449   1    120.0000    292.8800
    450    451    452   1    123.4000    694.5440
    450    451    453   1    123.7840    627.6000
    452    451    453   1    111.4000    677.8080
    434    452    451   1    116.9000    694.5440
    451    453    454   1    119.5260    502.0800
    451    453    467   1    119.5260    502.0800
    454    453    467   1    120.0000    527.1840
    453    454    455   1    120.0000    527.1840
    453    454    468   1    120.0000    292.8800
    455    454    468   1    120.0000    292.8800
    454    455    456   1    120.0000    527.1840
    454    455    465   1    120.0000    527.1840
    456    455    465   1    120.0000    527.1840
    455    456    457   1    120.0000    527.1840
    455    456    469   1    120.0000    292.8800
    457    456    469   1    120.0000    292.8800
    456    457    458   1    120.0000    527.1840
    456    457    470   1    120.0000    292.8800
    458    457    470   1    120.0000    292.8800
    457    458    459   1    119.5260    502.0800
    457    458    464   1    120.0000    527.1840
    459    458    464   1    119.5260    502.0800
    458    459    460   1    111.4000    677.8080
    458    459    463   1    123.7840    627.6000
    460    459    463   1    123.4000    694.5440
    459    460    461   1    116.9000    694.5440
    460    461    462   1    109.5000    418.4000
    460    461    471   1    109.5000    292.8800
    460    461    472   1    109.5000    292.8800
    462    461    471   1    110.7000    313.8000
    462    461    472   1    110.7000    313.8000
    471    461    472   1    107.8000    276.1440
    461    462    473   1    110.7000    313.8000
    461    462    474   1    110.7000    313.8000
    461    462    480   1    109.5000    418.4000
    473    462    474   1    107.8000    276.1440
    473    462    480   1    109.5000    292.8800
    474    462    480   1    109.5000    292.8800
    458    464    465   1    120.0000    527.1840
    458    464    475   1    120.0000    292.8800
    465    464    475   1    120.0000    292.8800
    455    465    464   1    120.0000    527.1840
    455    465    466   1    120.0000    527.1840
    464    465    466   1    120.0000    527.1840
    465    466    467   1    120.0000    527.1840
    465    466    476   1    120.0000    292.8800
    467    466    476   1    120.0000    292.8800
    453    467    466   1    120.0000    527.1840
    453    467    477   1    120.0000    292.8800
    466    467    477   1    120.0000    292.8800
    478    479    480   1    123.4000    694.5440
    478    479    481   1    123.7840    627.6000
    480    479    481   1    111.4000    677.8080
    462    480    479   1    116.9000    694.5440
    479    481    482   1    119.5260    502.0800
    479    481    495   1    119.5260    502.0800
    482    481    495   1    120.0000    527.1840
    481    482    483   1    120.0000    527.1840
    481    482    496   1    120.0000    292.8800
    483    482    496   1    120.0000    292.8800
    482    483    484   1    120.0000    527.1840
    482    483    493   1    120.0000    527.1840
    484    483    493   1    120.0000    527.1840
    483    484    485   1    120.0000    527.1840
    483    484    497   1    120.0000    292.8800
    485    484    497   1    120.0000    292.8800
    484    485    486   1    120.0000    527.1840
    484    485    498   1    120.0000    292.8800
    486    485    498   1    120.0000    292.8800
    485    486    487   1    119.5260    502.0800
    485    486    492   1    120.0000    527.1840
    487    486    492   1    119.5260    502.0800
    486    487    488   1    111.4000    677.8080
    486    487    491   1    123.7840    627.6000
    488    487    491   1    123.4000    694.5440
    487    488    489   1    116.9000    694.5440
    488    489    490   1    109.5000    418.4000
    488    489    499   1    109.5000    292.8800
    488    489    500   1    109.5000    292.8800
    490    489    499   1    110.7000    313.8000
    490    489    500   1    110.7000    313.8000
    499    489    500   1    107.8000    276.1440
    489    490    501   1    110.7000    313.8000
    489    490    502   1    110.7000    313.8000
    489    490    508   1    109.5000    418.4000
    501    490    502   1    107.8000    276.1440
    501    490    508   1    109.5000    292.8800
    502    490    508   1    109.5000    292.8800
    486    492    493   1    120.0000    527.1840
    486    492    503   1    120.0000    292.8800
    493    492    503   1    120.0000    292.8800
    483    493    492   1    120.0000    527.1840
    483    493    494   1    120.0000    527.1840
    492    493    494   1    120.0000    527.1840
    493    494    495   1    120.0000    527.1840
    493    494    504   1    120.0000    292.8800
    495    494    504   1    120.0000    292.8800
    481    495    494   1    120.0000    527.1840
    481    495    505   1    120.0000    292.8800
    494    495    505   1    120.0000    292.8800
    506    507    508   1    123.4000    694.5440
    506    507    509   1    123.7840    627.6000
    508    507    509   1    111.4000    677.8080
    490    508    507   1    116.9000    694.5440
    507    509    510   1    119.5260    502.0800
    507    509    523   1    119.5260    502.0800
    510    509    523   1    120.0000    527.1840
    509    510    511   1    120.0000    527.1840
    509    510    524   1    120.0000    292.8800
    511    510    524   1    120.0000    292.8800
    510    511    512   1    120.0000    527.1840
    510    511    521   1    120.0000    527.1840
    512    511    521   1    120.0000    527.1840
    511    512    513   1    120.0000    527.1840
    511    512    525   1    120.0000    292.8800
    513    512    525   1    120.0000    292.8800
    512    513    514   1    120.0000    527.1840
    512    513    526   1    120.0000    292.8800
    514    513    526   1    120.0000    292.8800
    513    514    515   1    119.5260    502.0800
    513    514    520   1    120.0000    527.1840
    515    514    520   1    119.5260    502.0800
    514    515    516   1    111.4000    677.8080
    514    515    519   1    123.7840    627.6000
    516    515    519   1    123.4000    694.5440
    515    516    517   1    116.9000    694.5440
    516    517    518   1    109.5000    418.4000
    516    517    527   1    109.5000    292.8800
    516    517    528   1    109.5000    292.8800
    518    517    527   1    110.7000    313.8000
    518    517    528   1    110.7000    313.8000
    527    517    528   1    107.8000    276.1440
    517    518    529   1    110.7000    313.8000
    517    518    530   1    110.7000    313.8000
    517    518    536   1    109.5000    418.4000
    529    518    530   1    107.8000    276.1440
    529    518    536   1    109.5000    292.8800
    530    518    536   1    109.5000    292.8800
    514    520    521   1    120.0000    527.1840
    514    520    531   1    120.0000    292.8800
    521    520    531   1    120.0000    292.8800
    511    521    520   1    120.0000    527.1840
    511    521    522   1    120.0000    527.1840
    520    521    522   1    120.0000    527.1840
    521    522    523   1    120.0000    527.1840
    521    522    532   1    120.0000    292.8800
    523    522    532   1    120.0000    292.8800
    509    523    522   1    120.0000    527.1840
    509    523    533   1    120.0000    292.8800
    522    523    533   1    120.0000    292.8800
    534    535    536   1    123.4000    694.5440
    534    535    537   1    123.7840    627.6000
    536    535    537   1    111.4000    677.8080
    518    536    535   1    116.9000    694.5440
    535    537    538   1    119.5260    502.0800
    535    537    551   1    119.5260    502.0800
    538    537    551   1    120.0000    527.1840
    537    538    539   1    120.0000    527.1840
    537    538    552   1    120.0000    292.8800
    539    538    552   1    120.0000    292.8800
    538    539    540   1    120.0000    527.1840
    538    539    549   1    120.0000    527.1840
    540    539    549   1    120.0000    527.1840
    539    540    541   1    120.0000    527.1840
    539    540    553   1    120.0000    292.8800
    541    540    553   1    120.0000    292.8800
    540    541    542   1    120.0000    527.1840
    540    541    554   1    120.0000    292.8800
    542    541    554   1    120.0000    292.8800
    541    542    543   1    119.5260    502.0800
    541    542    548   1    120.0000    527.1840
    543    542    548   1    119.5260    502.0800
    542    543    544   1    111.4000    677.8080
    542    543    547   1    123.7840    627.6000
    544    543    547   1    123.4000    694.5440
    543    544    545   1    116.9000    694.5440
    544    545    546   1    109.5000    418.4000
    544    545    555   1    109.5000    292.8800
    544    545    556   1    109.5000    292.8800
    546    545    555   1    110.7000    313.8000
    546    545    556   1    110.7000    313.8000
    555    545    556   1    107.8000    276.1440
    545    546    557   1    110.7000    313.8000
    545    546    558   1    110.7000    313.8000
    545    546    562   1    110.7000    313.8000
    557    546    558   1    107.8000    276.1440
    557    546    562   1    107.8000    276.1440
    558    546    562   1    107.8000    276.1440
    542    548    549   1    120.0000    527.1840
    542    548    559   1    120.0000    292.8800
    549    548    559   1    120.0000    292.8800
    539    549    548   1    120.0000    527.1840
    539    549    550   1    120.0000    527.1840
    548    549    550   1    120.0000    527.1840
    549    550    551   1    120.0000    527.1840
    549    550    560   1    120.0000    292.8800
    551    550    560   1    120.0000    292.8800
    537    551    550   1    120.0000    527.1840
    537    551    561   1    120.0000    292.8800
    550    551    561   1    120.0000    292.8800

[ dihedrals ]
; Proper dihedrals
      1      2      3     29   5     7.71530    31.30469     0.00000  0.0
      4      2      3     29   5    18.89076   -16.12514     0.00000  0.0
      1      2      4      5   5     0.00000     8.78640     0.00000  0.0
      1      2      4     18   5     0.00000     8.78640     0.00000  0.0
      3      2      4      5   5     0.00000     3.01248     0.00000  0.0
      3      2      4     18   5     0.00000     3.01248     0.00000  0.0
      2      4      5      6   5     0.00000    30.33400     0.00000  0.0
      2      4      5     19   5     0.00000    30.33400     0.00000  0.0
     18      4      5      6   5     0.00000    30.33400     0.00000  0.0
     18      4      5     19   5     0.00000    30.33400     0.00000  0.0
      2      4     18     17   5     0.00000    30.33400     0.00000  0.0
      2      4     18     28   5     0.00000    30.33400     0.00000  0.0
      5      4     18     17   5     0.00000    30.33400     0.00000  0.0
      5      4     18     28   5     0.00000    30.33400     0.00000  0.0
      4      5      6      7   5     0.00000    30.33400     0.00000  0.0
      4      5      6     16   5     0.00000    30.33400     0.00000  0.0
     19      5      6      7   5     0.00000    30.33400     0.00000  0.0
     19      5      6     16   5     0.00000    30.33400     0.00000  0.0
      5      6      7      8   5     0.00000    30.33400     0.00000  0.0
      5      6      7     20   5     0.00000    30.33400     0.00000  0.0
     16      6      7      8   5     0.00000    30.33400     0.00000  0.0
     16      6      7     20   5     0.00000    30.33400     0.00000  0.0
      5      6     16     15   5     0.00000    30.33400     0.00000  0.0
      5      6     16     17   5     0.00000    30.33400     0.00000  0.0
      7      6     16     15   5     0.00000    30.33400     0.00000  0.0
      7      6     16     17   5     0.00000    30.33400     0.00000  0.0
      6      7      8      9   5     0.00000    30.33400     0.00000  0.0
      6      7      8     21   5     0.00000    30.33400     0.00000  0.0
     20      7      8      9   5     0.00000    30.33400     0.00000  0.0
     20      7      8     21   5     0.00000    30.33400     0.00000  0.0
      7      8      9     10   5     0.00000    30.33400     0.00000  0.0
      7      8      9     15   5     0.00000    30.33400     0.00000  0.0
     21      8      9     10   5     0.00000    30.33400     0.00000  0.0
     21      8      9     15   5     0.00000    30.33400     0.00000  0.0
      8      9     10     11   5     0.00000     8.26340     0.00000  0.0
      8      9     10     14   5     0.00000     8.78640     0.00000  0.0
     15      9     10     11   5     0.00000     8.26340     0.00000  0.0
     15      9     10     14   5     0.00000     8.78640     0.00000  0.0
      8      9     15     16   5     0.00000    30.33400     0.00000  0.0
      8      9     15     26   5     0.00000    30.33400     0.00000  0.0
     10      9     15     16   5     0.00000    30.33400     0.00000  0.0
     10      9     15     26   5     0.00000    30.33400     0.00000  0.0
      9     10     11     12   5     5.01662    27.18345     0.00000  0.0
     14     10     11     12   5     0.00000    25.10400     0.00000  0.0
     10     11     12     13   5    -2.16731    -3.93296     0.98324  0.0
     10     11     12     22   5     0.00000     0.00000     0.67362  0.0
     10     11     12     23   5     0.00000     0.00000     0.67362  0.0
     11     12     13     24   5     0.00000     0.00000     1.95811  0.0
     11     12     13     25   5     0.00000     0.00000     1.95811  0.0
     11     12     13     32   5     9.36379    -9.73617    -2.85767  0.0
     22     12     13     24   5     0.00000     0.00000     1.25520  0.0
     22     12     13     25   5     0.00000     0.00000     1.25520  0.0
     22     12     13     32   5     0.00000     0.00000     1.95811  0.0
     23     12     13     24   5     0.00000     0.00000     1.25520  0.0
     23     12     13     25   5     0.00000     0.00000     1.25520  0.0
     23     12     13     32   5     0.00000     0.00000     1.95811  0.0
     12     13     32     31   5    -2.16731    -3.93296     0.98324  0.0
     24     13     32     31   5     0.00000     0.00000     0.67362  0.0
     25     13     32     31   5     0.00000     0.00000     0.67362  0.0
      9     15     16      6   5     0.00000    30.33400     0.00000  0.0
      9     15     16     17   5     0.00000    30.33400     0.00000  0.0
     26     15     16      6   5     0.00000    30.33400     0.00000  0.0
     26     15     16     17   5     0.00000    30.33400     0.00000  0.0
      6     16     17     18   5     0.00000    30.33400     0.00000  0.0
      6     16     17     27   5     0.00000    30.33400     0.00000  0.0
     15     16     17     18   5     0.00000    30.33400     0.00000  0.0
     15     16     17     27   5     0.00000    30.33400     0.00000  0.0
     16     17     18      4   5     0.00000    30.33400     0.00000  0.0
     16     17     18     28   5     0.00000    30.33400     0.00000  0.0
     27     17     18      4   5     0.00000    30.33400     0.00000  0.0
     27     17     18     28   5     0.00000    30.33400     0.00000  0.0
     30     31     32     13   5     0.00000    25.10400     0.00000  0.0
     33     31     32     13   5     5.01662    27.18345     0.00000  0.0
     30     31     33     34   5     0.00000     8.78640     0.00000  0.0
     30     31     33     47   5     0.00000     8.78640     0.00000  0.0
     32     31     33     34   5     0.00000     8.26340     0.00000  0.0
     32     31     33     47   5     0.00000     8.26340     0.00000  0.0
     31     33     34     35   5     0.00000    30.33400     0.00000  0.0
     31     33     34     48   5     0.00000    30.33400     0.00000  0.0
     47     33     34     35   5     0.00000    30.33400     0.00000  0.0
     47     33     34     48   5     0.00000    30.33400     0.00000  0.0
     31     33     47     46   5     0.00000    30.33400     0.00000  0.0
     31     33     47     57   5     0.00000    30.33400     0.00000  0.0
     34     33     47     46   5     0.00000    30.33400     0.00000  0.0
     34     33     47     57   5     0.00000    30.33400     0.00000  0.0
     33     34     35     36   5     0.00000    30.33400     0.00000  0.0
     33     34     35     45   5     0.00000    30.33400     0.00000  0.0
     48     34     35     36   5     0.00000    30.33400     0.00000  0.0
     48     34     35     45   5     0.00000    30.33400     0.00000  0.0
     34     35     36     37   5     0.00000    30.33400     0.00000  0.0
     34     35     36     49   5     0.00000    30.33400     0.00000  0.0
     45     35     36     37   5     0.00000    30.33400     0.00000  0.0
     45     35     36     49   5     0.00000    30.33400     0.00000  0.0
     34     35     45     44   5     0.00000    30.33400     0.00000  0.0
     34     35     45     46   5     0.00000    30.33400     0.00000  0.0
     36     35     45     44   5     0.00000    30.33400     0.00000  0.0
     36     35     45     46   5     0.00000    30.33400     0.00000  0.0
     35     36     37     38   5     0.00000    30.33400     0.00000  0.0
     35     36     37     50   5     0.00000    30.33400     0.00000  0.0
     49     36     37     38   5     0.00000    30.33400     0.00000  0.0
     49     36     37     50   5     0.00000    30.33400     0.00000  0.0
     36     37     38     39   5     0.00000    30.33400     0.00000  0.0
     36     37     38     44   5     0.00000    30.33400     0.00000  0.0
     50     37     38     39   5     0.00000    30.33400     0.00000  0.0
     50     37     38     44   5     0.00000    30.33400     0.00000  0.0
     37     38     39     40   5     0.00000     8.26340     0.00000  0.0
     37     38     39     43   5     0.00000     8.78640     0.00000  0.0
     44     38     39     40   5     0.00000     8.26340     0.00000  0.0
     44     38     39     43   5     0.00000     8.78640     0.00000  0.0
     37     38     44     45   5     0.00000    30.33400     0.00000  0.0
     37     38     44     55   5     0.00000    30.33400     0.00000  0.0
     39     38     44     45   5     0.00000    30.33400     0.00000  0.0
     39     38     44     55   5     0.00000    30.33400     0.00000  0.0
     38     39     40     41   5     5.01662    27.18345     0.00000  0.0
     43     39     40     41   5     0.00000    25.10400     0.00000  0.0
     39     40     41     42   5    -2.16731    -3.93296     0.98324  0.0
     39     40     41     51   5     0.00000     0.00000     0.67362  0.0
     39     40     41     52   5     0.00000     0.00000     0.67362  0.0
     40     41     42     53   5     0.00000     0.00000     1.95811  0.0
     40     41     42     54   5     0.00000     0.00000     1.95811  0.0
     40     41     42     60   5     9.36379    -9.73617    -2.85767  0.0
     51     41     42     53   5     0.00000     0.00000     1.25520  0.0
     51     41     42     54   5     0.00000     0.00000     1.25520  0.0
     51     41     42     60   5     0.00000     0.00000     1.95811  0.0
     52     41     42     53   5     0.00000     0.00000     1.25520  0.0
     52     41     42     54   5     0.00000     0.00000     1.25520  0.0
     52     41     42     60   5     0.00000     0.00000     1.95811  0.0
     41     42     60     59   5    -2.16731    -3.93296     0.98324  0.0
     53     42     60     59   5     0.00000     0.00000     0.67362  0.0
     54     42     60     59   5     0.00000     0.00000     0.67362  0.0
     38     44     45     35   5     0.00000    30.33400     0.00000  0.0
     38     44     45     46   5     0.00000    30.33400     0.00000  0.0
     55     44     45     35   5     0.00000    30.33400     0.00000  0.0
     55     44     45     46   5     0.00000    30.33400     0.00000  0.0
     35     45     46     47   5     0.00000    30.33400     0.00000  0.0
     35     45     46     56   5     0.00000    30.33400     0.00000  0.0
     44     45     46     47   5     0.00000    30.33400     0.00000  0.0
     44     45     46     56   5     0.00000    30.33400     0.00000  0.0
     45     46     47     33   5     0.00000    30.33400     0.00000  0.0
     45     46     47     57   5     0.00000    30.33400     0.00000  0.0
     56     46     47     33   5     0.00000    30.33400     0.00000  0.0
     56     46     47     57   5     0.00000    30.33400     0.00000  0.0
     58     59     60     42   5     0.00000    25.10400     0.00000  0.0
     61     59     60     42   5     5.01662    27.18345     0.00000  0.0
     58     59     61     62   5     0.00000     8.78640     0.00000  0.0
     58     59     61     75   5     0.00000     8.78640     0.00000  0.0
     60     59     61     62   5     0.00000     8.26340     0.00000  0.0
     60     59     61     75   5     0.00000     8.26340     0.00000  0.0
     59     61     62     63   5     0.00000    30.33400     0.00000  0.0
     59     61     62     76   5     0.00000    30.33400     0.00000  0.0
     75     61     62     63   5     0.00000    30.33400     0.00000  0.0
     75     61     62     76   5     0.00000    30.33400     0.00000  0.0
     59     61     75     74   5     0.00000    30.33400     0.00000  0.0
     59     61     75     85   5     0.00000    30.33400     0.00000  0.0
     62     61     75     74   5     0.00000    30.33400     0.00000  0.0
     62     61     75     85   5     0.00000    30.33400     0.00000  0.0
     61     62     63     64   5     0.00000    30.33400     0.00000  0.0
     61     62     63     73   5     0.00000    30.33400     0.00000  0.0
     76     62     63     64   5     0.00000    30.33400     0.00000  0.0
     76     62     63     73   5     0.00000    30.33400     0.00000  0.0
     62     63     64     65   5     0.00000    30.33400     0.00000  0.0
     62     63     64     77   5     0.00000    30.33400     0.00000  0.0
     73     63     64     65   5     0.00000    30.33400     0.00000  0.0
     73     63     64     77   5     0.00000    30.33400     0.00000  0.0
     62     63     73     72   5     0.00000    30.33400     0.00000  0.0
     62     63     73     74   5     0.00000    30.33400     0.00000  0.0
     64     63     73     72   5     0.00000    30.33400     0.00000  0.0
     64     63     73     74   5     0.00000    30.33400     0.00000  0.0
     63     64     65     66   5     0.00000    30.33400     0.00000  0.0
     63     64     65     78   5     0.00000    30.33400     0.00000  0.0
     77     64     65     66   5     0.00000    30.33400     0.00000  0.0
     77     64     65     78   5     0.00000    30.33400     0.00000  0.0
     64     65     66     67   5     0.00000    30.33400     0.00000  0.0
     64     65     66     72   5     0.00000    30.33400     0.00000  0.0
     78     65     66     67   5     0.00000    30.33400     0.00000  0.0
     78     65     66     72   5     0.00000    30.33400     0.00000  0.0
     65     66     67     68   5     0.00000     8.26340     0.00000  0.0
     65     66     67     71   5     0.00000     8.78640     0.00000  0.0
     72     66     67     68   5     0.00000     8.26340     0.00000  0.0
     72     66     67     71   5     0.00000     8.78640     0.00000  0.0
     65     66     72     73   5     0.00000    30.33400     0.00000  0.0
     65     66     72     83   5     0.00000    30.33400     0.00000  0.0
     67     66     72     73   5     0.00000    30.33400     0.00000  0.0
     67     66     72     83   5     0.00000    30.33400     0.00000  0.0
     66     67     68     69   5     5.01662    27.18345     0.00000  0.0
     71     67     68     69   5     0.00000    25.10400     0.00000  0.0
     67     68     69     70   5    -2.16731    -3.93296     0.98324  0.0
     67     68     69     79   5     0.00000     0.00000     0.67362  0.0
     67     68     69     80   5     0.00000     0.00000     0.67362  0.0
     68     69     70     81   5     0.00000     0.00000     1.95811  0.0
     68     69     70     82   5     0.00000     0.00000     1.95811  0.0
     68     69     70     88   5     9.36379    -9.73617    -2.85767  0.0
     79     69     70     81   5     0.00000     0.00000     1.25520  0.0
     79     69     70     82   5     0.00000     0.00000     1.25520  0.0
     79     69     70     88   5     0.00000     0.00000     1.95811  0.0
     80     69     70     81   5     0.00000     0.00000     1.25520  0.0
     80     69     70     82   5     0.00000     0.00000     1.25520  0.0
     80     69     70     88   5     0.00000     0.00000     1.95811  0.0
     69     70     88     87   5    -2.16731    -3.93296     0.98324  0.0
     81     70     88     87   5     0.00000     0.00000     0.67362  0.0
     82     70     88     87   5     0.00000     0.00000     0.67362  0.0
     66     72     73     63   5     0.00000    30.33400     0.00000  0.0
     66     72     73     74   5     0.00000    30.33400     0.00000  0.0
     83     72     73     63   5     0.00000    30.33400     0.00000  0.0
     83     72     73     74   5     0.00000    30.33400     0.00000  0.0
     63     73     74     75   5     0.00000    30.33400     0.00000  0.0
     63     73     74     84   5     0.00000    30.33400     0.00000  0.0
     72     73     74     75   5     0.00000    30.33400     0.00000  0.0
     72     73     74     84   5     0.00000    30.33400     0.00000  0.0
     73     74     75     61   5     0.00000    30.33400     0.00000  0.0
     73     74     75     85   5     0.00000    30.33400     0.00000  0.0
     84     74     75     61   5     0.00000    30.33400     0.00000  0.0
     84     74     75     85   5     0.00000    30.33400     0.00000  0.0
     86     87     88     70   5     0.00000    25.10400     0.00000  0.0
     89     87     88     70   5     5.01662    27.18345     0.00000  0.0
     86     87     89     90   5     0.00000     8.78640     0.00000  0.0
     86     87     89    103   5     0.00000     8.78640     0.00000  0.0
     88     87     89     90   5     0.00000     8.26340     0.00000  0.0
     88     87     89    103   5     0.00000     8.26340     0.00000  0.0
     87     89     90     91   5     0.00000    30.33400     0.00000  0.0
     87     89     90    104   5     0.00000    30.33400     0.00000  0.0
    103     89     90     91   5     0.00000    30.33400     0.00000  0.0
    103     89     90    104   5     0.00000    30.33400     0.00000  0.0
     87     89    103    102   5     0.00000    30.33400     0.00000  0.0
     87     89    103    113   5     0.00000    30.33400     0.00000  0.0
     90     89    103    102   5     0.00000    30.33400     0.00000  0.0
     90     89    103    113   5     0.00000    30.33400     0.00000  0.0
     89     90     91     92   5     0.00000    30.33400     0.00000  0.0
     89     90     91    101   5     0.00000    30.33400     0.00000  0.0
    104     90     91     92   5     0.00000    30.33400     0.00000  0.0
    104     90     91    101   5     0.00000    30.33400     0.00000  0.0
     90     91     92     93   5     0.00000    30.33400     0.00000  0.0
     90     91     92    105   5     0.00000    30.33400     0.00000  0.0
    101     91     92     93   5     0.00000    30.33400     0.00000  0.0
    101     91     92    105   5     0.00000    30.33400     0.00000  0.0
     90     91    101    100   5     0.00000    30.33400     0.00000  0.0
     90     91    101    102   5     0.00000    30.33400     0.00000  0.0
     92     91    101    100   5     0.00000    30.33400     0.00000  0.0
     92     91    101    102   5     0.00000    30.33400     0.00000  0.0
     91     92     93     94   5     0.00000    30.33400     0.00000  0.0
     91     92     93    106   5     0.00000    30.33400     0.00000  0.0
    105     92     93     94   5     0.00000    30.33400     0.00000  0.0
    105     92     93    106   5     0.00000    30.33400     0.00000  0.0
     92     93     94     95   5     0.00000    30.33400     0.00000  0.0
     92     93     94    100   5     0.00000    30.33400     0.00000  0.0
    106     93     94     95   5     0.00000    30.33400     0.00000  0.0
    106     93     94    100   5     0.00000    30.33400     0.00000  0.0
     93     94     95     96   5     0.00000     8.26340     0.00000  0.0
     93     94     95     99   5     0.00000     8.78640     0.00000  0.0
    100     94     95     96   5     0.00000     8.26340     0.00000  0.0
    100     94     95     99   5     0.00000     8.78640     0.00000  0.0
     93     94    100    101   5     0.00000    30.33400     0.00000  0.0
     93     94    100    111   5     0.00000    30.33400     0.00000  0.0
     95     94    100    101   5     0.00000    30.33400     0.00000  0.0
     95     94    100    111   5     0.00000    30.33400     0.00000  0.0
     94     95     96     97   5     5.01662    27.18345     0.00000  0.0
     99     95     96     97   5     0.00000    25.10400     0.00000  0.0
     95     96     97     98   5    -2.16731    -3.93296     0.98324  0.0
     95     96     97    107   5     0.00000     0.00000     0.67362  0.0
     95     96     97    108   5     0.00000     0.00000     0.67362  0.0
     96     97     98    109   5     0.00000     0.00000     1.95811  0.0
     96     97     98    110   5     0.00000     0.00000     1.95811  0.0
     96     97     98    116   5     9.36379    -9.73617    -2.85767  0.0
    107     97     98    109   5     0.00000     0.00000     1.25520  0.0
    107     97     98    110   5     0.00000     0.00000     1.25520  0.0
    107     97     98    116   5     0.00000     0.00000     1.95811  0.0
    108     97     98    109   5     0.00000     0.00000     1.25520  0.0
    108     97     98    110   5     0.00000     0.00000     1.25520  0.0
    108     97     98    116   5     0.00000     0.00000     1.95811  0.0
     97     98    116    115   5    -2.16731    -3.93296     0.98324  0.0
    109     98    116    115   5     0.00000     0.00000     0.67362  0.0
    110     98    116    115   5     0.00000     0.00000     0.67362  0.0
     94    100    101     91   5     0.00000    30.33400     0.00000  0.0
     94    100    101    102   5     0.00000    30.33400     0.00000  0.0
    111    100    101     91   5     0.00000    30.33400     0.00000  0.0
    111    100    101    102   5     0.00000    30.33400     0.00000  0.0
     91    101    102    103   5     0.00000    30.33400     0.00000  0.0
     91    101    102    112   5     0.00000    30.33400     0.00000  0.0
    100    101    102    103   5     0.00000    30.33400     0.00000  0.0
    100    101    102    112   5     0.00000    30.33400     0.00000  0.0
    101    102    103     89   5     0.00000    30.33400     0.00000  0.0
    101    102    103    113   5     0.00000    30.33400     0.00000  0.0
    112    102    103     89   5     0.00000    30.33400     0.00000  0.0
    112    102    103    113   5     0.00000    30.33400     0.00000  0.0
    114    115    116     98   5     0.00000    25.10400     0.00000  0.0
    117    115    116     98   5     5.01662    27.18345     0.00000  0.0
    114    115    117    118   5     0.00000     8.78640     0.00000  0.0
    114    115    117    131   5     0.00000     8.78640     0.00000  0.0
    116    115    117    118   5     0.00000     8.26340     0.00000  0.0
    116    115    117    131   5     0.00000     8.26340     0.00000  0.0
    115    117    118    119   5     0.00000    30.33400     0.00000  0.0
    115    117    118    132   5     0.00000    30.33400     0.00000  0.0
    131    117    118    119   5     0.00000    30.33400     0.00000  0.0
    131    117    118    132   5     0.00000    30.33400     0.00000  0.0
    115    117    131    130   5     0.00000    30.33400     0.00000  0.0
    115    117    131    141   5     0.00000    30.33400     0.00000  0.0
    118    117    131    130   5     0.00000    30.33400     0.00000  0.0
    118    117    131    141   5     0.00000    30.33400     0.00000  0.0
    117    118    119    120   5     0.00000    30.33400     0.00000  0.0
    117    118    119    129   5     0.00000    30.33400     0.00000  0.0
    132    118    119    120   5     0.00000    30.33400     0.00000  0.0
    132    118    119    129   5     0.00000    30.33400     0.00000  0.0
    118    119    120    121   5     0.00000    30.33400     0.00000  0.0
    118    119    120    133   5     0.00000    30.33400     0.00000  0.0
    129    119    120    121   5     0.00000    30.33400     0.00000  0.0
    129    119    120    133   5     0.00000    30.33400     0.00000  0.0
    118    119    129    128   5     0.00000    30.33400     0.00000  0.0
    118    119    129    130   5     0.00000    30.33400     0.00000  0.0
    120    119    129    128   5     0.00000    30.33400     0.00000  0.0
    120    119    129    130   5     0.00000    30.33400     0.00000  0.0
    119    120    121    122   5     0.00000    30.33400     0.00000  0.0
    119    120    121    134   5     0.00000    30.33400     0.00000  0.0
    133    120    121    122   5     0.00000    30.33400     0.00000  0.0
    133    120    121    134   5     0.00000    30.33400     0.00000  0.0
    120    121    122    123   5     0.00000    30.33400     0.00000  0.0
    120    121    122    128   5     0.00000    30.33400     0.00000  0.0
    134    121    122    123   5     0.00000    30.33400     0.00000  0.0
    134    121    122    128   5     0.00000    30.33400     0.00000  0.0
    121    122    123    124   5     0.00000     8.26340     0.00000  0.0
    121    122    123    127   5     0.00000     8.78640     0.00000  0.0
    128    122    123    124   5     0.00000     8.26340     0.00000  0.0
    128    122    123    127   5     0.00000     8.78640     0.00000  0.0
    121    122    128    129   5     0.00000    30.33400     0.00000  0.0
    121    122    128    139   5     0.00000    30.33400     0.00000  0.0
    123    122    128    129   5     0.00000    30.33400     0.00000  0.0
    123    122    128    139   5     0.00000    30.33400     0.00000  0.0
    122    123    124    125   5     5.01662    27.18345     0.00000  0.0
    127    123    124    125   5     0.00000    25.10400     0.00000  0.0
    123    124    125    126   5    -2.16731    -3.93296     0.98324  0.0
    123    124    125    135   5     0.00000     0.00000     0.67362  0.0
    123    124    125    136   5     0.00000     0.00000     0.67362  0.0
    124    125    126    137   5     0.00000     0.00000     1.95811  0.0
    124    125    126    138   5     0.00000     0.00000     1.95811  0.0
    124    125    126    144   5     9.36379    -9.73617    -2.85767  0.0
    135    125    126    137   5     0.00000     0.00000     1.25520  0.0
    135    125    126    138   5     0.00000     0.00000     1.25520  0.0
    135    125    126    144   5     0.00000     0.00000     1.95811  0.0
    136    125    126    137   5     0.00000     0.00000     1.25520  0.0
    136    125    126    138   5     0.00000     0.00000     1.25520  0.0
    136    125    126    144   5     0.00000     0.00000     1.95811  0.0
    125    126    144    143   5    -2.16731    -3.93296     0.98324  0.0
    137    126    144    143   5     0.00000     0.00000     0.67362  0.0
    138    126    144    143   5     0.00000     0.00000     0.67362  0.0
    122    128    129    119   5     0.00000    30.33400     0.00000  0.0
    122    128    129    130   5     0.00000    30.33400     0.00000  0.0
    139    128    129    119   5     0.00000    30.33400     0.00000  0.0
    139    128    129    130   5     0.00000    30.33400     0.00000  0.0
    119    129    130    131   5     0.00000    30.33400     0.00000  0.0
    119    129    130    140   5     0.00000    30.33400     0.00000  0.0
    128    129    130    131   5     0.00000    30.33400     0.00000  0.0
    128    129    130    140   5     0.00000    30.33400     0.00000  0.0
    129    130    131    117   5     0.00000    30.33400     0.00000  0.0
    129    130    131    141   5     0.00000    30.33400     0.00000  0.0
    140    130    131    117   5     0.00000    30.33400     0.00000  0.0
    140    130    131    141   5     0.00000    30.33400     0.00000  0.0
    142    143    144    126   5     0.00000    25.10400     0.00000  0.0
    145    143    144    126   5     5.01662    27.18345     0.00000  0.0
    142    143    145    146   5     0.00000     8.78640     0.00000  0.0
    142    143    145    159   5     0.00000     8.78640     0.00000  0.0
    144    143    145    146   5     0.00000     8.26340     0.00000  0.0
    144    143    145    159   5     0.00000     8.26340     0.00000  0.0
    143    145    146    147   5     0.00000    30.33400     0.00000  0.0
    143    145    146    160   5     0.00000    30.33400     0.00000  0.0
    159    145    146    147   5     0.00000    30.33400     0.00000  0.0
    159    145    146    160   5     0.00000    30.33400     0.00000  0.0
    143    145    159    158   5     0.00000    30.33400     0.00000  0.0
    143    145    159    169   5     0.00000    30.33400     0.00000  0.0
    146    145    159    158   5     0.00000    30.33400     0.00000  0.0
    146    145    159    169   5     0.00000    30.33400     0.00000  0.0
    145    146    147    148   5     0.00000    30.33400     0.00000  0.0
    145    146    147    157   5     0.00000    30.33400     0.00000  0.0
    160    146    147    148   5     0.00000    30.33400     0.00000  0.0
    160    146    147    157   5     0.00000    30.33400     0.00000  0.0
    146    147    148    149   5     0.00000    30.33400     0.00000  0.0
    146    147    148    161   5     0.00000    30.33400     0.00000  0.0
    157    147    148    149   5     0.00000    30.33400     0.00000  0.0
    157    147    148    161   5     0.00000    30.33400     0.00000  0.0
    146    147    157    156   5     0.00000    30.33400     0.00000  0.0
    146    147    157    158   5     0.00000    30.33400     0.00000  0.0
    148    147    157    156   5     0.00000    30.33400     0.00000  0.0
    148    147    157    158   5     0.00000    30.33400     0.00000  0.0
    147    148    149    150   5     0.00000    30.33400     0.00000  0.0
    147    148    149    162   5     0.00000    30.33400     0.00000  0.0
    161    148    149    150   5     0.00000    30.33400     0.00000  0.0
    161    148    149    162   5     0.00000    30.33400     0.00000  0.0
    148    149    150    151   5     0.00000    30.33400     0.00000  0.0
    148    149    150    156   5     0.00000    30.33400     0.00000  0.0
    162    149    150    151   5     0.00000    30.33400     0.00000  0.0
    162    149    150    156   5     0.00000    30.33400     0.00000  0.0
    149    150    151    152   5     0.00000     8.26340     0.00000  0.0
    149    150    151    155   5     0.00000     8.78640     0.00000  0.0
    156    150    151    152   5     0.00000     8.26340     0.00000  0.0
    156    150    151    155   5     0.00000     8.78640     0.00000  0.0
    149    150    156    157   5     0.00000    30.33400     0.00000  0.0
    149    150    156    167   5     0.00000    30.33400     0.00000  0.0
    151    150    156    157   5     0.00000    30.33400     0.00000  0.0
    151    150    156    167   5     0.00000    30.33400     0.00000  0.0
    150    151    152    153   5     5.01662    27.18345     0.00000  0.0
    155    151    152    153   5     0.00000    25.10400     0.00000  0.0
    151    152    153    154   5    -2.16731    -3.93296     0.98324  0.0
    151    152    153    163   5     0.00000     0.00000     0.67362  0.0
    151    152    153    164   5     0.00000     0.00000     0.67362  0.0
    152    153    154    165   5     0.00000     0.00000     1.95811  0.0
    152    153    154    166   5     0.00000     0.00000     1.95811  0.0
    152    153    154    172   5     9.36379    -9.73617    -2.85767  0.0
    163    153    154    165   5     0.00000     0.00000     1.25520  0.0
    163    153    154    166   5     0.00000     0.00000     1.25520  0.0
    163    153    154    172   5     0.00000     0.00000     1.95811  0.0
    164    153    154    165   5     0.00000     0.00000     1.25520  0.0
    164    153    154    166   5     0.00000     0.00000     1.25520  0.0
    164    153    154    172   5     0.00000     0.00000     1.95811  0.0
    153    154    172    171   5    -2.16731    -3.93296     0.98324  0.0
    165    154    172    171   5     0.00000     0.00000     0.67362  0.0
    166    154    172    171   5     0.00000     0.00000     0.67362  0.0
    150    156    157    147   5     0.00000    30.33400     0.00000  0.0
    150    156    157    158   5     0.00000    30.33400     0.00000  0.0
    167    156    157    147   5     0.00000    30.33400     0.00000  0.0
    167    156    157    158   5     0.00000    30.33400     0.00000  0.0
    147    157    158    159   5     0.00000    30.33400     0.00000  0.0
    147    157    158    168   5     0.00000    30.33400     0.00000  0.0
    156    157    158    159   5     0.00000    30.33400     0.00000  0.0
    156    157    158    168   5     0.00000    30.33400     0.00000  0.0
    157    158    159    145   5     0.00000    30.33400     0.00000  0.0
    157    158    159    169   5     0.00000    30.33400     0.00000  0.0
    168    158    159    145   5     0.00000    30.33400     0.00000  0.0
    168    158    159    169   5     0.00000    30.33400     0.00000  0.0
    170    171    172    154   5     0.00000    25.10400     0.00000  0.0
    173    171    172    154   5     5.01662    27.18345     0.00000  0.0
    170    171    173    174   5     0.00000     8.78640     0.00000  0.0
    170    171    173    187   5     0.00000     8.78640     0.00000  0.0
    172    171    173    174   5     0.00000     8.26340     0.00000  0.0
    172    171    173    187   5     0.00000     8.26340     0.00000  0.0
    171    173    174    175   5     0.00000    30.33400     0.00000  0.0
    171    173    174    188   5     0.00000    30.33400     0.00000  0.0
    187    173    174    175   5     0.00000    30.33400     0.00000  0.0
    187    173    174    188   5     0.00000    30.33400     0.00000  0.0
    171    173    187    186   5     0.00000    30.33400     0.00000  0.0
    171    173    187    197   5     0.00000    30.33400     0.00000  0.0
    174    173    187    186   5     0.00000    30.33400     0.00000  0.0
    174    173    187    197   5     0.00000    30.33400     0.00000  0.0
    173    174    175    176   5     0.00000    30.33400     0.00000  0.0
    173    174    175    185   5     0.00000    30.33400     0.00000  0.0
    188    174    175    176   5     0.00000    30.33400     0.00000  0.0
    188    174    175    185   5     0.00000    30.33400     0.00000  0.0
    174    175    176    177   5     0.00000    30.33400     0.00000  0.0
    174    175    176    189   5     0.00000    30.33400     0.00000  0.0
    185    175    176    177   5     0.00000    30.33400     0.00000  0.0
    185    175    176    189   5     0.00000    30.33400     0.00000  0.0
    174    175    185    184   5     0.00000    30.33400     0.00000  0.0
    174    175    185    186   5     0.00000    30.33400     0.00000  0.0
    176    175    185    184   5     0.00000    30.33400     0.00000  0.0
    176    175    185    186   5     0.00000    30.33400     0.00000  0.0
    175    176    177    178   5     0.00000    30.33400     0.00000  0.0
    175    176    177    190   5     0.00000    30.33400     0.00000  0.0
    189    176    177    178   5     0.00000    30.33400     0.00000  0.0
    189    176    177    190   5     0.00000    30.33400     0.00000  0.0
    176    177    178    179   5     0.00000    30.33400     0.00000  0.0
    176    177    178    184   5     0.00000    30.33400     0.00000  0.0
    190    177    178    179   5     0.00000    30.33400     0.00000  0.0
    190    177    178    184   5     0.00000    30.33400     0.00000  0.0
    177    178    179    180   5     0.00000     8.26340     0.00000  0.0
    177    178    179    183   5     0.00000     8.78640     0.00000  0.0
    184    178    179    180   5     0.00000     8.26340     0.00000  0.0
    184    178    179    183   5     0.00000     8.78640     0.00000  0.0
    177    178    184    185   5     0.00000    30.33400     0.00000  0.0
    177    178    184    195   5     0.00000    30.33400     0.00000  0.0
    179    178    184    185   5     0.00000    30.33400     0.00000  0.0
    179    178    184    195   5     0.00000    30.33400     0.00000  0.0
    178    179    180    181   5     5.01662    27.18345     0.00000  0.0
    183    179    180    181   5     0.00000    25.10400     0.00000  0.0
    179    180    181    182   5    -2.16731    -3.93296     0.98324  0.0
    179    180    181    191   5     0.00000     0.00000     0.67362  0.0
    179    180    181    192   5     0.00000     0.00000     0.67362  0.0
    180    181    182    193   5     0.00000     0.00000     1.95811  0.0
    180    181    182    194   5     0.00000     0.00000     1.95811  0.0
    180    181    182    200   5     9.36379    -9.73617    -2.85767  0.0
    191    181    182    193   5     0.00000     0.00000     1.25520  0.0
    191    181    182    194   5     0.00000     0.00000     1.25520  0.0
    191    181    182    200   5     0.00000     0.00000     1.95811  0.0
    192    181    182    193   5     0.00000     0.00000     1.25520  0.0
    192    181    182    194   5     0.00000     0.00000     1.25520  0.0
    192    181    182    200   5     0.00000     0.00000     1.95811  0.0
    181    182    200    199   5    -2.16731    -3.93296     0.98324  0.0
    193    182    200    199   5     0.00000     0.00000     0.67362  0.0
    194    182    200    199   5     0.00000     0.00000     0.67362  0.0
    178    184    185    175   5     0.00000    30.33400     0.00000  0.0
    178    184    185    186   5     0.00000    30.33400     0.00000  0.0
    195    184    185    175   5     0.00000    30.33400     0.00000  0.0
    195    184    185    186   5     0.00000    30.33400     0.00000  0.0
    175    185    186    187   5     0.00000    30.33400     0.00000  0.0
    175    185    186    196   5     0.00000    30.33400     0.00000  0.0
    184    185    186    187   5     0.00000    30.33400     0.00000  0.0
    184    185    186    196   5     0.00000    30.33400     0.00000  0.0
    185    186    187    173   5     0.00000    30.33400     0.00000  0.0
    185    186    187    197   5     0.00000    30.33400     0.00000  0.0
    196    186    187    173   5     0.00000    30.33400     0.00000  0.0
    196    186    187    197   5     0.00000    30.33400     0.00000  0.0
    198    199    200    182   5     0.00000    25.10400     0.00000  0.0
    201    199    200    182   5     5.01662    27.18345     0.00000  0.0
    198    199    201    202   5     0.00000     8.78640     0.00000  0.0
    198    199    201    215   5     0.00000     8.78640     0.00000  0.0
    200    199    201    202   5     0.00000     8.26340     0.00000  0.0
    200    199    201    215   5     0.00000     8.26340     0.00000  0.0
    199    201    202    203   5     0.00000    30.33400     0.00000  0.0
    199    201    202    216   5     0.00000    30.33400     0.00000  0.0
    215    201    202    203   5     0.00000    30.33400     0.00000  0.0
    215    201    202    216   5     0.00000    30.33400     0.00000  0.0
    199    201    215    214   5     0.00000    30.33400     0.00000  0.0
    199    201    215    225   5     0.00000    30.33400     0.00000  0.0
    202    201    215    214   5     0.00000    30.33400     0.00000  0.0
    202    201    215    225   5     0.00000    30.33400     0.00000  0.0
    201    202    203    204   5     0.00000    30.33400     0.00000  0.0
    201    202    203    213   5     0.00000    30.33400     0.00000  0.0
    216    202    203    204   5     0.00000    30.33400     0.00000  0.0
    216    202    203    213   5     0.00000    30.33400     0.00000  0.0
    202    203    204    205   5     0.00000    30.33400     0.00000  0.0
    202    203    204    217   5     0.00000    30.33400     0.00000  0.0
    213    203    204    205   5     0.00000    30.33400     0.00000  0.0
    213    203    204    217   5     0.00000    30.33400     0.00000  0.0
    202    203    213    212   5     0.00000    30.33400     0.00000  0.0
    202    203    213    214   5     0.00000    30.33400     0.00000  0.0
    204    203    213    212   5     0.00000    30.33400     0.00000  0.0
    204    203    213    214   5     0.00000    30.33400     0.00000  0.0
    203    204    205    206   5     0.00000    30.33400     0.00000  0.0
    203    204    205    218   5     0.00000    30.33400     0.00000  0.0
    217    204    205    206   5     0.00000    30.33400     0.00000  0.0
    217    204    205    218   5     0.00000    30.33400     0.00000  0.0
    204    205    206    207   5     0.00000    30.33400     0.00000  0.0
    204    205    206    212   5     0.00000    30.33400     0.00000  0.0
    218    205    206    207   5     0.00000    30.33400     0.00000  0.0
    218    205    206    212   5     0.00000    30.33400     0.00000  0.0
    205    206    207    208   5     0.00000     8.26340     0.00000  0.0
    205    206    207    211   5     0.00000     8.78640     0.00000  0.0
    212    206    207    208   5     0.00000     8.26340     0.00000  0.0
    212    206    207    211   5     0.00000     8.78640     0.00000  0.0
    205    206    212    213   5     0.00000    30.33400     0.00000  0.0
    205    206    212    223   5     0.00000    30.33400     0.00000  0.0
    207    206    212    213   5     0.00000    30.33400     0.00000  0.0
    207    206    212    223   5     0.00000    30.33400     0.00000  0.0
    206    207    208    209   5     5.01662    27.18345     0.00000  0.0
    211    207    208    209   5     0.00000    25.10400     0.00000  0.0
    207    208    209    210   5    -2.16731    -3.93296     0.98324  0.0
    207    208    209    219   5     0.00000     0.00000     0.67362  0.0
    207    208    209    220   5     0.00000     0.00000     0.67362  0.0
    208    209    210    221   5     0.00000     0.00000     1.95811  0.0
    208    209    210    222   5     0.00000     0.00000     1.95811  0.0
    208    209    210    228   5     9.36379    -9.73617    -2.85767  0.0
    219    209    210    221   5     0.00000     0.00000     1.25520  0.0
    219    209    210    222   5     0.00000     0.00000     1.25520  0.0
    219    209    210    228   5     0.00000     0.00000     1.95811  0.0
    220    209    210    221   5     0.00000     0.00000     1.25520  0.0
    220    209    210    222   5     0.00000     0.00000     1.25520  0.0
    220    209    210    228   5     0.00000     0.00000     1.95811  0.0
    209    210    228    227   5    -2.16731    -3.93296     0.98324  0.0
    221    210    228    227   5     0.00000     0.00000     0.67362  0.0
    222    210    228    227   5     0.00000     0.00000     0.67362  0.0
    206    212    213    203   5     0.00000    30.33400     0.00000  0.0
    206    212    213    214   5     0.00000    30.33400     0.00000  0.0
    223    212    213    203   5     0.00000    30.33400     0.00000  0.0
    223    212    213    214   5     0.00000    30.33400     0.00000  0.0
    203    213    214    215   5     0.00000    30.33400     0.00000  0.0
    203    213    214    224   5     0.00000    30.33400     0.00000  0.0
    212    213    214    215   5     0.00000    30.33400     0.00000  0.0
    212    213    214    224   5     0.00000    30.33400     0.00000  0.0
    213    214    215    201   5     0.00000    30.33400     0.00000  0.0
    213    214    215    225   5     0.00000    30.33400     0.00000  0.0
    224    214    215    201   5     0.00000    30.33400     0.00000  0.0
    224    214    215    225   5     0.00000    30.33400     0.00000  0.0
    226    227    228    210   5     0.00000    25.10400     0.00000  0.0
    229    227    228    210   5     5.01662    27.18345     0.00000  0.0
    226    227    229    230   5     0.00000     8.78640     0.00000  0.0
    226    227    229    243   5     0.00000     8.78640     0.00000  0.0
    228    227    229    230   5     0.00000     8.26340     0.00000  0.0
    228    227    229    243   5     0.00000     8.26340     0.00000  0.0
    227    229    230    231   5     0.00000    30.33400     0.00000  0.0
    227    229    230    244   5     0.00000    30.33400     0.00000  0.0
    243    229    230    231   5     0.00000    30.33400     0.00000  0.0
    243    229    230    244   5     0.00000    30.33400     0.00000  0.0
    227    229    243    242   5     0.00000    30.33400     0.00000  0.0
    227    229    243    253   5     0.00000    30.33400     0.00000  0.0
    230    229    243    242   5     0.00000    30.33400     0.00000  0.0
    230    229    243    253   5     0.00000    30.33400     0.00000  0.0
    229    230    231    232   5     0.00000    30.33400     0.00000  0.0
    229    230    231    241   5     0.00000    30.33400     0.00000  0.0
    244    230    231    232   5     0.00000    30.33400     0.00000  0.0
    244    230    231    241   5     0.00000    30.33400     0.00000  0.0
    230    231    232    233   5     0.00000    30.33400     0.00000  0.0
    230    231    232    245   5     0.00000    30.33400     0.00000  0.0
    241    231    232    233   5     0.00000    30.33400     0.00000  0.0
    241    231    232    245   5     0.00000    30.33400     0.00000  0.0
    230    231    241    240   5     0.00000    30.33400     0.00000  0.0
    230    231    241    242   5     0.00000    30.33400     0.00000  0.0
    232    231    241    240   5     0.00000    30.33400     0.00000  0.0
    232    231    241    242   5     0.00000    30.33400     0.00000  0.0
    231    232    233    234   5     0.00000    30.33400     0.00000  0.0
    231    232    233    246   5     0.00000    30.33400     0.00000  0.0
    245    232    233    234   5     0.00000    30.33400     0.00000  0.0
    245    232    233    246   5     0.00000    30.33400     0.00000  0.0
    232    233    234    235   5     0.00000    30.33400     0.00000  0.0
    232    233    234    240   5     0.00000    30.33400     0.00000  0.0
    246    233    234    235   5     0.00000    30.33400     0.00000  0.0
    246    233    234    240   5     0.00000    30.33400     0.00000  0.0
    233    234    235    236   5     0.00000     8.26340     0.00000  0.0
    233    234    235    239   5     0.00000     8.78640     0.00000  0.0
    240    234    235    236   5     0.00000     8.26340     0.00000  0.0
    240    234    235    239   5     0.00000     8.78640     0.00000  0.0
    233    234    240    241   5     0.00000    30.33400     0.00000  0.0
    233    234    240    251   5     0.00000    30.33400     0.00000  0.0
    235    234    240    241   5     0.00000    30.33400     0.00000  0.0
    235    234    240    251   5     0.00000    30.33400     0.00000  0.0
    234    235    236    237   5     5.01662    27.18345     0.00000  0.0
    239    235    236    237   5     0.00000    25.10400     0.00000  0.0
    235    236    237    238   5    -2.16731    -3.93296     0.98324  0.0
    235    236    237    247   5     0.00000     0.00000     0.67362  0.0
    235    236    237    248   5     0.00000     0.00000     0.67362  0.0
    236    237    238    249   5     0.00000     0.00000     1.95811  0.0
    236    237    238    250   5     0.00000     0.00000     1.95811  0.0
    236    237    238    256   5     9.36379    -9.73617    -2.85767  0.0
    247    237    238    249   5     0.00000     0.00000     1.25520  0.0
    247    237    238    250   5     0.00000     0.00000     1.25520  0.0
    247    237    238    256   5     0.00000     0.00000     1.95811  0.0
    248    237    238    249   5     0.00000     0.00000     1.25520  0.0
    248    237    238    250   5     0.00000     0.00000     1.25520  0.0
    248    237    238    256   5     0.00000     0.00000     1.95811  0.0
    237    238    256    255   5    -2.16731    -3.93296     0.98324  0.0
    249    238    256    255   5     0.00000     0.00000     0.67362  0.0
    250    238    256    255   5     0.00000     0.00000     0.67362  0.0
    234    240    241    231   5     0.00000    30.33400     0.00000  0.0
    234    240    241    242   5     0.00000    30.33400     0.00000  0.0
    251    240    241    231   5     0.00000    30.33400     0.00000  0.0
    251    240    241    242   5     0.00000    30.33400     0.00000  0.0
    231    241    242    243   5     0.00000    30.33400     0.00000  0.0
    231    241    242    252   5     0.00000    30.33400     0.00000  0.0
    240    241    242    243   5     0.00000    30.33400     0.00000  0.0
    240    241    242    252   5     0.00000    30.33400     0.00000  0.0
    241    242    243    229   5     0.00000    30.33400     0.00000  0.0
    241    242    243    253   5     0.00000    30.33400     0.00000  0.0
    252    242    243    229   5     0.00000    30.33400     0.00000  0.0
    252    242    243    253   5     0.00000    30.33400     0.00000  0.0
    254    255    256    238   5     0.00000    25.10400     0.00000  0.0
    257    255    256    238   5     5.01662    27.18345     0.00000  0.0
    254    255    257    258   5     0.00000     8.78640     0.00000  0.0
    254    255    257    271   5     0.00000     8.78640     0.00000  0.0
    256    255    257    258   5     0.00000     8.26340     0.00000  0.0
    256    255    257    271   5     0.00000     8.26340     0.00000  0.0
    255    257    258    259   5     0.00000    30.33400     0.00000  0.0
    255    257    258    272   5     0.00000    30.33400     0.00000  0.0
    271    257    258    259   5     0.00000    30.33400     0.00000  0.0
    271    257    258    272   5     0.00000    30.33400     0.00000  0.0
    255    257    271    270   5     0.00000    30.33400     0.00000  0.0
    255    257    271    281   5     0.00000    30.33400     0.00000  0.0
    258    257    271    270   5     0.00000    30.33400     0.00000  0.0
    258    257    271    281   5     0.00000    30.33400     0.00000  0.0
    257    258    259    260   5     0.00000    30.33400     0.00000  0.0
    257    258    259    269   5     0.00000    30.33400     0.00000  0.0
    272    258    259    260   5     0.00000    30.33400     0.00000  0.0
    272    258    259    269   5     0.00000    30.33400     0.00000  0.0
    258    259    260    261   5     0.00000    30.33400     0.00000  0.0
    258    259    260    273   5     0.00000    30.33400     0.00000  0.0
    269    259    260    261   5     0.00000    30.33400     0.00000  0.0
    269    259    260    273   5     0.00000    30.33400     0.00000  0.0
    258    259    269    268   5     0.00000    30.33400     0.00000  0.0
    258    259    269    270   5     0.00000    30.33400     0.00000  0.0
    260    259    269    268   5     0.00000    30.33400     0.00000  0.0
    260    259    269    270   5     0.00000    30.33400     0.00000  0.0
    259    260    261    262   5     0.00000    30.33400     0.00000  0.0
    259    260    261    274   5     0.00000    30.33400     0.00000  0.0
    273    260    261    262   5     0.00000    30.33400     0.00000  0.0
    273    260    261    274   5     0.00000    30.33400     0.00000  0.0
    260    261    262    263   5     0.00000    30.33400     0.00000  0.0
    260    261    262    268   5     0.00000    30.33400     0.00000  0.0
    274    261    262    263   5     0.00000    30.33400     0.00000  0.0
    274    261    262    268   5     0.00000    30.33400     0.00000  0.0
    261    262    263    264   5     0.00000     8.26340     0.00000  0.0
    261    262    263    267   5     0.00000     8.78640     0.00000  0.0
    268    262    263    264   5     0.00000     8.26340     0.00000  0.0
    268    262    263    267   5     0.00000     8.78640     0.00000  0.0
    261    262    268    269   5     0.00000    30.33400     0.00000  0.0
    261    262    268    279   5     0.00000    30.33400     0.00000  0.0
    263    262    268    269   5     0.00000    30.33400     0.00000  0.0
    263    262    268    279   5     0.00000    30.33400     0.00000  0.0
    262    263    264    265   5     5.01662    27.18345     0.00000  0.0
    267    263    264    265   5     0.00000    25.10400     0.00000  0.0
    263    264    265    266   5    -2.16731    -3.93296     0.98324  0.0
    263    264    265    275   5     0.00000     0.00000     0.67362  0.0
    263    264    265    276   5     0.00000     0.00000     0.67362  0.0
    264    265    266    277   5     0.00000     0.00000     1.95811  0.0
    264    265    266    278   5     0.00000     0.00000     1.95811  0.0
    264    265    266    284   5     9.36379    -9.73617    -2.85767  0.0
    275    265    266    277   5     0.00000     0.00000     1.25520  0.0
    275    265    266    278   5     0.00000     0.00000     1.25520  0.0
    275    265    266    284   5     0.00000     0.00000     1.95811  0.0
    276    265    266    277   5     0.00000     0.00000     1.25520  0.0
    276    265    266    278   5     0.00000     0.00000     1.25520  0.0
    276    265    266    284   5     0.00000     0.00000     1.95811  0.0
    265    266    284    283   5    -2.16731    -3.93296     0.98324  0.0
    277    266    284    283   5     0.00000     0.00000     0.67362  0.0
    278    266    284    283   5     0.00000     0.00000     0.67362  0.0
    262    268    269    259   5     0.00000    30.33400     0.00000  0.0
    262    268    269    270   5     0.00000    30.33400     0.00000  0.0
    279    268    269    259   5     0.00000    30.33400     0.00000  0.0
    279    268    269    270   5     0.00000    30.33400     0.00000  0.0
    259    269    270    271   5     0.00000    30.33400     0.00000  0.0
    259    269    270    280   5     0.00000    30.33400     0.00000  0.0
    268    269    270    271   5     0.00000    30.33400     0.00000  0.0
    268    269    270    280   5     0.00000    30.33400     0.00000  0.0
    269    270    271    257   5     0.00000    30.33400     0.00000  0.0
    269    270    271    281   5     0.00000    30.33400     0.00000  0.0
    280    270    271    257   5     0.00000    30.33400     0.00000  0.0
    280    270    271    281   5     0.00000    30.33400     0.00000  0.0
    282    283    284    266   5     0.00000    25.10400     0.00000  0.0
    285    283    284    266   5     5.01662    27.18345     0.00000  0.0
    282    283    285    286   5     0.00000     8.78640     0.00000  0.0
    282    283    285    299   5     0.00000     8.78640     0.00000  0.0
    284    283    285    286   5     0.00000     8.26340     0.00000  0.0
    284    283    285    299   5     0.00000     8.26340     0.00000  0.0
    283    285    286    287   5     0.00000    30.33400     0.00000  0.0
    283    285    286    300   5     0.00000    30.33400     0.00000  0.0
    299    285    286    287   5     0.00000    30.33400     0.00000  0.0
    299    285    286    300   5     0.00000    30.33400     0.00000  0.0
    283    285    299    298   5     0.00000    30.33400     0.00000  0.0
    283    285    299    309   5     0.00000    30.33400     0.00000  0.0
    286    285    299    298   5     0.00000    30.33400     0.00000  0.0
    286    285    299    309   5     0.00000    30.33400     0.00000  0.0
    285    286    287    288   5     0.00000    30.33400     0.00000  0.0
    285    286    287    297   5     0.00000    30.33400     0.00000  0.0
    300    286    287    288   5     0.00000    30.33400     0.00000  0.0
    300    286    287    297   5     0.00000    30.33400     0.00000  0.0
    286    287    288    289   5     0.00000    30.33400     0.00000  0.0
    286    287    288    301   5     0.00000    30.33400     0.00000  0.0
    297    287    288    289   5     0.00000    30.33400     0.00000  0.0
    297    287    288    301   5     0.00000    30.33400     0.00000  0.0
    286    287    297    296   5     0.00000    30.33400     0.00000  0.0
    286    287    297    298   5     0.00000    30.33400     0.00000  0.0
    288    287    297    296   5     0.00000    30.33400     0.00000  0.0
    288    287    297    298   5     0.00000    30.33400     0.00000  0.0
    287    288    289    290   5     0.00000    30.33400     0.00000  0.0
    287    288    289    302   5     0.00000    30.33400     0.00000  0.0
    301    288    289    290   5     0.00000    30.33400     0.00000  0.0
    301    288    289    302   5     0.00000    30.33400     0.00000  0.0
    288    289    290    291   5     0.00000    30.33400     0.00000  0.0
    288    289    290    296   5     0.00000    30.33400     0.00000  0.0
    302    289    290    291   5     0.00000    30.33400     0.00000  0.0
    302    289    290    296   5     0.00000    30.33400     0.00000  0.0
    289    290    291    292   5     0.00000     8.26340     0.00000  0.0
    289    290    291    295   5     0.00000     8.78640     0.00000  0.0
    296    290    291    292   5     0.00000     8.26340     0.00000  0.0
    296    290    291    295   5     0.00000     8.78640     0.00000  0.0
    289    290    296    297   5     0.00000    30.33400     0.00000  0.0
    289    290    296    307   5     0.00000    30.33400     0.00000  0.0
    291    290    296    297   5     0.00000    30.33400     0.00000  0.0
    291    290    296    307   5     0.00000    30.33400     0.00000  0.0
    290    291    292    293   5     5.01662    27.18345     0.00000  0.0
    295    291    292    293   5     0.00000    25.10400     0.00000  0.0
    291    292    293    294   5    -2.16731    -3.93296     0.98324  0.0
    291    292    293    303   5     0.00000     0.00000     0.67362  0.0
    291    292    293    304   5     0.00000     0.00000     0.67362  0.0
    292    293    294    305   5     0.00000     0.00000     1.95811  0.0
    292    293    294    306   5     0.00000     0.00000     1.95811  0.0
    292    293    294    312   5     9.36379    -9.73617    -2.85767  0.0
    303    293    294    305   5     0.00000     0.00000     1.25520  0.0
    303    293    294    306   5     0.00000     0.00000     1.25520  0.0
    303    293    294    312   5     0.00000     0.00000     1.95811  0.0
    304    293    294    305   5     0.00000     0.00000     1.25520  0.0
    304    293    294    306   5     0.00000     0.00000     1.25520  0.0
    304    293    294    312   5     0.00000     0.00000     1.95811  0.0
    293    294    312    311   5    -2.16731    -3.93296     0.98324  0.0
    305    294    312    311   5     0.00000     0.00000     0.67362  0.0
    306    294    312    311   5     0.00000     0.00000     0.67362  0.0
    290    296    297    287   5     0.00000    30.33400     0.00000  0.0
    290    296    297    298   5     0.00000    30.33400     0.00000  0.0
    307    296    297    287   5     0.00000    30.33400     0.00000  0.0
    307    296    297    298   5     0.00000    30.33400     0.00000  0.0
    287    297    298    299   5     0.00000    30.33400     0.00000  0.0
    287    297    298    308   5     0.00000    30.33400     0.00000  0.0
    296    297    298    299   5     0.00000    30.33400     0.00000  0.0
    296    297    298    308   5     0.00000    30.33400     0.00000  0.0
    297    298    299    285   5     0.00000    30.33400     0.00000  0.0
    297    298    299    309   5     0.00000    30.33400     0.00000  0.0
    308    298    299    285   5     0.00000    30.33400     0.00000  0.0
    308    298    299    309   5     0.00000    30.33400     0.00000  0.0
    310    311    312    294   5     0.00000    25.10400     0.00000  0.0
    313    311    312    294   5     5.01662    27.18345     0.00000  0.0
    310    311    313    314   5     0.00000     8.78640     0.00000  0.0
    310    311    313    327   5     0.00000     8.78640     0.00000  0.0
    312    311    313    314   5     0.00000     8.26340     0.00000  0.0
    312    311    313    327   5     0.00000     8.26340     0.00000  0.0
    311    313    314    315   5     0.00000    30.33400     0.00000  0.0
    311    313    314    328   5     0.00000    30.33400     0.00000  0.0
    327    313    314    315   5     0.00000    30.33400     0.00000  0.0
    327    313    314    328   5     0.00000    30.33400     0.00000  0.0
    311    313    327    326   5     0.00000    30.33400     0.00000  0.0
    311    313    327    337   5     0.00000    30.33400     0.00000  0.0
    314    313    327    326   5     0.00000    30.33400     0.00000  0.0
    314    313    327    337   5     0.00000    30.33400     0.00000  0.0
    313    314    315    316   5     0.00000    30.33400     0.00000  0.0
    313    314    315    325   5     0.00000    30.33400     0.00000  0.0
    328    314    315    316   5     0.00000    30.33400     0.00000  0.0
    328    314    315    325   5     0.00000    30.33400     0.00000  0.0
    314    315    316    317   5     0.00000    30.33400     0.00000  0.0
    314    315    316    329   5     0.00000    30.33400     0.00000  0.0
    325    315    316    317   5     0.00000    30.33400     0.00000  0.0
    325    315    316    329   5     0.00000    30.33400     0.00000  0.0
    314    315    325    324   5     0.00000    30.33400     0.00000  0.0
    314    315    325    326   5     0.00000    30.33400     0.00000  0.0
    316    315    325    324   5     0.00000    30.33400     0.00000  0.0
    316    315    325    326   5     0.00000    30.33400     0.00000  0.0
    315    316    317    318   5     0.00000    30.33400     0.00000  0.0
    315    316    317    330   5     0.00000    30.33400     0.00000  0.0
    329    316    317    318   5     0.00000    30.33400     0.00000  0.0
    329    316    317    330   5     0.00000    30.33400     0.00000  0.0
    316    317    318    319   5     0.00000    30.33400     0.00000  0.0
    316    317    318    324   5     0.00000    30.33400     0.00000  0.0
    330    317    318    319   5     0.00000    30.33400     0.00000  0.0
    330    317    318    324   5     0.00000    30.33400     0.00000  0.0
    317    318    319    320   5     0.00000     8.26340     0.00000  0.0
    317    318    319    323   5     0.00000     8.78640     0.00000  0.0
    324    318    319    320   5     0.00000     8.26340     0.00000  0.0
    324    318    319    323   5     0.00000     8.78640     0.00000  0.0
    317    318    324    325   5     0.00000    30.33400     0.00000  0.0
    317    318    324    335   5     0.00000    30.33400     0.00000  0.0
    319    318    324    325   5     0.00000    30.33400     0.00000  0.0
    319    318    324    335   5     0.00000    30.33400     0.00000  0.0
    318    319    320    321   5     5.01662    27.18345     0.00000  0.0
    323    319    320    321   5     0.00000    25.10400     0.00000  0.0
    319    320    321    322   5    -2.16731    -3.93296     0.98324  0.0
    319    320    321    331   5     0.00000     0.00000     0.67362  0.0
    319    320    321    332   5     0.00000     0.00000     0.67362  0.0
    320    321    322    333   5     0.00000     0.00000     1.95811  0.0
    320    321    322    334   5     0.00000     0.00000     1.95811  0.0
    320    321    322    340   5     9.36379    -9.73617    -2.85767  0.0
    331    321    322    333   5     0.00000     0.00000     1.25520  0.0
    331    321    322    334   5     0.00000     0.00000     1.25520  0.0
    331    321    322    340   5     0.00000     0.00000     1.95811  0.0
    332    321    322    333   5     0.00000     0.00000     1.25520  0.0
    332    321    322    334   5     0.00000     0.00000     1.25520  0.0
    332    321    322    340   5     0.00000     0.00000     1.95811  0.0
    321    322    340    339   5    -2.16731    -3.93296     0.98324  0.0
    333    322    340    339   5     0.00000     0.00000     0.67362  0.0
    334    322    340    339   5     0.00000     0.00000     0.67362  0.0
    318    324    325    315   5     0.00000    30.33400     0.00000  0.0
    318    324    325    326   5     0.00000    30.33400     0.00000  0.0
    335    324    325    315   5     0.00000    30.33400     0.00000  0.0
    335    324    325    326   5     0.00000    30.33400     0.00000  0.0
    315    325    326    327   5     0.00000    30.33400     0.00000  0.0
    315    325    326    336   5     0.00000    30.33400     0.00000  0.0
    324    325    326    327   5     0.00000    30.33400     0.00000  0.0
    324    325    326    336   5     0.00000    30.33400     0.00000  0.0
    325    326    327    313   5     0.00000    30.33400     0.00000  0.0
    325    326    327    337   5     0.00000    30.33400     0.00000  0.0
    336    326    327    313   5     0.00000    30.33400     0.00000  0.0
    336    326    327    337   5     0.00000    30.33400     0.00000  0.0
    338    339    340    322   5     0.00000    25.10400     0.00000  0.0
    341    339    340    322   5     5.01662    27.18345     0.00000  0.0
    338    339    341    342   5     0.00000     8.78640     0.00000  0.0
    338    339    341    355   5     0.00000     8.78640     0.00000  0.0
    340    339    341    342   5     0.00000     8.26340     0.00000  0.0
    340    339    341    355   5     0.00000     8.26340     0.00000  0.0
    339    341    342    343   5     0.00000    30.33400     0.00000  0.0
    339    341    342    356   5     0.00000    30.33400     0.00000  0.0
    355    341    342    343   5     0.00000    30.33400     0.00000  0.0
    355    341    342    356   5     0.00000    30.33400     0.00000  0.0
    339    341    355    354   5     0.00000    30.33400     0.00000  0.0
    339    341    355    365   5     0.00000    30.33400     0.00000  0.0
    342    341    355    354   5     0.00000    30.33400     0.00000  0.0
    342    341    355    365   5     0.00000    30.33400     0.00000  0.0
    341    342    343    344   5     0.00000    30.33400     0.00000  0.0
    341    342    343    353   5     0.00000    30.33400     0.00000  0.0
    356    342    343    344   5     0.00000    30.33400     0.00000  0.0
    356    342    343    353   5     0.00000    30.33400     0.00000  0.0
    342    343    344    345   5     0.00000    30.33400     0.00000  0.0
    342    343    344    357   5     0.00000    30.33400     0.00000  0.0
    353    343    344    345   5     0.00000    30.33400     0.00000  0.0
    353    343    344    357   5     0.00000    30.33400     0.00000  0.0
    342    343    353    352   5     0.00000    30.33400     0.00000  0.0
    342    343    353    354   5     0.00000    30.33400     0.00000  0.0
    344    343    353    352   5     0.00000    30.33400     0.00000  0.0
    344    343    353    354   5     0.00000    30.33400     0.00000  0.0
    343    344    345    346   5     0.00000    30.33400     0.00000  0.0
    343    344    345    358   5     0.00000    30.33400     0.00000  0.0
    357    344    345    346   5     0.00000    30.33400     0.00000  0.0
    357    344    345    358   5     0.00000    30.33400     0.00000  0.0
    344    345    346    347   5     0.00000    30.33400     0.00000  0.0
    344    345    346    352   5     0.00000    30.33400     0.00000  0.0
    358    345    346    347   5     0.00000    30.33400     0.00000  0.0
    358    345    346    352   5     0.00000    30.33400     0.00000  0.0
    345    346    347    348   5     0.00000     8.26340     0.00000  0.0
    345    346    347    351   5     0.00000     8.78640     0.00000  0.0
    352    346    347    348   5     0.00000     8.26340     0.00000  0.0
    352    346    347    351   5     0.00000     8.78640     0.00000  0.0
    345    346    352    353   5     0.00000    30.33400     0.00000  0.0
    345    346    352    363   5     0.00000    30.33400     0.00000  0.0
    347    346    352    353   5     0.00000    30.33400     0.00000  0.0
    347    346    352    363   5     0.00000    30.33400     0.00000  0.0
    346    347    348    349   5     5.01662    27.18345     0.00000  0.0
    351    347    348    349   5     0.00000    25.10400     0.00000  0.0
    347    348    349    350   5    -2.16731    -3.93296     0.98324  0.0
    347    348    349    359   5     0.00000     0.00000     0.67362  0.0
    347    348    349    360   5     0.00000     0.00000     0.67362  0.0
    348    349    350    361   5     0.00000     0.00000     1.95811  0.0
    348    349    350    362   5     0.00000     0.00000     1.95811  0.0
    348    349    350    368   5     9.36379    -9.73617    -2.85767  0.0
    359    349    350    361   5     0.00000     0.00000     1.25520  0.0
    359    349    350    362   5     0.00000     0.00000     1.25520  0.0
    359    349    350    368   5     0.00000     0.00000     1.95811  0.0
    360    349    350    361   5     0.00000     0.00000     1.25520  0.0
    360    349    350    362   5     0.00000     0.00000     1.25520  0.0
    360    349    350    368   5     0.00000     0.00000     1.95811  0.0
    349    350    368    367   5    -2.16731    -3.93296     0.98324  0.0
    361    350    368    367   5     0.00000     0.00000     0.67362  0.0
    362    350    368    367   5     0.00000     0.00000     0.67362  0.0
    346    352    353    343   5     0.00000    30.33400     0.00000  0.0
    346    352    353    354   5     0.00000    30.33400     0.00000  0.0
    363    352    353    343   5     0.00000    30.33400     0.00000  0.0
    363    352    353    354   5     0.00000    30.33400     0.00000  0.0
    343    353    354    355   5     0.00000    30.33400     0.00000  0.0
    343    353    354    364   5     0.00000    30.33400     0.00000  0.0
    352    353    354    355   5     0.00000    30.33400     0.00000  0.0
    352    353    354    364   5     0.00000    30.33400     0.00000  0.0
    353    354    355    341   5     0.00000    30.33400     0.00000  0.0
    353    354    355    365   5     0.00000    30.33400     0.00000  0.0
    364    354    355    341   5     0.00000    30.33400     0.00000  0.0
    364    354    355    365   5     0.00000    30.33400     0.00000  0.0
    366    367    368    350   5     0.00000    25.10400     0.00000  0.0
    369    367    368    350   5     5.01662    27.18345     0.00000  0.0
    366    367    369    370   5     0.00000     8.78640     0.00000  0.0
    366    367    369    383   5     0.00000     8.78640     0.00000  0.0
    368    367    369    370   5     0.00000     8.26340     0.00000  0.0
    368    367    369    383   5     0.00000     8.26340     0.00000  0.0
    367    369    370    371   5     0.00000    30.33400     0.00000  0.0
    367    369    370    384   5     0.00000    30.33400     0.00000  0.0
    383    369    370    371   5     0.00000    30.33400     0.00000  0.0
    383    369    370    384   5     0.00000    30.33400     0.00000  0.0
    367    369    383    382   5     0.00000    30.33400     0.00000  0.0
    367    369    383    393   5     0.00000    30.33400     0.00000  0.0
    370    369    383    382   5     0.00000    30.33400     0.00000  0.0
    370    369    383    393   5     0.00000    30.33400     0.00000  0.0
    369    370    371    372   5     0.00000    30.33400     0.00000  0.0
    369    370    371    381   5     0.00000    30.33400     0.00000  0.0
    384    370    371    372   5     0.00000    30.33400     0.00000  0.0
    384    370    371    381   5     0.00000    30.33400     0.00000  0.0
    370    371    372    373   5     0.00000    30.33400     0.00000  0.0
    370    371    372    385   5     0.00000    30.33400     0.00000  0.0
    381    371    372    373   5     0.00000    30.33400     0.00000  0.0
    381    371    372    385   5     0.00000    30.33400     0.00000  0.0
    370    371    381    380   5     0.00000    30.33400     0.00000  0.0
    370    371    381    382   5     0.00000    30.33400     0.00000  0.0
    372    371    381    380   5     0.00000    30.33400     0.00000  0.0
    372    371    381    382   5     0.00000    30.33400     0.00000  0.0
    371    372    373    374   5     0.00000    30.33400     0.00000  0.0
    371    372    373    386   5     0.00000    30.33400     0.00000  0.0
    385    372    373    374   5     0.00000    30.33400     0.00000  0.0
    385    372    373    386   5     0.00000    30.33400     0.00000  0.0
    372    373    374    375   5     0.00000    30.33400     0.00000  0.0
    372    373    374    380   5     0.00000    30.33400     0.00000  0.0
    386    373    374    375   5     0.00000    30.33400     0.00000  0.0
    386    373    374    380   5     0.00000    30.33400     0.00000  0.0
    373    374    375    376   5     0.00000     8.26340     0.00000  0.0
    373    374    375    379   5     0.00000     8.78640     0.00000  0.0
    380    374    375    376   5     0.00000     8.26340     0.00000  0.0
    380    374    375    379   5     0.00000     8.78640     0.00000  0.0
    373    374    380    381   5     0.00000    30.33400     0.00000  0.0
    373    374    380    391   5     0.00000    30.33400     0.00000  0.0
    375    374    380    381   5     0.00000    30.33400     0.00000  0.0
    375    374    380    391   5     0.00000    30.33400     0.00000  0.0
    374    375    376    377   5     5.01662    27.18345     0.00000  0.0
    379    375    376    377   5     0.00000    25.10400     0.00000  0.0
    375    376    377    378   5    -2.16731    -3.93296     0.98324  0.0
    375    376    377    387   5     0.00000     0.00000     0.67362  0.0
    375    376    377    388   5     0.00000     0.00000     0.67362  0.0
    376    377    378    389   5     0.00000     0.00000     1.95811  0.0
    376    377    378    390   5     0.00000     0.00000     1.95811  0.0
    376    377    378    396   5     9.36379    -9.73617    -2.85767  0.0
    387    377    378    389   5     0.00000     0.00000     1.25520  0.0
    387    377    378    390   5     0.00000     0.00000     1.25520  0.0
    387    377    378    396   5     0.00000     0.00000     1.95811  0.0
    388    377    378    389   5     0.00000     0.00000     1.25520  0.0
    388    377    378    390   5     0.00000     0.00000     1.25520  0.0
    388    377    378    396   5     0.00000     0.00000     1.95811  0.0
    377    378    396    395   5    -2.16731    -3.93296     0.98324  0.0
    389    378    396    395   5     0.00000     0.00000     0.67362  0.0
    390    378    396    395   5     0.00000     0.00000     0.67362  0.0
    374    380    381    371   5     0.00000    30.33400     0.00000  0.0
    374    380    381    382   5     0.00000    30.33400     0.00000  0.0
    391    380    381    371   5     0.00000    30.33400     0.00000  0.0
    391    380    381    382   5     0.00000    30.33400     0.00000  0.0
    371    381    382    383   5     0.00000    30.33400     0.00000  0.0
    371    381    382    392   5     0.00000    30.33400     0.00000  0.0
    380    381    382    383   5     0.00000    30.33400     0.00000  0.0
    380    381    382    392   5     0.00000    30.33400     0.00000  0.0
    381    382    383    369   5     0.00000    30.33400     0.00000  0.0
    381    382    383    393   5     0.00000    30.33400     0.00000  0.0
    392    382    383    369   5     0.00000    30.33400     0.00000  0.0
    392    382    383    393   5     0.00000    30.33400     0.00000  0.0
    394    395    396    378   5     0.00000    25.10400     0.00000  0.0
    397    395    396    378   5     5.01662    27.18345     0.00000  0.0
    394    395    397    398   5     0.00000     8.78640     0.00000  0.0
    394    395    397    411   5     0.00000     8.78640     0.00000  0.0
    396    395    397    398   5     0.00000     8.26340     0.00000  0.0
    396    395    397    411   5     0.00000     8.26340     0.00000  0.0
    395    397    398    399   5     0.00000    30.33400     0.00000  0.0
    395    397    398    412   5     0.00000    30.33400     0.00000  0.0
    411    397    398    399   5     0.00000    30.33400     0.00000  0.0
    411    397    398    412   5     0.00000    30.33400     0.00000  0.0
    395    397    411    410   5     0.00000    30.33400     0.00000  0.0
    395    397    411    421   5     0.00000    30.33400     0.00000  0.0
    398    397    411    410   5     0.00000    30.33400     0.00000  0.0
    398    397    411    421   5     0.00000    30.33400     0.00000  0.0
    397    398    399    400   5     0.00000    30.33400     0.00000  0.0
    397    398    399    409   5     0.00000    30.33400     0.00000  0.0
    412    398    399    400   5     0.00000    30.33400     0.00000  0.0
    412    398    399    409   5     0.00000    30.33400     0.00000  0.0
    398    399    400    401   5     0.00000    30.33400     0.00000  0.0
    398    399    400    413   5     0.00000    30.33400     0.00000  0.0
    409    399    400    401   5     0.00000    30.33400     0.00000  0.0
    409    399    400    413   5     0.00000    30.33400     0.00000  0.0
    398    399    409    408   5     0.00000    30.33400     0.00000  0.0
    398    399    409    410   5     0.00000    30.33400     0.00000  0.0
    400    399    409    408   5     0.00000    30.33400     0.00000  0.0
    400    399    409    410   5     0.00000    30.33400     0.00000  0.0
    399    400    401    402   5     0.00000    30.33400     0.00000  0.0
    399    400    401    414   5     0.00000    30.33400     0.00000  0.0
    413    400    401    402   5     0.00000    30.33400     0.00000  0.0
    413    400    401    414   5     0.00000    30.33400     0.00000  0.0
    400    401    402    403   5     0.00000    30.33400     0.00000  0.0
    400    401    402    408   5     0.00000    30.33400     0.00000  0.0
    414    401    402    403   5     0.00000    30.33400     0.00000  0.0
    414    401    402    408   5     0.00000    30.33400     0.00000  0.0
    401    402    403    404   5     0.00000     8.26340     0.00000  0.0
    401    402    403    407   5     0.00000     8.78640     0.00000  0.0
    408    402    403    404   5     0.00000     8.26340     0.00000  0.0
    408    402    403    407   5     0.00000     8.78640     0.00000  0.0
    401    402    408    409   5     0.00000    30.33400     0.00000  0.0
    401    402    408    419   5     0.00000    30.33400     0.00000  0.0
    403    402    408    409   5     0.00000    30.33400     0.00000  0.0
    403    402    408    419   5     0.00000    30.33400     0.00000  0.0
    402    403    404    405   5     5.01662    27.18345     0.00000  0.0
    407    403    404    405   5     0.00000    25.10400     0.00000  0.0
    403    404    405    406   5    -2.16731    -3.93296     0.98324  0.0
    403    404    405    415   5     0.00000     0.00000     0.67362  0.0
    403    404    405    416   5     0.00000     0.00000     0.67362  0.0
    404    405    406    417   5     0.00000     0.00000     1.95811  0.0
    404    405    406    418   5     0.00000     0.00000     1.95811  0.0
    404    405    406    424   5     9.36379    -9.73617    -2.85767  0.0
    415    405    406    417   5     0.00000     0.00000     1.25520  0.0
    415    405    406    418   5     0.00000     0.00000     1.25520  0.0
    415    405    406    424   5     0.00000     0.00000     1.95811  0.0
    416    405    406    417   5     0.00000     0.00000     1.25520  0.0
    416    405    406    418   5     0.00000     0.00000     1.25520  0.0
    416    405    406    424   5     0.00000     0.00000     1.95811  0.0
    405    406    424    423   5    -2.16731    -3.93296     0.98324  0.0
    417    406    424    423   5     0.00000     0.00000     0.67362  0.0
    418    406    424    423   5     0.00000     0.00000     0.67362  0.0
    402    408    409    399   5     0.00000    30.33400     0.00000  0.0
    402    408    409    410   5     0.00000    30.33400     0.00000  0.0
    419    408    409    399   5     0.00000    30.33400     0.00000  0.0
    419    408    409    410   5     0.00000    30.33400     0.00000  0.0
    399    409    410    411   5     0.00000    30.33400     0.00000  0.0
    399    409    410    420   5     0.00000    30.33400     0.00000  0.0
    408    409    410    411   5     0.00000    30.33400     0.00000  0.0
    408    409    410    420   5     0.00000    30.33400     0.00000  0.0
    409    410    411    397   5     0.00000    30.33400     0.00000  0.0
    409    410    411    421   5     0.00000    30.33400     0.00000  0.0
    420    410    411    397   5     0.00000    30.33400     0.00000  0.0
    420    410    411    421   5     0.00000    30.33400     0.00000  0.0
    422    423    424    406   5     0.00000    25.10400     0.00000  0.0
    425    423    424    406   5     5.01662    27.18345     0.00000  0.0
    422    423    425    426   5     0.00000     8.78640     0.00000  0.0
    422    423    425    439   5     0.00000     8.78640     0.00000  0.0
    424    423    425    426   5     0.00000     8.26340     0.00000  0.0
    424    423    425    439   5     0.00000     8.26340     0.00000  0.0
    423    425    426    427   5     0.00000    30.33400     0.00000  0.0
    423    425    426    440   5     0.00000    30.33400     0.00000  0.0
    439    425    426    427   5     0.00000    30.33400     0.00000  0.0
    439    425    426    440   5     0.00000    30.33400     0.00000  0.0
    423    425    439    438   5     0.00000    30.33400     0.00000  0.0
    423    425    439    449   5     0.00000    30.33400     0.00000  0.0
    426    425    439    438   5     0.00000    30.33400     0.00000  0.0
    426    425    439    449   5     0.00000    30.33400     0.00000  0.0
    425    426    427    428   5     0.00000    30.33400     0.00000  0.0
    425    426    427    437   5     0.00000    30.33400     0.00000  0.0
    440    426    427    428   5     0.00000    30.33400     0.00000  0.0
    440    426    427    437   5     0.00000    30.33400     0.00000  0.0
    426    427    428    429   5     0.00000    30.33400     0.00000  0.0
    426    427    428    441   5     0.00000    30.33400     0.00000  0.0
    437    427    428    429   5     0.00000    30.33400     0.00000  0.0
    437    427    428    441   5     0.00000    30.33400     0.00000  0.0
    426    427    437    436   5     0.00000    30.33400     0.00000  0.0
    426    427    437    438   5     0.00000    30.33400     0.00000  0.0
    428    427    437    436   5     0.00000    30.33400     0.00000  0.0
    428    427    437    438   5     0.00000    30.33400     0.00000  0.0
    427    428    429    430   5     0.00000    30.33400     0.00000  0.0
    427    428    429    442   5     0.00000    30.33400     0.00000  0.0
    441    428    429    430   5     0.00000    30.33400     0.00000  0.0
    441    428    429    442   5     0.00000    30.33400     0.00000  0.0
    428    429    430    431   5     0.00000    30.33400     0.00000  0.0
    428    429    430    436   5     0.00000    30.33400     0.00000  0.0
    442    429    430    431   5     0.00000    30.33400     0.00000  0.0
    442    429    430    436   5     0.00000    30.33400     0.00000  0.0
    429    430    431    432   5     0.00000     8.26340     0.00000  0.0
    429    430    431    435   5     0.00000     8.78640     0.00000  0.0
    436    430    431    432   5     0.00000     8.26340     0.00000  0.0
    436    430    431    435   5     0.00000     8.78640     0.00000  0.0
    429    430    436    437   5     0.00000    30.33400     0.00000  0.0
    429    430    436    447   5     0.00000    30.33400     0.00000  0.0
    431    430    436    437   5     0.00000    30.33400     0.00000  0.0
    431    430    436    447   5     0.00000    30.33400     0.00000  0.0
    430    431    432    433   5     5.01662    27.18345     0.00000  0.0
    435    431    432    433   5     0.00000    25.10400     0.00000  0.0
    431    432    433    434   5    -2.16731    -3.93296     0.98324  0.0
    431    432    433    443   5     0.00000     0.00000     0.67362  0.0
    431    432    433    444   5     0.00000     0.00000     0.67362  0.0
    432    433    434    445   5     0.00000     0.00000     1.95811  0.0
    432    433    434    446   5     0.00000     0.00000     1.95811  0.0
    432    433    434    452   5     9.36379    -9.73617    -2.85767  0.0
    443    433    434    445   5     0.00000     0.00000     1.25520  0.0
    443    433    434    446   5     0.00000     0.00000     1.25520  0.0
    443    433    434    452   5     0.00000     0.00000     1.95811  0.0
    444    433    434    445   5     0.00000     0.00000     1.25520  0.0
    444    433    434    446   5     0.00000     0.00000     1.25520  0.0
    444    433    434    452   5     0.00000     0.00000     1.95811  0.0
    433    434    452    451   5    -2.16731    -3.93296     0.98324  0.0
    445    434    452    451   5     0.00000     0.00000     0.67362  0.0
    446    434    452    451   5     0.00000     0.00000     0.67362  0.0
    430    436    437    427   5     0.00000    30.33400     0.00000  0.0
    430    436    437    438   5     0.00000    30.33400     0.00000  0.0
    447    436    437    427   5     0.00000    30.33400     0.00000  0.0
    447    436    437    438   5     0.00000    30.33400     0.00000  0.0
    427    437    438    439   5     0.00000    30.33400     0.00000  0.0
    427    437    438    448   5     0.00000    30.33400     0.00000  0.0
    436    437    438    439   5     0.00000    30.33400     0.00000  0.0
    436    437    438    448   5     0.00000    30.33400     0.00000  0.0
    437    438    439    425   5     0.00000    30.33400     0.00000  0.0
    437    438    439    449   5     0.00000    30.33400     0.00000  0.0
    448    438    439    425   5     0.00000    30.33400     0.00000  0.0
    448    438    439    449   5     0.00000    30.33400     0.00000  0.0
    450    451    452    434   5     0.00000    25.10400     0.00000  0.0
    453    451    452    434   5     5.01662    27.18345     0.00000  0.0
    450    451    453    454   5     0.00000     8.78640     0.00000  0.0
    450    451    453    467   5     0.00000     8.78640     0.00000  0.0
    452    451    453    454   5     0.00000     8.26340     0.00000  0.0
    452    451    453    467   5     0.00000     8.26340     0.00000  0.0
    451    453    454    455   5     0.00000    30.33400     0.00000  0.0
    451    453    454    468   5     0.00000    30.33400     0.00000  0.0
    467    453    454    455   5     0.00000    30.33400     0.00000  0.0
    467    453    454    468   5     0.00000    30.33400     0.00000  0.0
    451    453    467    466   5     0.00000    30.33400     0.00000  0.0
    451    453    467    477   5     0.00000    30.33400     0.00000  0.0
    454    453    467    466   5     0.00000    30.33400     0.00000  0.0
    454    453    467    477   5     0.00000    30.33400     0.00000  0.0
    453    454    455    456   5     0.00000    30.33400     0.00000  0.0
    453    454    455    465   5     0.00000    30.33400     0.00000  0.0
    468    454    455    456   5     0.00000    30.33400     0.00000  0.0
    468    454    455    465   5     0.00000    30.33400     0.00000  0.0
    454    455    456    457   5     0.00000    30.33400     0.00000  0.0
    454    455    456    469   5     0.00000    30.33400     0.00000  0.0
    465    455    456    457   5     0.00000    30.33400     0.00000  0.0
    465    455    456    469   5     0.00000    30.33400     0.00000  0.0
    454    455    465    464   5     0.00000    30.33400     0.00000  0.0
    454    455    465    466   5     0.00000    30.33400     0.00000  0.0
    456    455    465    464   5     0.00000    30.33400     0.00000  0.0
    456    455    465    466   5     0.00000    30.33400     0.00000  0.0
    455    456    457    458   5     0.00000    30.33400     0.00000  0.0
    455    456    457    470   5     0.00000    30.33400     0.00000  0.0
    469    456    457    458   5     0.00000    30.33400     0.00000  0.0
    469    456    457    470   5     0.00000    30.33400     0.00000  0.0
    456    457    458    459   5     0.00000    30.33400     0.00000  0.0
    456    457    458    464   5     0.00000    30.33400     0.00000  0.0
    470    457    458    459   5     0.00000    30.33400     0.00000  0.0
    470    457    458    464   5     0.00000    30.33400     0.00000  0.0
    457    458    459    460   5     0.00000     8.26340     0.00000  0.0
    457    458    459    463   5     0.00000     8.78640     0.00000  0.0
    464    458    459    460   5     0.00000     8.26340     0.00000  0.0
    464    458    459    463   5     0.00000     8.78640     0.00000  0.0
    457    458    464    465   5     0.00000    30.33400     0.00000  0.0
    457    458    464    475   5     0.00000    30.33400     0.00000  0.0
    459    458    464    465   5     0.00000    30.33400     0.00000  0.0
    459    458    464    475   5     0.00000    30.33400     0.00000  0.0
    458    459    460    461   5     5.01662    27.18345     0.00000  0.0
    463    459    460    461   5     0.00000    25.10400     0.00000  0.0
    459    460    461    462   5    -2.16731    -3.93296     0.98324  0.0
    459    460    461    471   5     0.00000     0.00000     0.67362  0.0
    459    460    461    472   5     0.00000     0.00000     0.67362  0.0
    460    461    462    473   5     0.00000     0.00000     1.95811  0.0
    460    461    462    474   5     0.00000     0.00000     1.95811  0.0
    460    461    462    480   5     9.36379    -9.73617    -2.85767  0.0
    471    461    462    473   5     0.00000     0.00000     1.25520  0.0
    471    461    462    474   5     0.00000     0.00000     1.25520  0.0
    471    461    462    480   5     0.00000     0.00000     1.95811  0.0
    472    461    462    473   5     0.00000     0.00000     1.25520  0.0
    472    461    462    474   5     0.00000     0.00000     1.25520  0.0
    472    461    462    480   5     0.00000     0.00000     1.95811  0.0
    461    462    480    479   5    -2.16731    -3.93296     0.98324  0.0
    473    462    480    479   5     0.00000     0.00000     0.67362  0.0
    474    462    480    479   5     0.00000     0.00000     0.67362  0.0
    458    464    465    455   5     0.00000    30.33400     0.00000  0.0
    458    464    465    466   5     0.00000    30.33400     0.00000  0.0
    475    464    465    455   5     0.00000    30.33400     0.00000  0.0
    475    464    465    466   5     0.00000    30.33400     0.00000  0.0
    455    465    466    467   5     0.00000    30.33400     0.00000  0.0
    455    465    466    476   5     0.00000    30.33400     0.00000  0.0
    464    465    466    467   5     0.00000    30.33400     0.00000  0.0
    464    465    466    476   5     0.00000    30.33400     0.00000  0.0
    465    466    467    453   5     0.00000    30.33400     0.00000  0.0
    465    466    467    477   5     0.00000    30.33400     0.00000  0.0
    476    466    467    453   5     0.00000    30.33400     0.00000  0.0
    476    466    467    477   5     0.00000    30.33400     0.00000  0.0
    478    479    480    462   5     0.00000    25.10400     0.00000  0.0
    481    479    480    462   5     5.01662    27.18345     0.00000  0.0
    478    479    481    482   5     0.00000     8.78640     0.00000  0.0
    478    479    481    495   5     0.00000     8.78640     0.00000  0.0
    480    479    481    482   5     0.00000     8.26340     0.00000  0.0
    480    479    481    495   5     0.00000     8.26340     0.00000  0.0
    479    481    482    483   5     0.00000    30.33400     0.00000  0.0
    479    481    482    496   5     0.00000    30.33400     0.00000  0.0
    495    481    482    483   5     0.00000    30.33400     0.00000  0.0
    495    481    482    496   5     0.00000    30.33400     0.00000  0.0
    479    481    495    494   5     0.00000    30.33400     0.00000  0.0
    479    481    495    505   5     0.00000    30.33400     0.00000  0.0
    482    481    495    494   5     0.00000    30.33400     0.00000  0.0
    482    481    495    505   5     0.00000    30.33400     0.00000  0.0
    481    482    483    484   5     0.00000    30.33400     0.00000  0.0
    481    482    483    493   5     0.00000    30.33400     0.00000  0.0
    496    482    483    484   5     0.00000    30.33400     0.00000  0.0
    496    482    483    493   5     0.00000    30.33400     0.00000  0.0
    482    483    484    485   5     0.00000    30.33400     0.00000  0.0
    482    483    484    497   5     0.00000    30.33400     0.00000  0.0
    493    483    484    485   5     0.00000    30.33400     0.00000  0.0
    493    483    484    497   5     0.00000    30.33400     0.00000  0.0
    482    483    493    492   5     0.00000    30.33400     0.00000  0.0
    482    483    493    494   5     0.00000    30.33400     0.00000  0.0
    484    483    493    492   5     0.00000    30.33400     0.00000  0.0
    484    483    493    494   5     0.00000    30.33400     0.00000  0.0
    483    484    485    486   5     0.00000    30.33400     0.00000  0.0
    483    484    485    498   5     0.00000    30.33400     0.00000  0.0
    497    484    485    486   5     0.00000    30.33400     0.00000  0.0
    497    484    485    498   5     0.00000    30.33400     0.00000  0.0
    484    485    486    487   5     0.00000    30.33400     0.00000  0.0
    484    485    486    492   5     0.00000    30.33400     0.00000  0.0
    498    485    486    487   5     0.00000    30.33400     0.00000  0.0
    498    485    486    492   5     0.00000    30.33400     0.00000  0.0
    485    486    487    488   5     0.00000     8.26340     0.00000  0.0
    485    486    487    491   5     0.00000     8.78640     0.00000  0.0
    492    486    487    488   5     0.00000     8.26340     0.00000  0.0
    492    486    487    491   5     0.00000     8.78640     0.00000  0.0
    485    486    492    493   5     0.00000    30.33400     0.00000  0.0
    485    486    492    503   5     0.00000    30.33400     0.00000  0.0
    487    486    492    493   5     0.00000    30.33400     0.00000  0.0
    487    486    492    503   5     0.00000    30.33400     0.00000  0.0
    486    487    488    489   5     5.01662    27.18345     0.00000  0.0
    491    487    488    489   5     0.00000    25.10400     0.00000  0.0
    487    488    489    490   5    -2.16731    -3.93296     0.98324  0.0
    487    488    489    499   5     0.00000     0.00000     0.67362  0.0
    487    488    489    500   5     0.00000     0.00000     0.67362  0.0
    488    489    490    501   5     0.00000     0.00000     1.95811  0.0
    488    489    490    502   5     0.00000     0.00000     1.95811  0.0
    488    489    490    508   5     9.36379    -9.73617    -2.85767  0.0
    499    489    490    501   5     0.00000     0.00000     1.25520  0.0
    499    489    490    502   5     0.00000     0.00000     1.25520  0.0
    499    489    490    508   5     0.00000     0.00000     1.95811  0.0
    500    489    490    501   5     0.00000     0.00000     1.25520  0.0
    500    489    490    502   5     0.00000     0.00000     1.25520  0.0
    500    489    490    508   5     0.00000     0.00000     1.95811  0.0
    489    490    508    507   5    -2.16731    -3.93296     0.98324  0.0
    501    490    508    507   5     0.00000     0.00000     0.67362  0.0
    502    490    508    507   5     0.00000     0.00000     0.67362  0.0
    486    492    493    483   5     0.00000    30.33400     0.00000  0.0
    486    492    493    494   5     0.00000    30.33400     0.00000  0.0
    503    492    493    483   5     0.00000    30.33400     0.00000  0.0
    503    492    493    494   5     0.00000    30.33400     0.00000  0.0
    483    493    494    495   5     0.00000    30.33400     0.00000  0.0
    483    493    494    504   5     0.00000    30.33400     0.00000  0.0
    492    493    494    495   5     0.00000    30.33400     0.00000  0.0
    492    493    494    504   5     0.00000    30.33400     0.00000  0.0
    493    494    495    481   5     0.00000    30.33400     0.00000  0.0
    493    494    495    505   5     0.00000    30.33400     0.00000  0.0
    504    494    495    481   5     0.00000    30.33400     0.00000  0.0
    504    494    495    505   5     0.00000    30.33400     0.00000  0.0
    506    507    508    490   5     0.00000    25.10400     0.00000  0.0
    509    507    508    490   5     5.01662    27.18345     0.00000  0.0
    506    507    509    510   5     0.00000     8.78640     0.00000  0.0
    506    507    509    523   5     0.00000     8.78640     0.00000  0.0
    508    507    509    510   5     0.00000     8.26340     0.00000  0.0
    508    507    509    523   5     0.00000     8.26340     0.00000  0.0
    507    509    510    511   5     0.00000    30.33400     0.00000  0.0
    507    509    510    524   5     0.00000    30.33400     0.00000  0.0
    523    509    510    511   5     0.00000    30.33400     0.00000  0.0
    523    509    510    524   5     0.00000    30.33400     0.00000  0.0
    507    509    523    522   5     0.00000    30.33400     0.00000  0.0
    507    509    523    533   5     0.00000    30.33400     0.00000  0.0
    510    509    523    522   5     0.00000    30.33400     0.00000  0.0
    510    509    523    533   5     0.00000    30.33400     0.00000  0.0
    509    510    511    512   5     0.00000    30.33400     0.00000  0.0
    509    510    511    521   5     0.00000    30.33400     0.00000  0.0
    524    510    511    512   5     0.00000    30.33400     0.00000  0.0
    524    510    511    521   5     0.00000    30.33400     0.00000  0.0
    510    511    512    513   5     0.00000    30.33400     0.00000  0.0
    510    511    512    525   5     0.00000    30.33400     0.00000  0.0
    521    511    512    513   5     0.00000    30.33400     0.00000  0.0
    521    511    512    525   5     0.00000    30.33400     0.00000  0.0
    510    511    521    520   5     0.00000    30.33400     0.00000  0.0
    510    511    521    522   5     0.00000    30.33400     0.00000  0.0
    512    511    521    520   5     0.00000    30.33400     0.00000  0.0
    512    511    521    522   5     0.00000    30.33400     0.00000  0.0
    511    512    513    514   5     0.00000    30.33400     0.00000  0.0
    511    512    513    526   5     0.00000    30.33400     0.00000  0.0
    525    512    513    514   5     0.00000    30.33400     0.00000  0.0
    525    512    513    526   5     0.00000    30.33400     0.00000  0.0
    512    513    514    515   5     0.00000    30.33400     0.00000  0.0
    512    513    514    520   5     0.00000    30.33400     0.00000  0.0
    526    513    514    515   5     0.00000    30.33400     0.00000  0.0
    526    513    514    520   5     0.00000    30.33400     0.00000  0.0
    513    514    515    516   5     0.00000     8.26340     0.00000  0.0
    513    514    515    519   5     0.00000     8.78640     0.00000  0.0
    520    514    515    516   5     0.00000     8.26340     0.00000  0.0
    520    514    515    519   5     0.00000     8.78640     0.00000  0.0
    513    514    520    521   5     0.00000    30.33400     0.00000  0.0
    513    514    520    531   5     0.00000    30.33400     0.00000  0.0
    515    514    520    521   5     0.00000    30.33400     0.00000  0.0
    515    514    520    531   5     0.00000    30.33400     0.00000  0.0
    514    515    516    517   5     5.01662    27.18345     0.00000  0.0
    519    515    516    517   5     0.00000    25.10400     0.00000  0.0
    515    516    517    518   5    -2.16731    -3.93296     0.98324  0.0
    515    516    517    527   5     0.00000     0.00000     0.67362  0.0
    515    516    517    528   5     0.00000     0.00000     0.67362  0.0
    516    517    518    529   5     0.00000     0.00000     1.95811  0.0
    516    517    518    530   5     0.00000     0.00000     1.95811  0.0
    516    517    518    536   5     9.36379    -9.73617    -2.85767  0.0
    527    517    518    529   5     0.00000     0.00000     1.25520  0.0
    527    517    518    530   5     0.00000     0.00000     1.25520  0.0
    527    517    518    536   5     0.00000     0.00000     1.95811  0.0
    528    517    518    529   5     0.00000     0.00000     1.25520  0.0
    528    517    518    530   5     0.00000     0.00000     1.25520  0.0
    528    517    518    536   5     0.00000     0.00000     1.95811  0.0
    517    518    536    535   5    -2.16731    -3.93296     0.98324  0.0
    529    518    536    535   5     0.00000     0.00000     0.67362  0.0
    530    518    536    535   5     0.00000     0.00000     0.67362  0.0
    514    520    521    511   5     0.00000    30.33400     0.00000  0.0
    514    520    521    522   5     0.00000    30.33400     0.00000  0.0
    531    520    521    511   5     0.00000    30.33400     0.00000  0.0
    531    520    521    522   5     0.00000    30.33400     0.00000  0.0
    511    521    522    523   5     0.00000    30.33400     0.00000  0.0
    511    521    522    532   5     0.00000    30.33400     0.00000  0.0
    520    521    522    523   5     0.00000    30.33400     0.00000  0.0
    520    521    522    532   5     0.00000    30.33400     0.00000  0.0
    521    522    523    509   5     0.00000    30.33400     0.00000  0.0
    521    522    523    533   5     0.00000    30.33400     0.00000  0.0
    532    522    523    509   5     0.00000    30.33400     0.00000  0.0
    532    522    523    533   5     0.00000    30.33400     0.00000  0.0
    534    535    536    518   5     0.00000    25.10400     0.00000  0.0
    537    535    536    518   5     5.01662    27.18345     0.00000  0.0
    534    535    537    538   5     0.00000     8.78640     0.00000  0.0
    534    535    537    551   5     0.00000     8.78640     0.00000  0.0
    536    535    537    538   5     0.00000     8.26340     0.00000  0.0
    536    535    537    551   5     0.00000     8.26340     0.00000  0.0
    535    537    538    539   5     0.00000    30.33400     0.00000  0.0
    535    537    538    552   5     0.00000    30.33400     0.00000  0.0
    551    537    538    539   5     0.00000    30.33400     0.00000  0.0
    551    537    538    552   5     0.00000    30.33400     0.00000  0.0
    535    537    551    550   5     0.00000    30.33400     0.00000  0.0
    535    537    551    561   5     0.00000    30.33400     0.00000  0.0
    538    537    551    550   5     0.00000    30.33400     0.00000  0.0
    538    537    551    561   5     0.00000    30.33400     0.00000  0.0
    537    538    539    540   5     0.00000    30.33400     0.00000  0.0
    537    538    539    549   5     0.00000    30.33400     0.00000  0.0
    552    538    539    540   5     0.00000    30.33400     0.00000  0.0
    552    538    539    549   5     0.00000    30.33400     0.00000  0.0
    538    539    540    541   5     0.00000    30.33400     0.00000  0.0
    538    539    540    553   5     0.00000    30.33400     0.00000  0.0
    549    539    540    541   5     0.00000    30.33400     0.00000  0.0
    549    539    540    553   5     0.00000    30.33400     0.00000  0.0
    538    539    549    548   5     0.00000    30.33400     0.00000  0.0
    538    539    549    550   5     0.00000    30.33400     0.00000  0.0
    540    539    549    548   5     0.00000    30.33400     0.00000  0.0
    540    539    549    550   5     0.00000    30.33400     0.00000  0.0
    539    540    541    542   5     0.00000    30.33400     0.00000  0.0
    539    540    541    554   5     0.00000    30.33400     0.00000  0.0
    553    540    541    542   5     0.00000    30.33400     0.00000  0.0
    553    540    541    554   5     0.00000    30.33400     0.00000  0.0
    540    541    542    543   5     0.00000    30.33400     0.00000  0.0
    540    541    542    548   5     0.00000    30.33400     0.00000  0.0
    554    541    542    543   5     0.00000    30.33400     0.00000  0.0
    554    541    542    548   5     0.00000    30.33400     0.00000  0.0
    541    542    543    544   5     0.00000     8.26340     0.00000  0.0
    541    542    543    547   5     0.00000     8.78640     0.00000  0.0
    548    542    543    544   5     0.00000     8.26340     0.00000  0.0
    548    542    543    547   5     0.00000     8.78640     0.00000  0.0
    541    542    548    549   5     0.00000    30.33400     0.00000  0.0
    541    542    548    559   5     0.00000    30.33400     0.00000  0.0
    543    542    548    549   5     0.00000    30.33400     0.00000  0.0
    543    542    548    559   5     0.00000    30.33400     0.00000  0.0
    542    543    544    545   5     5.01662    27.18345     0.00000  0.0
    547    543    544    545   5     0.00000    25.10400     0.00000  0.0
    543    544    545    546   5    -2.16731    -3.93296     0.98324  0.0
    543    544    545    555   5     0.00000     0.00000     0.67362  0.0
    543    544    545    556   5     0.00000     0.00000     0.67362  0.0
    544    545    546    557   5     0.00000     0.00000     1.95811  0.0
    544    545    546    558   5     0.00000     0.00000     1.95811  0.0
    544    545    546    562   5     0.00000     0.00000     1.95811  0.0
    555    545    546    557   5     0.00000     0.00000     1.25520  0.0
    555    545    546    558   5     0.00000     0.00000     1.25520  0.0
    555    545    546    562   5     0.00000     0.00000     1.25520  0.0
    556    545    546    557   5     0.00000     0.00000     1.25520  0.0
    556    545    546    558   5     0.00000     0.00000     1.25520  0.0
    556    545    546    562   5     0.00000     0.00000     1.25520  0.0
    542    548    549    539   5     0.00000    30.33400     0.00000  0.0
    542    548    549    550   5     0.00000    30.33400     0.00000  0.0
    559    548    549    539   5     0.00000    30.33400     0.00000  0.0
    559    548    549    550   5     0.00000    30.33400     0.00000  0.0
    539    549    550    551   5     0.00000    30.33400     0.00000  0.0
    539    549    550    560   5     0.00000    30.33400     0.00000  0.0
    548    549    550    551   5     0.00000    30.33400     0.00000  0.0
    548    549    550    560   5     0.00000    30.33400     0.00000  0.0
    549    550    551    537   5     0.00000    30.33400     0.00000  0.0
    549    550    551    561   5     0.00000    30.33400     0.00000  0.0
    560    550    551    537   5     0.00000    30.33400     0.00000  0.0
    560    550    551    561   5     0.00000    30.33400     0.00000  0.0

[ dihedrals ]
; Improper dihedrals
; h   i   j   k   funct
      1      3      2      4   5     0.00000    87.86400     0.00000  0.0
      2      5      4     18   5     0.00000    33.47200     0.00000  0.0
      4      6      5     19   5     0.00000     9.20480     0.00000  0.0
      5      7      6     16   5     0.00000    33.47200     0.00000  0.0
      6      8      7     20   5     0.00000     9.20480     0.00000  0.0
      7      9      8     21   5     0.00000     9.20480     0.00000  0.0
      8     10      9     15   5     0.00000    33.47200     0.00000  0.0
      9     11     10     14   5     0.00000    87.86400     0.00000  0.0
      9     16     15     26   5     0.00000     9.20480     0.00000  0.0
      6     15     16     17   5     0.00000    33.47200     0.00000  0.0
     16     18     17     27   5     0.00000     9.20480     0.00000  0.0
      4     17     18     28   5     0.00000     9.20480     0.00000  0.0
     30     32     31     33   5     0.00000    87.86400     0.00000  0.0
     31     34     33     47   5     0.00000    33.47200     0.00000  0.0
     33     35     34     48   5     0.00000     9.20480     0.00000  0.0
     34     36     35     45   5     0.00000    33.47200     0.00000  0.0
     35     37     36     49   5     0.00000     9.20480     0.00000  0.0
     36     38     37     50   5     0.00000     9.20480     0.00000  0.0
     37     39     38     44   5     0.00000    33.47200     0.00000  0.0
     38     40     39     43   5     0.00000    87.86400     0.00000  0.0
     38     45     44     55   5     0.00000     9.20480     0.00000  0.0
     35     44     45     46   5     0.00000    33.47200     0.00000  0.0
     45     47     46     56   5     0.00000     9.20480     0.00000  0.0
     33     46     47     57   5     0.00000     9.20480     0.00000  0.0
     58     60     59     61   5     0.00000    87.86400     0.00000  0.0
     59     62     61     75   5     0.00000    33.47200     0.00000  0.0
     61     63     62     76   5     0.00000     9.20480     0.00000  0.0
     62     64     63     73   5     0.00000    33.47200     0.00000  0.0
     63     65     64     77   5     0.00000     9.20480     0.00000  0.0
     64     66     65     78   5     0.00000     9.20480     0.00000  0.0
     65     67     66     72   5     0.00000    33.47200     0.00000  0.0
     66     68     67     71   5     0.00000    87.86400     0.00000  0.0
     66     73     72     83   5     0.00000     9.20480     0.00000  0.0
     63     72     73     74   5     0.00000    33.47200     0.00000  0.0
     73     75     74     84   5     0.00000     9.20480     0.00000  0.0
     61     74     75     85   5     0.00000     9.20480     0.00000  0.0
     86     88     87     89   5     0.00000    87.86400     0.00000  0.0
     87     90     89    103   5     0.00000    33.47200     0.00000  0.0
     89     91     90    104   5     0.00000     9.20480     0.00000  0.0
     90     92     91    101   5     0.00000    33.47200     0.00000  0.0
     91     93     92    105   5     0.00000     9.20480     0.00000  0.0
     92     94     93    106   5     0.00000     9.20480     0.00000  0.0
     93     95     94    100   5     0.00000    33.47200     0.00000  0.0
     94     96     95     99   5     0.00000    87.86400     0.00000  0.0
     94    101    100    111   5     0.00000     9.20480     0.00000  0.0
     91    100    101    102   5     0.00000    33.47200     0.00000  0.0
    101    103    102    112   5     0.00000     9.20480     0.00000  0.0
     89    102    103    113   5     0.00000     9.20480     0.00000  0.0
    114    116    115    117   5     0.00000    87.86400     0.00000  0.0
    115    118    117    131   5     0.00000    33.47200     0.00000  0.0
    117    119    118    132   5     0.00000     9.20480     0.00000  0.0
    118    120    119    129   5     0.00000    33.47200     0.00000  0.0
    119    121    120    133   5     0.00000     9.20480     0.00000  0.0
    120    122    121    134   5     0.00000     9.20480     0.00000  0.0
    121    123    122    128   5     0.00000    33.47200     0.00000  0.0
    122    124    123    127   5     0.00000    87.86400     0.00000  0.0
    122    129    128    139   5     0.00000     9.20480     0.00000  0.0
    119    128    129    130   5     0.00000    33.47200     0.00000  0.0
    129    131    130    140   5     0.00000     9.20480     0.00000  0.0
    117    130    131    141   5     0.00000     9.20480     0.00000  0.0
    142    144    143    145   5     0.00000    87.86400     0.00000  0.0
    143    146    145    159   5     0.00000    33.47200     0.00000  0.0
    145    147    146    160   5     0.00000     9.20480     0.00000  0.0
    146    148    147    157   5     0.00000    33.47200     0.00000  0.0
    147    149    148    161   5     0.00000     9.20480     0.00000  0.0
    148    150    149    162   5     0.00000     9.20480     0.00000  0.0
    149    151    150    156   5     0.00000    33.47200     0.00000  0.0
    150    152    151    155   5     0.00000    87.86400     0.00000  0.0
    150    157    156    167   5     0.00000     9.20480     0.00000  0.0
    147    156    157    158   5     0.00000    33.47200     0.00000  0.0
    157    159    158    168   5     0.00000     9.20480     0.00000  0.0
    145    158    159    169   5     0.00000     9.20480     0.00000  0.0
    170    172    171    173   5     0.00000    87.86400     0.00000  0.0
    171    174    173    187   5     0.00000    33.47200     0.00000  0.0
    173    175    174    188   5     0.00000     9.20480     0.00000  0.0
    174    176    175    185   5     0.00000    33.47200     0.00000  0.0
    175    177    176    189   5     0.00000     9.20480     0.00000  0.0
    176    178    177    190   5     0.00000     9.20480     0.00000  0.0
    177    179    178    184   5     0.00000    33.47200     0.00000  0.0
    178    180    179    183   5     0.00000    87.86400     0.00000  0.0
    178    185    184    195   5     0.00000     9.20480     0.00000  0.0
    175    184    185    186   5     0.00000    33.47200     0.00000  0.0
    185    187    186    196   5     0.00000     9.20480     0.00000  0.0
    173    186    187    197   5     0.00000     9.20480     0.00000  0.0
    198    200    199    201   5     0.00000    87.86400     0.00000  0.0
    199    202    201    215   5     0.00000    33.47200     0.00000  0.0
    201    203    202    216   5     0.00000     9.20480     0.00000  0.0
    202    204    203    213   5     0.00000    33.47200     0.00000  0.0
    203    205    204    217   5     0.00000     9.20480     0.00000  0.0
    204    206    205    218   5     0.00000     9.20480     0.00000  0.0
    205    207    206    212   5     0.00000    33.47200     0.00000  0.0
    206    208    207    211   5     0.00000    87.86400     0.00000  0.0
    206    213    212    223   5     0.00000     9.20480     0.00000  0.0
    203    212    213    214   5     0.00000    33.47200     0.00000  0.0
    213    215    214    224   5     0.00000     9.20480     0.00000  0.0
    201    214    215    225   5     0.00000     9.20480     0.00000  0.0
    226    228    227    229   5     0.00000    87.86400     0.00000  0.0
    227    230    229    243   5     0.00000    33.47200     0.00000  0.0
    229    231    230    244   5     0.00000     9.20480     0.00000  0.0
    230    232    231    241   5     0.00000    33.47200     0.00000  0.0
    231    233    232    245   5     0.00000     9.20480     0.00000  0.0
    232    234    233    246   5     0.00000     9.20480     0.00000  0.0
    233    235    234    240   5     0.00000    33.47200     0.00000  0.0
    234    236    235    239   5     0.00000    87.86400     0.00000  0.0
    234    241    240    251   5     0.00000     9.20480     0.00000  0.0
    231    240    241    242   5     0.00000    33.47200     0.00000  0.0
    241    243    242    252   5     0.00000     9.20480     0.00000  0.0
    229    242    243    253   5     0.00000     9.20480     0.00000  0.0
    254    256    255    257   5     0.00000    87.86400     0.00000  0.0
    255    258    257    271   5     0.00000    33.47200     0.00000  0.0
    257    259    258    272   5     0.00000     9.20480     0.00000  0.0
    258    260    259    269   5     0.00000    33.47200     0.00000  0.0
    259    261    260    273   5     0.00000     9.20480     0.00000  0.0
    260    262    261    274   5     0.00000     9.20480     0.00000  0.0
    261    263    262    268   5     0.00000    33.47200     0.00000  0.0
    262    264    263    267   5     0.00000    87.86400     0.00000  0.0
    262    269    268    279   5     0.00000     9.20480     0.00000  0.0
    259    268    269    270   5     0.00000    33.47200     0.00000  0.0
    269    271    270    280   5     0.00000     9.20480     0.00000  0.0
    257    270    271    281   5     0.00000     9.20480     0.00000  0.0
    282    284    283    285   5     0.00000    87.86400     0.00000  0.0
    283    286    285    299   5     0.00000    33.47200     0.00000  0.0
    285    287    286    300   5     0.00000     9.20480     0.00000  0.0
    286    288    287    297   5     0.00000    33.47200     0.00000  0.0
    287    289    288    301   5     0.00000     9.20480     0.00000  0.0
    288    290    289    302   5     0.00000     9.20480     0.00000  0.0
    289    291    290    296   5     0.00000    33.47200     0.00000  0.0
    290    292    291    295   5     0.00000    87.86400     0.00000  0.0
    290    297    296    307   5     0.00000     9.20480     0.00000  0.0
    287    296    297    298   5     0.00000    33.47200     0.00000  0.0
    297    299    298    308   5     0.00000     9.20480     0.00000  0.0
    285    298    299    309   5     0.00000     9.20480     0.00000  0.0
    310    312    311    313   5     0.00000    87.86400     0.00000  0.0
    311    314    313    327   5     0.00000    33.47200     0.00000  0.0
    313    315    314    328   5     0.00000     9.20480     0.00000  0.0
    314    316    315    325   5     0.00000    33.47200     0.00000  0.0
    315    317    316    329   5     0.00000     9.20480     0.00000  0.0
    316    318    317    330   5     0.00000     9.20480     0.00000  0.0
    317    319    318    324   5     0.00000    33.47200     0.00000  0.0
    318    320    319    323   5     0.00000    87.86400     0.00000  0.0
    318    325    324    335   5     0.00000     9.20480     0.00000  0.0
    315    324    325    326   5     0.00000    33.47200     0.00000  0.0
    325    327    326    336   5     0.00000     9.20480     0.00000  0.0
    313    326    327    337   5     0.00000     9.20480     0.00000  0.0
    338    340    339    341   5     0.00000    87.86400     0.00000  0.0
    339    342    341    355   5     0.00000    33.47200     0.00000  0.0
    341    343    342    356   5     0.00000     9.20480     0.00000  0.0
    342    344    343    353   5     0.00000    33.47200     0.00000  0.0
    343    345    344    357   5     0.00000     9.20480     0.00000  0.0
    344    346    345    358   5     0.00000     9.20480     0.00000  0.0
    345    347    346    352   5     0.00000    33.47200     0.00000  0.0
    346    348    347    351   5     0.00000    87.86400     0.00000  0.0
    346    353    352    363   5     0.00000     9.20480     0.00000  0.0
    343    352    353    354   5     0.00000    33.47200     0.00000  0.0
    353    355    354    364   5     0.00000     9.20480     0.00000  0.0
    341    354    355    365   5     0.00000     9.20480     0.00000  0.0
    366    368    367    369   5     0.00000    87.86400     0.00000  0.0
    367    370    369    383   5     0.00000    33.47200     0.00000  0.0
    369    371    370    384   5     0.00000     9.20480     0.00000  0.0
    370    372    371    381   5     0.00000    33.47200     0.00000  0.0
    371    373    372    385   5     0.00000     9.20480     0.00000  0.0
    372    374    373    386   5     0.00000     9.20480     0.00000  0.0
    373    375    374    380   5     0.00000    33.47200     0.00000  0.0
    374    376    375    379   5     0.00000    87.86400     0.00000  0.0
    374    381    380    391   5     0.00000     9.20480     0.00000  0.0
    371    380    381    382   5     0.00000    33.47200     0.00000  0.0
    381    383    382    392   5     0.00000     9.20480     0.00000  0.0
    369    382    383    393   5     0.00000     9.20480     0.00000  0.0
    394    396    395    397   5     0.00000    87.86400     0.00000  0.0
    395    398    397    411   5     0.00000    33.47200     0.00000  0.0
    397    399    398    412   5     0.00000     9.20480     0.00000  0.0
    398    400    399    409   5     0.00000    33.47200     0.00000  0.0
    399    401    400    413   5     0.00000     9.20480     0.00000  0.0
    400    402    401    414   5     0.00000     9.20480     0.00000  0.0
    401    403    402    408   5     0.00000    33.47200     0.00000  0.0
    402    404    403    407   5     0.00000    87.86400     0.00000  0.0
    402    409    408    419   5     0.00000     9.20480     0.00000  0.0
    399    408    409    410   5     0.00000    33.47200     0.00000  0.0
    409    411    410    420   5     0.00000     9.20480     0.00000  0.0
    397    410    411    421   5     0.00000     9.20480     0.00000  0.0
    422    424    423    425   5     0.00000    87.86400     0.00000  0.0
    423    426    425    439   5     0.00000    33.47200     0.00000  0.0
    425    427    426    440   5     0.00000     9.20480     0.00000  0.0
    426    428    427    437   5     0.00000    33.47200     0.00000  0.0
    427    429    428    441   5     0.00000     9.20480     0.00000  0.0
    428    430    429    442   5     0.00000     9.20480     0.00000  0.0
    429    431    430    436   5     0.00000    33.47200     0.00000  0.0
    430    432    431    435   5     0.00000    87.86400     0.00000  0.0
    430    437    436    447   5     0.00000     9.20480     0.00000  0.0
    427    436    437    438   5     0.00000    33.47200     0.00000  0.0
    437    439    438    448   5     0.00000     9.20480     0.00000  0.0
    425    438    439    449   5     0.00000     9.20480     0.00000  0.0
    450    452    451    453   5     0.00000    87.86400     0.00000  0.0
    451    454    453    467   5     0.00000    33.47200     0.00000  0.0
    453    455    454    468   5     0.00000     9.20480     0.00000  0.0
    454    456    455    465   5     0.00000    33.47200     0.00000  0.0
    455    457    456    469   5     0.00000     9.20480     0.00000  0.0
    456    458    457    470   5     0.00000     9.20480     0.00000  0.0
    457    459    458    464   5     0.00000    33.47200     0.00000  0.0
    458    460    459    463   5     0.00000    87.86400     0.00000  0.0
    458    465    464    475   5     0.00000     9.20480     0.00000  0.0
    455    464    465    466   5     0.00000    33.47200     0.00000  0.0
    465    467    466    476   5     0.00000     9.20480     0.00000  0.0
    453    466    467    477   5     0.00000     9.20480     0.00000  0.0
    478    480    479    481   5     0.00000    87.86400     0.00000  0.0
    479    482    481    495   5     0.00000    33.47200     0.00000  0.0
    481    483    482    496   5     0.00000     9.20480     0.00000  0.0
    482    484    483    493   5     0.00000    33.47200     0.00000  0.0
    483    485    484    497   5     0.00000     9.20480     0.00000  0.0
    484    486    485    498   5     0.00000     9.20480     0.00000  0.0
    485    487    486    492   5     0.00000    33.47200     0.00000  0.0
    486    488    487    491   5     0.00000    87.86400     0.00000  0.0
    486    493    492    503   5     0.00000     9.20480     0.00000  0.0
    483    492    493    494   5     0.00000    33.47200     0.00000  0.0
    493    495    494    504   5     0.00000     9.20480     0.00000  0.0
    481    494    495    505   5     0.00000     9.20480     0.00000  0.0
    506    508    507    509   5     0.00000    87.86400     0.00000  0.0
    507    510    509    523   5     0.00000    33.47200     0.00000  0.0
    509    511    510    524   5     0.00000     9.20480     0.00000  0.0
    510    512    511    521   5     0.00000    33.47200     0.00000  0.0
    511    513    512    525   5     0.00000     9.20480     0.00000  0.0
    512    514    513    526   5     0.00000     9.20480     0.00000  0.0
    513    515    514    520   5     0.00000    33.47200     0.00000  0.0
    514    516    515    519   5     0.00000    87.86400     0.00000  0.0
    514    521    520    531   5     0.00000     9.20480     0.00000  0.0
    511    520    521    522   5     0.00000    33.47200     0.00000  0.0
    521    523    522    532   5     0.00000     9.20480     0.00000  0.0
    509    522    523    533   5     0.00000     9.20480     0.00000  0.0
    534    536    535    537   5     0.00000    87.86400     0.00000  0.0
    535    538    537    551   5     0.00000    33.47200     0.00000  0.0
    537    539    538    552   5     0.00000     9.20480     0.00000  0.0
    538    540    539    549   5     0.00000    33.47200     0.00000  0.0
    539    541    540    553   5     0.00000     9.20480     0.00000  0.0
    540    542    541    554   5     0.00000     9.20480     0.00000  0.0
    541    543    542    548   5     0.00000    33.47200     0.00000  0.0
    542    544    543    547   5     0.00000    87.86400     0.00000  0.0
    542    549    548    559   5     0.00000     9.20480     0.00000  0.0
    539    548    549    550   5     0.00000    33.47200     0.00000  0.0
    549    551    550    560   5     0.00000     9.20480     0.00000  0.0
    537    550    551    561   5     0.00000     9.20480     0.00000  0.0
