;
; Gromacs include topology (itp) file.
; For Molecular Group XYZ
; Force field scheme: opls2005
; Produced from DL_FIELD v4.11
;


[ moleculetype ]
; name    nrexcl
XYZ    3

[ atoms ]
; nr   type   resnr   residu    atom    cgnr    charge    mass
    1        CT    1  MOL      C1     1  -0.1800000   12.0115
    2        CT    1  MOL      C2     2  -0.1200000   12.0115
    3        HC    1  MOL      H3     3   0.0600000    1.0080
    4        HC    1  MOL      H4     4   0.0600000    1.0080
    5        HC    1  MOL      H5     5   0.0600000    1.0080
    6        HC    1  MOL      H6     6   0.0600000    1.0080
    7        HC    1  MOL      H7     7   0.0600000    1.0080
    8        CT    1  MOL      C8     8  -0.1200000   12.0115
    9        CT    1  MOL      C9     9  -0.1200000   12.0115
   10        HC    1  MOL     H10    10   0.0600000    1.0080
   11        HC    1  MOL     H11    11   0.0600000    1.0080
   12        HC    1  MOL     H12    12   0.0600000    1.0080
   13        HC    1  MOL     H13    13   0.0600000    1.0080
   14        CT    1  MOL     C14    14  -0.1200000   12.0115
   15        CT    1  MOL     C15    15  -0.1200000   12.0115
   16        HC    1  MOL     H16    16   0.0600000    1.0080
   17        HC    1  MOL     H17    17   0.0600000    1.0080
   18        HC    1  MOL     H18    18   0.0600000    1.0080
   19        HC    1  MOL     H19    19   0.0600000    1.0080
   20        CT    1  MOL     C20    20  -0.1200000   12.0115
   21        CT    1  MOL     C21    21  -0.1200000   12.0115
   22        HC    1  MOL     H22    22   0.0600000    1.0080
   23        HC    1  MOL     H23    23   0.0600000    1.0080
   24        HC    1  MOL     H24    24   0.0600000    1.0080
   25        HC    1  MOL     H25    25   0.0600000    1.0080
   26        CT    1  MOL     C26    26  -0.1200000   12.0115
   27        CT    1  MOL     C27    27  -0.1200000   12.0115
   28        HC    1  MOL     H28    28   0.0600000    1.0080
   29        HC    1  MOL     H29    29   0.0600000    1.0080
   30        HC    1  MOL     H30    30   0.0600000    1.0080
   31        HC    1  MOL     H31    31   0.0600000    1.0080
   32        CT    1  MOL     C32    32  -0.1200000   12.0115
   33        CT    1  MOL     C33    33  -0.1200000   12.0115
   34        HC    1  MOL     H34    34   0.0600000    1.0080
   35        HC    1  MOL     H35    35   0.0600000    1.0080
   36        HC    1  MOL     H36    36   0.0600000    1.0080
   37        HC    1  MOL     H37    37   0.0600000    1.0080
   38        CT    1  MOL     C38    38  -0.1200000   12.0115
   39        CT    1  MOL     C39    39  -0.1200000   12.0115
   40        HC    1  MOL     H40    40   0.0600000    1.0080
   41        HC    1  MOL     H41    41   0.0600000    1.0080
   42        HC    1  MOL     H42    42   0.0600000    1.0080
   43        HC    1  MOL     H43    43   0.0600000    1.0080
   44        CT    1  MOL     C44    44  -0.1200000   12.0115
   45        CT    1  MOL     C45    45  -0.1200000   12.0115
   46        HC    1  MOL     H46    46   0.0600000    1.0080
   47        HC    1  MOL     H47    47   0.0600000    1.0080
   48        HC    1  MOL     H48    48   0.0600000    1.0080
   49        HC    1  MOL     H49    49   0.0600000    1.0080
   50        CT    1  MOL     C50    50  -0.1200000   12.0115
   51        CT    1  MOL     C51    51  -0.1200000   12.0115
   52        HC    1  MOL     H52    52   0.0600000    1.0080
   53        HC    1  MOL     H53    53   0.0600000    1.0080
   54        HC    1  MOL     H54    54   0.0600000    1.0080
   55        HC    1  MOL     H55    55   0.0600000    1.0080
   56        CT    1  MOL     C56    56  -0.1200000   12.0115
   57        CT    1  MOL     C57    57  -0.1200000   12.0115
   58        HC    1  MOL     H58    58   0.0600000    1.0080
   59        HC    1  MOL     H59    59   0.0600000    1.0080
   60        HC    1  MOL     H60    60   0.0600000    1.0080
   61        HC    1  MOL     H61    61   0.0600000    1.0080
   62        CT    1  MOL     C62    62  -0.1200000   12.0115
   63        CT    1  MOL     C63    63  -0.1200000   12.0115
   64        HC    1  MOL     H64    64   0.0600000    1.0080
   65        HC    1  MOL     H65    65   0.0600000    1.0080
   66        HC    1  MOL     H66    66   0.0600000    1.0080
   67        HC    1  MOL     H67    67   0.0600000    1.0080
   68        CT    1  MOL     C68    68  -0.1200000   12.0115
   69        CT    1  MOL     C69    69  -0.1200000   12.0115
   70        HC    1  MOL     H70    70   0.0600000    1.0080
   71        HC    1  MOL     H71    71   0.0600000    1.0080
   72        HC    1  MOL     H72    72   0.0600000    1.0080
   73        HC    1  MOL     H73    73   0.0600000    1.0080
   74        CT    1  MOL     C74    74  -0.1200000   12.0115
   75        CT    1  MOL     C75    75  -0.1200000   12.0115
   76        HC    1  MOL     H76    76   0.0600000    1.0080
   77        HC    1  MOL     H77    77   0.0600000    1.0080
   78        HC    1  MOL     H78    78   0.0600000    1.0080
   79        HC    1  MOL     H79    79   0.0600000    1.0080
   80        CT    1  MOL     C80    80  -0.1200000   12.0115
   81        CT    1  MOL     C81    81  -0.1200000   12.0115
   82        HC    1  MOL     H82    82   0.0600000    1.0080
   83        HC    1  MOL     H83    83   0.0600000    1.0080
   84        HC    1  MOL     H84    84   0.0600000    1.0080
   85        HC    1  MOL     H85    85   0.0600000    1.0080
   86        CT    1  MOL     C86    86  -0.1200000   12.0115
   87        CT    1  MOL     C87    87  -0.1200000   12.0115
   88        HC    1  MOL     H88    88   0.0600000    1.0080
   89        HC    1  MOL     H89    89   0.0600000    1.0080
   90        HC    1  MOL     H90    90   0.0600000    1.0080
   91        HC    1  MOL     H91    91   0.0600000    1.0080
   92        CT    1  MOL     C92    92  -0.1200000   12.0115
   93        CT    1  MOL     C93    93  -0.1200000   12.0115
   94        HC    1  MOL     H94    94   0.0600000    1.0080
   95        HC    1  MOL     H95    95   0.0600000    1.0080
   96        HC    1  MOL     H96    96   0.0600000    1.0080
   97        HC    1  MOL     H97    97   0.0600000    1.0080
   98        CT    1  MOL     C98    98  -0.1200000   12.0115
   99        CT    1  MOL     C99    99  -0.1200000   12.0115
  100        HC    1  MOL    H100   100   0.0600000    1.0080
  101        HC    1  MOL    H101   101   0.0600000    1.0080
  102        HC    1  MOL    H102   102   0.0600000    1.0080
  103        HC    1  MOL    H103   103   0.0600000    1.0080
  104        CT    1  MOL    C104   104  -0.1200000   12.0115
  105        CT    1  MOL    C105   105  -0.1200000   12.0115
  106        HC    1  MOL    H106   106   0.0600000    1.0080
  107        HC    1  MOL    H107   107   0.0600000    1.0080
  108        HC    1  MOL    H108   108   0.0600000    1.0080
  109        HC    1  MOL    H109   109   0.0600000    1.0080
  110        CT    1  MOL    C110   110  -0.1200000   12.0115
  111        CT    1  MOL    C111   111  -0.1200000   12.0115
  112        HC    1  MOL    H112   112   0.0600000    1.0080
  113        HC    1  MOL    H113   113   0.0600000    1.0080
  114        HC    1  MOL    H114   114   0.0600000    1.0080
  115        HC    1  MOL    H115   115   0.0600000    1.0080
  116        CT    1  MOL    C116   116  -0.1200000   12.0115
  117        CT    1  MOL    C117   117  -0.1800000   12.0115
  118        HC    1  MOL    H118   118   0.0600000    1.0080
  119        HC    1  MOL    H119   119   0.0600000    1.0080
  120        HC    1  MOL    H120   120   0.0600000    1.0080
  121        HC    1  MOL    H121   121   0.0600000    1.0080
  122        HC    1  MOL    H122   122   0.0600000    1.0080

[ bonds ]
      1      2   1      0.1529 224262.4000
      1      3   1      0.1090 284512.0000
      1      4   1      0.1090 284512.0000
      1      7   1      0.1090 284512.0000
      2      5   1      0.1090 284512.0000
      2      6   1      0.1090 284512.0000
      2      8   1      0.1529 224262.4000
      8      9   1      0.1529 224262.4000
      8     10   1      0.1090 284512.0000
      8     11   1      0.1090 284512.0000
      9     12   1      0.1090 284512.0000
      9     13   1      0.1090 284512.0000
      9     14   1      0.1529 224262.4000
     14     15   1      0.1529 224262.4000
     14     16   1      0.1090 284512.0000
     14     17   1      0.1090 284512.0000
     15     18   1      0.1090 284512.0000
     15     19   1      0.1090 284512.0000
     15     20   1      0.1529 224262.4000
     20     21   1      0.1529 224262.4000
     20     22   1      0.1090 284512.0000
     20     23   1      0.1090 284512.0000
     21     24   1      0.1090 284512.0000
     21     25   1      0.1090 284512.0000
     21     26   1      0.1529 224262.4000
     26     27   1      0.1529 224262.4000
     26     28   1      0.1090 284512.0000
     26     29   1      0.1090 284512.0000
     27     30   1      0.1090 284512.0000
     27     31   1      0.1090 284512.0000
     27     32   1      0.1529 224262.4000
     32     33   1      0.1529 224262.4000
     32     34   1      0.1090 284512.0000
     32     35   1      0.1090 284512.0000
     33     36   1      0.1090 284512.0000
     33     37   1      0.1090 284512.0000
     33     38   1      0.1529 224262.4000
     38     39   1      0.1529 224262.4000
     38     40   1      0.1090 284512.0000
     38     41   1      0.1090 284512.0000
     39     42   1      0.1090 284512.0000
     39     43   1      0.1090 284512.0000
     39     44   1      0.1529 224262.4000
     44     45   1      0.1529 224262.4000
     44     46   1      0.1090 284512.0000
     44     47   1      0.1090 284512.0000
     45     48   1      0.1090 284512.0000
     45     49   1      0.1090 284512.0000
     45     50   1      0.1529 224262.4000
     50     51   1      0.1529 224262.4000
     50     52   1      0.1090 284512.0000
     50     53   1      0.1090 284512.0000
     51     54   1      0.1090 284512.0000
     51     55   1      0.1090 284512.0000
     51     56   1      0.1529 224262.4000
     56     57   1      0.1529 224262.4000
     56     58   1      0.1090 284512.0000
     56     59   1      0.1090 284512.0000
     57     60   1      0.1090 284512.0000
     57     61   1      0.1090 284512.0000
     57     62   1      0.1529 224262.4000
     62     63   1      0.1529 224262.4000
     62     64   1      0.1090 284512.0000
     62     65   1      0.1090 284512.0000
     63     66   1      0.1090 284512.0000
     63     67   1      0.1090 284512.0000
     63     68   1      0.1529 224262.4000
     68     69   1      0.1529 224262.4000
     68     70   1      0.1090 284512.0000
     68     71   1      0.1090 284512.0000
     69     72   1      0.1090 284512.0000
     69     73   1      0.1090 284512.0000
     69     74   1      0.1529 224262.4000
     74     75   1      0.1529 224262.4000
     74     76   1      0.1090 284512.0000
     74     77   1      0.1090 284512.0000
     75     78   1      0.1090 284512.0000
     75     79   1      0.1090 284512.0000
     75     80   1      0.1529 224262.4000
     80     81   1      0.1529 224262.4000
     80     82   1      0.1090 284512.0000
     80     83   1      0.1090 284512.0000
     81     84   1      0.1090 284512.0000
     81     85   1      0.1090 284512.0000
     81     86   1      0.1529 224262.4000
     86     87   1      0.1529 224262.4000
     86     88   1      0.1090 284512.0000
     86     89   1      0.1090 284512.0000
     87     90   1      0.1090 284512.0000
     87     91   1      0.1090 284512.0000
     87     92   1      0.1529 224262.4000
     92     93   1      0.1529 224262.4000
     92     94   1      0.1090 284512.0000
     92     95   1      0.1090 284512.0000
     93     96   1      0.1090 284512.0000
     93     97   1      0.1090 284512.0000
     93     98   1      0.1529 224262.4000
     98     99   1      0.1529 224262.4000
     98    100   1      0.1090 284512.0000
     98    101   1      0.1090 284512.0000
     99    102   1      0.1090 284512.0000
     99    103   1      0.1090 284512.0000
     99    104   1      0.1529 224262.4000
    104    105   1      0.1529 224262.4000
    104    106   1      0.1090 284512.0000
    104    107   1      0.1090 284512.0000
    105    108   1      0.1090 284512.0000
    105    109   1      0.1090 284512.0000
    105    110   1      0.1529 224262.4000
    110    111   1      0.1529 224262.4000
    110    112   1      0.1090 284512.0000
    110    113   1      0.1090 284512.0000
    111    114   1      0.1090 284512.0000
    111    115   1      0.1090 284512.0000
    111    116   1      0.1529 224262.4000
    116    117   1      0.1529 224262.4000
    116    118   1      0.1090 284512.0000
    116    119   1      0.1090 284512.0000
    117    120   1      0.1090 284512.0000
    117    121   1      0.1090 284512.0000
    117    122   1      0.1090 284512.0000

[ pairs ]
; ai   aj   funct   fudge_QQ  charge_i   charge_j   c6    c12
      3      5   2   0.50000     0.0600000    0.0600000   6.128906e-05  1.496315e-08
      3      6   2   0.50000     0.0600000    0.0600000   6.128906e-05  1.496315e-08
      3      8   2   0.50000     0.0600000   -0.1200000   2.494471e-04  1.671101e-07
      4      5   2   0.50000     0.0600000    0.0600000   6.128906e-05  1.496315e-08
      4      6   2   0.50000     0.0600000    0.0600000   6.128906e-05  1.496315e-08
      4      8   2   0.50000     0.0600000   -0.1200000   2.494471e-04  1.671101e-07
      7      5   2   0.50000     0.0600000    0.0600000   6.128906e-05  1.496315e-08
      7      6   2   0.50000     0.0600000    0.0600000   6.128906e-05  1.496315e-08
      7      8   2   0.50000     0.0600000   -0.1200000   2.494471e-04  1.671101e-07
      1      9   2   0.50000    -0.1800000   -0.1200000   1.015252e-03  1.866303e-06
      1     10   2   0.50000    -0.1800000    0.0600000   2.494471e-04  1.671101e-07
      1     11   2   0.50000    -0.1800000    0.0600000   2.494471e-04  1.671101e-07
      5      9   2   0.50000     0.0600000   -0.1200000   2.494471e-04  1.671101e-07
      5     10   2   0.50000     0.0600000    0.0600000   6.128906e-05  1.496315e-08
      5     11   2   0.50000     0.0600000    0.0600000   6.128906e-05  1.496315e-08
      6      9   2   0.50000     0.0600000   -0.1200000   2.494471e-04  1.671101e-07
      6     10   2   0.50000     0.0600000    0.0600000   6.128906e-05  1.496315e-08
      6     11   2   0.50000     0.0600000    0.0600000   6.128906e-05  1.496315e-08
      2     12   2   0.50000    -0.1200000    0.0600000   2.494471e-04  1.671101e-07
      2     13   2   0.50000    -0.1200000    0.0600000   2.494471e-04  1.671101e-07
      2     14   2   0.50000    -0.1200000   -0.1200000   1.015252e-03  1.866303e-06
     10     12   2   0.50000     0.0600000    0.0600000   6.128906e-05  1.496315e-08
     10     13   2   0.50000     0.0600000    0.0600000   6.128906e-05  1.496315e-08
     10     14   2   0.50000     0.0600000   -0.1200000   2.494471e-04  1.671101e-07
     11     12   2   0.50000     0.0600000    0.0600000   6.128906e-05  1.496315e-08
     11     13   2   0.50000     0.0600000    0.0600000   6.128906e-05  1.496315e-08
     11     14   2   0.50000     0.0600000   -0.1200000   2.494471e-04  1.671101e-07
      8     15   2   0.50000    -0.1200000   -0.1200000   1.015252e-03  1.866303e-06
      8     16   2   0.50000    -0.1200000    0.0600000   2.494471e-04  1.671101e-07
      8     17   2   0.50000    -0.1200000    0.0600000   2.494471e-04  1.671101e-07
     12     15   2   0.50000     0.0600000   -0.1200000   2.494471e-04  1.671101e-07
     12     16   2   0.50000     0.0600000    0.0600000   6.128906e-05  1.496315e-08
     12     17   2   0.50000     0.0600000    0.0600000   6.128906e-05  1.496315e-08
     13     15   2   0.50000     0.0600000   -0.1200000   2.494471e-04  1.671101e-07
     13     16   2   0.50000     0.0600000    0.0600000   6.128906e-05  1.496315e-08
     13     17   2   0.50000     0.0600000    0.0600000   6.128906e-05  1.496315e-08
      9     18   2   0.50000    -0.1200000    0.0600000   2.494471e-04  1.671101e-07
      9     19   2   0.50000    -0.1200000    0.0600000   2.494471e-04  1.671101e-07
      9     20   2   0.50000    -0.1200000   -0.1200000   1.015252e-03  1.866303e-06
     16     18   2   0.50000     0.0600000    0.0600000   6.128906e-05  1.496315e-08
     16     19   2   0.50000     0.0600000    0.0600000   6.128906e-05  1.496315e-08
     16     20   2   0.50000     0.0600000   -0.1200000   2.494471e-04  1.671101e-07
     17     18   2   0.50000     0.0600000    0.0600000   6.128906e-05  1.496315e-08
     17     19   2   0.50000     0.0600000    0.0600000   6.128906e-05  1.496315e-08
     17     20   2   0.50000     0.0600000   -0.1200000   2.494471e-04  1.671101e-07
     14     21   2   0.50000    -0.1200000   -0.1200000   1.015252e-03  1.866303e-06
     14     22   2   0.50000    -0.1200000    0.0600000   2.494471e-04  1.671101e-07
     14     23   2   0.50000    -0.1200000    0.0600000   2.494471e-04  1.671101e-07
     18     21   2   0.50000     0.0600000   -0.1200000   2.494471e-04  1.671101e-07
     18     22   2   0.50000     0.0600000    0.0600000   6.128906e-05  1.496315e-08
     18     23   2   0.50000     0.0600000    0.0600000   6.128906e-05  1.496315e-08
     19     21   2   0.50000     0.0600000   -0.1200000   2.494471e-04  1.671101e-07
     19     22   2   0.50000     0.0600000    0.0600000   6.128906e-05  1.496315e-08
     19     23   2   0.50000     0.0600000    0.0600000   6.128906e-05  1.496315e-08
     15     24   2   0.50000    -0.1200000    0.0600000   2.494471e-04  1.671101e-07
     15     25   2   0.50000    -0.1200000    0.0600000   2.494471e-04  1.671101e-07
     15     26   2   0.50000    -0.1200000   -0.1200000   1.015252e-03  1.866303e-06
     22     24   2   0.50000     0.0600000    0.0600000   6.128906e-05  1.496315e-08
     22     25   2   0.50000     0.0600000    0.0600000   6.128906e-05  1.496315e-08
     22     26   2   0.50000     0.0600000   -0.1200000   2.494471e-04  1.671101e-07
     23     24   2   0.50000     0.0600000    0.0600000   6.128906e-05  1.496315e-08
     23     25   2   0.50000     0.0600000    0.0600000   6.128906e-05  1.496315e-08
     23     26   2   0.50000     0.0600000   -0.1200000   2.494471e-04  1.671101e-07
     20     27   2   0.50000    -0.1200000   -0.1200000   1.015252e-03  1.866303e-06
     20     28   2   0.50000    -0.1200000    0.0600000   2.494471e-04  1.671101e-07
     20     29   2   0.50000    -0.1200000    0.0600000   2.494471e-04  1.671101e-07
     24     27   2   0.50000     0.0600000   -0.1200000   2.494471e-04  1.671101e-07
     24     28   2   0.50000     0.0600000    0.0600000   6.128906e-05  1.496315e-08
     24     29   2   0.50000     0.0600000    0.0600000   6.128906e-05  1.496315e-08
     25     27   2   0.50000     0.0600000   -0.1200000   2.494471e-04  1.671101e-07
     25     28   2   0.50000     0.0600000    0.0600000   6.128906e-05  1.496315e-08
     25     29   2   0.50000     0.0600000    0.0600000   6.128906e-05  1.496315e-08
     21     30   2   0.50000    -0.1200000    0.0600000   2.494471e-04  1.671101e-07
     21     31   2   0.50000    -0.1200000    0.0600000   2.494471e-04  1.671101e-07
     21     32   2   0.50000    -0.1200000   -0.1200000   1.015252e-03  1.866303e-06
     28     30   2   0.50000     0.0600000    0.0600000   6.128906e-05  1.496315e-08
     28     31   2   0.50000     0.0600000    0.0600000   6.128906e-05  1.496315e-08
     28     32   2   0.50000     0.0600000   -0.1200000   2.494471e-04  1.671101e-07
     29     30   2   0.50000     0.0600000    0.0600000   6.128906e-05  1.496315e-08
     29     31   2   0.50000     0.0600000    0.0600000   6.128906e-05  1.496315e-08
     29     32   2   0.50000     0.0600000   -0.1200000   2.494471e-04  1.671101e-07
     26     33   2   0.50000    -0.1200000   -0.1200000   1.015252e-03  1.866303e-06
     26     34   2   0.50000    -0.1200000    0.0600000   2.494471e-04  1.671101e-07
     26     35   2   0.50000    -0.1200000    0.0600000   2.494471e-04  1.671101e-07
     30     33   2   0.50000     0.0600000   -0.1200000   2.494471e-04  1.671101e-07
     30     34   2   0.50000     0.0600000    0.0600000   6.128906e-05  1.496315e-08
     30     35   2   0.50000     0.0600000    0.0600000   6.128906e-05  1.496315e-08
     31     33   2   0.50000     0.0600000   -0.1200000   2.494471e-04  1.671101e-07
     31     34   2   0.50000     0.0600000    0.0600000   6.128906e-05  1.496315e-08
     31     35   2   0.50000     0.0600000    0.0600000   6.128906e-05  1.496315e-08
     27     36   2   0.50000    -0.1200000    0.0600000   2.494471e-04  1.671101e-07
     27     37   2   0.50000    -0.1200000    0.0600000   2.494471e-04  1.671101e-07
     27     38   2   0.50000    -0.1200000   -0.1200000   1.015252e-03  1.866303e-06
     34     36   2   0.50000     0.0600000    0.0600000   6.128906e-05  1.496315e-08
     34     37   2   0.50000     0.0600000    0.0600000   6.128906e-05  1.496315e-08
     34     38   2   0.50000     0.0600000   -0.1200000   2.494471e-04  1.671101e-07
     35     36   2   0.50000     0.0600000    0.0600000   6.128906e-05  1.496315e-08
     35     37   2   0.50000     0.0600000    0.0600000   6.128906e-05  1.496315e-08
     35     38   2   0.50000     0.0600000   -0.1200000   2.494471e-04  1.671101e-07
     32     39   2   0.50000    -0.1200000   -0.1200000   1.015252e-03  1.866303e-06
     32     40   2   0.50000    -0.1200000    0.0600000   2.494471e-04  1.671101e-07
     32     41   2   0.50000    -0.1200000    0.0600000   2.494471e-04  1.671101e-07
     36     39   2   0.50000     0.0600000   -0.1200000   2.494471e-04  1.671101e-07
     36     40   2   0.50000     0.0600000    0.0600000   6.128906e-05  1.496315e-08
     36     41   2   0.50000     0.0600000    0.0600000   6.128906e-05  1.496315e-08
     37     39   2   0.50000     0.0600000   -0.1200000   2.494471e-04  1.671101e-07
     37     40   2   0.50000     0.0600000    0.0600000   6.128906e-05  1.496315e-08
     37     41   2   0.50000     0.0600000    0.0600000   6.128906e-05  1.496315e-08
     33     42   2   0.50000    -0.1200000    0.0600000   2.494471e-04  1.671101e-07
     33     43   2   0.50000    -0.1200000    0.0600000   2.494471e-04  1.671101e-07
     33     44   2   0.50000    -0.1200000   -0.1200000   1.015252e-03  1.866303e-06
     40     42   2   0.50000     0.0600000    0.0600000   6.128906e-05  1.496315e-08
     40     43   2   0.50000     0.0600000    0.0600000   6.128906e-05  1.496315e-08
     40     44   2   0.50000     0.0600000   -0.1200000   2.494471e-04  1.671101e-07
     41     42   2   0.50000     0.0600000    0.0600000   6.128906e-05  1.496315e-08
     41     43   2   0.50000     0.0600000    0.0600000   6.128906e-05  1.496315e-08
     41     44   2   0.50000     0.0600000   -0.1200000   2.494471e-04  1.671101e-07
     38     45   2   0.50000    -0.1200000   -0.1200000   1.015252e-03  1.866303e-06
     38     46   2   0.50000    -0.1200000    0.0600000   2.494471e-04  1.671101e-07
     38     47   2   0.50000    -0.1200000    0.0600000   2.494471e-04  1.671101e-07
     42     45   2   0.50000     0.0600000   -0.1200000   2.494471e-04  1.671101e-07
     42     46   2   0.50000     0.0600000    0.0600000   6.128906e-05  1.496315e-08
     42     47   2   0.50000     0.0600000    0.0600000   6.128906e-05  1.496315e-08
     43     45   2   0.50000     0.0600000   -0.1200000   2.494471e-04  1.671101e-07
     43     46   2   0.50000     0.0600000    0.0600000   6.128906e-05  1.496315e-08
     43     47   2   0.50000     0.0600000    0.0600000   6.128906e-05  1.496315e-08
     39     48   2   0.50000    -0.1200000    0.0600000   2.494471e-04  1.671101e-07
     39     49   2   0.50000    -0.1200000    0.0600000   2.494471e-04  1.671101e-07
     39     50   2   0.50000    -0.1200000   -0.1200000   1.015252e-03  1.866303e-06
     46     48   2   0.50000     0.0600000    0.0600000   6.128906e-05  1.496315e-08
     46     49   2   0.50000     0.0600000    0.0600000   6.128906e-05  1.496315e-08
     46     50   2   0.50000     0.0600000   -0.1200000   2.494471e-04  1.671101e-07
     47     48   2   0.50000     0.0600000    0.0600000   6.128906e-05  1.496315e-08
     47     49   2   0.50000     0.0600000    0.0600000   6.128906e-05  1.496315e-08
     47     50   2   0.50000     0.0600000   -0.1200000   2.494471e-04  1.671101e-07
     44     51   2   0.50000    -0.1200000   -0.1200000   1.015252e-03  1.866303e-06
     44     52   2   0.50000    -0.1200000    0.0600000   2.494471e-04  1.671101e-07
     44     53   2   0.50000    -0.1200000    0.0600000   2.494471e-04  1.671101e-07
     48     51   2   0.50000     0.0600000   -0.1200000   2.494471e-04  1.671101e-07
     48     52   2   0.50000     0.0600000    0.0600000   6.128906e-05  1.496315e-08
     48     53   2   0.50000     0.0600000    0.0600000   6.128906e-05  1.496315e-08
     49     51   2   0.50000     0.0600000   -0.1200000   2.494471e-04  1.671101e-07
     49     52   2   0.50000     0.0600000    0.0600000   6.128906e-05  1.496315e-08
     49     53   2   0.50000     0.0600000    0.0600000   6.128906e-05  1.496315e-08
     45     54   2   0.50000    -0.1200000    0.0600000   2.494471e-04  1.671101e-07
     45     55   2   0.50000    -0.1200000    0.0600000   2.494471e-04  1.671101e-07
     45     56   2   0.50000    -0.1200000   -0.1200000   1.015252e-03  1.866303e-06
     52     54   2   0.50000     0.0600000    0.0600000   6.128906e-05  1.496315e-08
     52     55   2   0.50000     0.0600000    0.0600000   6.128906e-05  1.496315e-08
     52     56   2   0.50000     0.0600000   -0.1200000   2.494471e-04  1.671101e-07
     53     54   2   0.50000     0.0600000    0.0600000   6.128906e-05  1.496315e-08
     53     55   2   0.50000     0.0600000    0.0600000   6.128906e-05  1.496315e-08
     53     56   2   0.50000     0.0600000   -0.1200000   2.494471e-04  1.671101e-07
     50     57   2   0.50000    -0.1200000   -0.1200000   1.015252e-03  1.866303e-06
     50     58   2   0.50000    -0.1200000    0.0600000   2.494471e-04  1.671101e-07
     50     59   2   0.50000    -0.1200000    0.0600000   2.494471e-04  1.671101e-07
     54     57   2   0.50000     0.0600000   -0.1200000   2.494471e-04  1.671101e-07
     54     58   2   0.50000     0.0600000    0.0600000   6.128906e-05  1.496315e-08
     54     59   2   0.50000     0.0600000    0.0600000   6.128906e-05  1.496315e-08
     55     57   2   0.50000     0.0600000   -0.1200000   2.494471e-04  1.671101e-07
     55     58   2   0.50000     0.0600000    0.0600000   6.128906e-05  1.496315e-08
     55     59   2   0.50000     0.0600000    0.0600000   6.128906e-05  1.496315e-08
     51     60   2   0.50000    -0.1200000    0.0600000   2.494471e-04  1.671101e-07
     51     61   2   0.50000    -0.1200000    0.0600000   2.494471e-04  1.671101e-07
     51     62   2   0.50000    -0.1200000   -0.1200000   1.015252e-03  1.866303e-06
     58     60   2   0.50000     0.0600000    0.0600000   6.128906e-05  1.496315e-08
     58     61   2   0.50000     0.0600000    0.0600000   6.128906e-05  1.496315e-08
     58     62   2   0.50000     0.0600000   -0.1200000   2.494471e-04  1.671101e-07
     59     60   2   0.50000     0.0600000    0.0600000   6.128906e-05  1.496315e-08
     59     61   2   0.50000     0.0600000    0.0600000   6.128906e-05  1.496315e-08
     59     62   2   0.50000     0.0600000   -0.1200000   2.494471e-04  1.671101e-07
     56     63   2   0.50000    -0.1200000   -0.1200000   1.015252e-03  1.866303e-06
     56     64   2   0.50000    -0.1200000    0.0600000   2.494471e-04  1.671101e-07
     56     65   2   0.50000    -0.1200000    0.0600000   2.494471e-04  1.671101e-07
     60     63   2   0.50000     0.0600000   -0.1200000   2.494471e-04  1.671101e-07
     60     64   2   0.50000     0.0600000    0.0600000   6.128906e-05  1.496315e-08
     60     65   2   0.50000     0.0600000    0.0600000   6.128906e-05  1.496315e-08
     61     63   2   0.50000     0.0600000   -0.1200000   2.494471e-04  1.671101e-07
     61     64   2   0.50000     0.0600000    0.0600000   6.128906e-05  1.496315e-08
     61     65   2   0.50000     0.0600000    0.0600000   6.128906e-05  1.496315e-08
     57     66   2   0.50000    -0.1200000    0.0600000   2.494471e-04  1.671101e-07
     57     67   2   0.50000    -0.1200000    0.0600000   2.494471e-04  1.671101e-07
     57     68   2   0.50000    -0.1200000   -0.1200000   1.015252e-03  1.866303e-06
     64     66   2   0.50000     0.0600000    0.0600000   6.128906e-05  1.496315e-08
     64     67   2   0.50000     0.0600000    0.0600000   6.128906e-05  1.496315e-08
     64     68   2   0.50000     0.0600000   -0.1200000   2.494471e-04  1.671101e-07
     65     66   2   0.50000     0.0600000    0.0600000   6.128906e-05  1.496315e-08
     65     67   2   0.50000     0.0600000    0.0600000   6.128906e-05  1.496315e-08
     65     68   2   0.50000     0.0600000   -0.1200000   2.494471e-04  1.671101e-07
     62     69   2   0.50000    -0.1200000   -0.1200000   1.015252e-03  1.866303e-06
     62     70   2   0.50000    -0.1200000    0.0600000   2.494471e-04  1.671101e-07
     62     71   2   0.50000    -0.1200000    0.0600000   2.494471e-04  1.671101e-07
     66     69   2   0.50000     0.0600000   -0.1200000   2.494471e-04  1.671101e-07
     66     70   2   0.50000     0.0600000    0.0600000   6.128906e-05  1.496315e-08
     66     71   2   0.50000     0.0600000    0.0600000   6.128906e-05  1.496315e-08
     67     69   2   0.50000     0.0600000   -0.1200000   2.494471e-04  1.671101e-07
     67     70   2   0.50000     0.0600000    0.0600000   6.128906e-05  1.496315e-08
     67     71   2   0.50000     0.0600000    0.0600000   6.128906e-05  1.496315e-08
     63     72   2   0.50000    -0.1200000    0.0600000   2.494471e-04  1.671101e-07
     63     73   2   0.50000    -0.1200000    0.0600000   2.494471e-04  1.671101e-07
     63     74   2   0.50000    -0.1200000   -0.1200000   1.015252e-03  1.866303e-06
     70     72   2   0.50000     0.0600000    0.0600000   6.128906e-05  1.496315e-08
     70     73   2   0.50000     0.0600000    0.0600000   6.128906e-05  1.496315e-08
     70     74   2   0.50000     0.0600000   -0.1200000   2.494471e-04  1.671101e-07
     71     72   2   0.50000     0.0600000    0.0600000   6.128906e-05  1.496315e-08
     71     73   2   0.50000     0.0600000    0.0600000   6.128906e-05  1.496315e-08
     71     74   2   0.50000     0.0600000   -0.1200000   2.494471e-04  1.671101e-07
     68     75   2   0.50000    -0.1200000   -0.1200000   1.015252e-03  1.866303e-06
     68     76   2   0.50000    -0.1200000    0.0600000   2.494471e-04  1.671101e-07
     68     77   2   0.50000    -0.1200000    0.0600000   2.494471e-04  1.671101e-07
     72     75   2   0.50000     0.0600000   -0.1200000   2.494471e-04  1.671101e-07
     72     76   2   0.50000     0.0600000    0.0600000   6.128906e-05  1.496315e-08
     72     77   2   0.50000     0.0600000    0.0600000   6.128906e-05  1.496315e-08
     73     75   2   0.50000     0.0600000   -0.1200000   2.494471e-04  1.671101e-07
     73     76   2   0.50000     0.0600000    0.0600000   6.128906e-05  1.496315e-08
     73     77   2   0.50000     0.0600000    0.0600000   6.128906e-05  1.496315e-08
     69     78   2   0.50000    -0.1200000    0.0600000   2.494471e-04  1.671101e-07
     69     79   2   0.50000    -0.1200000    0.0600000   2.494471e-04  1.671101e-07
     69     80   2   0.50000    -0.1200000   -0.1200000   1.015252e-03  1.866303e-06
     76     78   2   0.50000     0.0600000    0.0600000   6.128906e-05  1.496315e-08
     76     79   2   0.50000     0.0600000    0.0600000   6.128906e-05  1.496315e-08
     76     80   2   0.50000     0.0600000   -0.1200000   2.494471e-04  1.671101e-07
     77     78   2   0.50000     0.0600000    0.0600000   6.128906e-05  1.496315e-08
     77     79   2   0.50000     0.0600000    0.0600000   6.128906e-05  1.496315e-08
     77     80   2   0.50000     0.0600000   -0.1200000   2.494471e-04  1.671101e-07
     74     81   2   0.50000    -0.1200000   -0.1200000   1.015252e-03  1.866303e-06
     74     82   2   0.50000    -0.1200000    0.0600000   2.494471e-04  1.671101e-07
     74     83   2   0.50000    -0.1200000    0.0600000   2.494471e-04  1.671101e-07
     78     81   2   0.50000     0.0600000   -0.1200000   2.494471e-04  1.671101e-07
     78     82   2   0.50000     0.0600000    0.0600000   6.128906e-05  1.496315e-08
     78     83   2   0.50000     0.0600000    0.0600000   6.128906e-05  1.496315e-08
     79     81   2   0.50000     0.0600000   -0.1200000   2.494471e-04  1.671101e-07
     79     82   2   0.50000     0.0600000    0.0600000   6.128906e-05  1.496315e-08
     79     83   2   0.50000     0.0600000    0.0600000   6.128906e-05  1.496315e-08
     75     84   2   0.50000    -0.1200000    0.0600000   2.494471e-04  1.671101e-07
     75     85   2   0.50000    -0.1200000    0.0600000   2.494471e-04  1.671101e-07
     75     86   2   0.50000    -0.1200000   -0.1200000   1.015252e-03  1.866303e-06
     82     84   2   0.50000     0.0600000    0.0600000   6.128906e-05  1.496315e-08
     82     85   2   0.50000     0.0600000    0.0600000   6.128906e-05  1.496315e-08
     82     86   2   0.50000     0.0600000   -0.1200000   2.494471e-04  1.671101e-07
     83     84   2   0.50000     0.0600000    0.0600000   6.128906e-05  1.496315e-08
     83     85   2   0.50000     0.0600000    0.0600000   6.128906e-05  1.496315e-08
     83     86   2   0.50000     0.0600000   -0.1200000   2.494471e-04  1.671101e-07
     80     87   2   0.50000    -0.1200000   -0.1200000   1.015252e-03  1.866303e-06
     80     88   2   0.50000    -0.1200000    0.0600000   2.494471e-04  1.671101e-07
     80     89   2   0.50000    -0.1200000    0.0600000   2.494471e-04  1.671101e-07
     84     87   2   0.50000     0.0600000   -0.1200000   2.494471e-04  1.671101e-07
     84     88   2   0.50000     0.0600000    0.0600000   6.128906e-05  1.496315e-08
     84     89   2   0.50000     0.0600000    0.0600000   6.128906e-05  1.496315e-08
     85     87   2   0.50000     0.0600000   -0.1200000   2.494471e-04  1.671101e-07
     85     88   2   0.50000     0.0600000    0.0600000   6.128906e-05  1.496315e-08
     85     89   2   0.50000     0.0600000    0.0600000   6.128906e-05  1.496315e-08
     81     90   2   0.50000    -0.1200000    0.0600000   2.494471e-04  1.671101e-07
     81     91   2   0.50000    -0.1200000    0.0600000   2.494471e-04  1.671101e-07
     81     92   2   0.50000    -0.1200000   -0.1200000   1.015252e-03  1.866303e-06
     88     90   2   0.50000     0.0600000    0.0600000   6.128906e-05  1.496315e-08
     88     91   2   0.50000     0.0600000    0.0600000   6.128906e-05  1.496315e-08
     88     92   2   0.50000     0.0600000   -0.1200000   2.494471e-04  1.671101e-07
     89     90   2   0.50000     0.0600000    0.0600000   6.128906e-05  1.496315e-08
     89     91   2   0.50000     0.0600000    0.0600000   6.128906e-05  1.496315e-08
     89     92   2   0.50000     0.0600000   -0.1200000   2.494471e-04  1.671101e-07
     86     93   2   0.50000    -0.1200000   -0.1200000   1.015252e-03  1.866303e-06
     86     94   2   0.50000    -0.1200000    0.0600000   2.494471e-04  1.671101e-07
     86     95   2   0.50000    -0.1200000    0.0600000   2.494471e-04  1.671101e-07
     90     93   2   0.50000     0.0600000   -0.1200000   2.494471e-04  1.671101e-07
     90     94   2   0.50000     0.0600000    0.0600000   6.128906e-05  1.496315e-08
     90     95   2   0.50000     0.0600000    0.0600000   6.128906e-05  1.496315e-08
     91     93   2   0.50000     0.0600000   -0.1200000   2.494471e-04  1.671101e-07
     91     94   2   0.50000     0.0600000    0.0600000   6.128906e-05  1.496315e-08
     91     95   2   0.50000     0.0600000    0.0600000   6.128906e-05  1.496315e-08
     87     96   2   0.50000    -0.1200000    0.0600000   2.494471e-04  1.671101e-07
     87     97   2   0.50000    -0.1200000    0.0600000   2.494471e-04  1.671101e-07
     87     98   2   0.50000    -0.1200000   -0.1200000   1.015252e-03  1.866303e-06
     94     96   2   0.50000     0.0600000    0.0600000   6.128906e-05  1.496315e-08
     94     97   2   0.50000     0.0600000    0.0600000   6.128906e-05  1.496315e-08
     94     98   2   0.50000     0.0600000   -0.1200000   2.494471e-04  1.671101e-07
     95     96   2   0.50000     0.0600000    0.0600000   6.128906e-05  1.496315e-08
     95     97   2   0.50000     0.0600000    0.0600000   6.128906e-05  1.496315e-08
     95     98   2   0.50000     0.0600000   -0.1200000   2.494471e-04  1.671101e-07
     92     99   2   0.50000    -0.1200000   -0.1200000   1.015252e-03  1.866303e-06
     92    100   2   0.50000    -0.1200000    0.0600000   2.494471e-04  1.671101e-07
     92    101   2   0.50000    -0.1200000    0.0600000   2.494471e-04  1.671101e-07
     96     99   2   0.50000     0.0600000   -0.1200000   2.494471e-04  1.671101e-07
     96    100   2   0.50000     0.0600000    0.0600000   6.128906e-05  1.496315e-08
     96    101   2   0.50000     0.0600000    0.0600000   6.128906e-05  1.496315e-08
     97     99   2   0.50000     0.0600000   -0.1200000   2.494471e-04  1.671101e-07
     97    100   2   0.50000     0.0600000    0.0600000   6.128906e-05  1.496315e-08
     97    101   2   0.50000     0.0600000    0.0600000   6.128906e-05  1.496315e-08
     93    102   2   0.50000    -0.1200000    0.0600000   2.494471e-04  1.671101e-07
     93    103   2   0.50000    -0.1200000    0.0600000   2.494471e-04  1.671101e-07
     93    104   2   0.50000    -0.1200000   -0.1200000   1.015252e-03  1.866303e-06
    100    102   2   0.50000     0.0600000    0.0600000   6.128906e-05  1.496315e-08
    100    103   2   0.50000     0.0600000    0.0600000   6.128906e-05  1.496315e-08
    100    104   2   0.50000     0.0600000   -0.1200000   2.494471e-04  1.671101e-07
    101    102   2   0.50000     0.0600000    0.0600000   6.128906e-05  1.496315e-08
    101    103   2   0.50000     0.0600000    0.0600000   6.128906e-05  1.496315e-08
    101    104   2   0.50000     0.0600000   -0.1200000   2.494471e-04  1.671101e-07
     98    105   2   0.50000    -0.1200000   -0.1200000   1.015252e-03  1.866303e-06
     98    106   2   0.50000    -0.1200000    0.0600000   2.494471e-04  1.671101e-07
     98    107   2   0.50000    -0.1200000    0.0600000   2.494471e-04  1.671101e-07
    102    105   2   0.50000     0.0600000   -0.1200000   2.494471e-04  1.671101e-07
    102    106   2   0.50000     0.0600000    0.0600000   6.128906e-05  1.496315e-08
    102    107   2   0.50000     0.0600000    0.0600000   6.128906e-05  1.496315e-08
    103    105   2   0.50000     0.0600000   -0.1200000   2.494471e-04  1.671101e-07
    103    106   2   0.50000     0.0600000    0.0600000   6.128906e-05  1.496315e-08
    103    107   2   0.50000     0.0600000    0.0600000   6.128906e-05  1.496315e-08
     99    108   2   0.50000    -0.1200000    0.0600000   2.494471e-04  1.671101e-07
     99    109   2   0.50000    -0.1200000    0.0600000   2.494471e-04  1.671101e-07
     99    110   2   0.50000    -0.1200000   -0.1200000   1.015252e-03  1.866303e-06
    106    108   2   0.50000     0.0600000    0.0600000   6.128906e-05  1.496315e-08
    106    109   2   0.50000     0.0600000    0.0600000   6.128906e-05  1.496315e-08
    106    110   2   0.50000     0.0600000   -0.1200000   2.494471e-04  1.671101e-07
    107    108   2   0.50000     0.0600000    0.0600000   6.128906e-05  1.496315e-08
    107    109   2   0.50000     0.0600000    0.0600000   6.128906e-05  1.496315e-08
    107    110   2   0.50000     0.0600000   -0.1200000   2.494471e-04  1.671101e-07
    104    111   2   0.50000    -0.1200000   -0.1200000   1.015252e-03  1.866303e-06
    104    112   2   0.50000    -0.1200000    0.0600000   2.494471e-04  1.671101e-07
    104    113   2   0.50000    -0.1200000    0.0600000   2.494471e-04  1.671101e-07
    108    111   2   0.50000     0.0600000   -0.1200000   2.494471e-04  1.671101e-07
    108    112   2   0.50000     0.0600000    0.0600000   6.128906e-05  1.496315e-08
    108    113   2   0.50000     0.0600000    0.0600000   6.128906e-05  1.496315e-08
    109    111   2   0.50000     0.0600000   -0.1200000   2.494471e-04  1.671101e-07
    109    112   2   0.50000     0.0600000    0.0600000   6.128906e-05  1.496315e-08
    109    113   2   0.50000     0.0600000    0.0600000   6.128906e-05  1.496315e-08
    105    114   2   0.50000    -0.1200000    0.0600000   2.494471e-04  1.671101e-07
    105    115   2   0.50000    -0.1200000    0.0600000   2.494471e-04  1.671101e-07
    105    116   2   0.50000    -0.1200000   -0.1200000   1.015252e-03  1.866303e-06
    112    114   2   0.50000     0.0600000    0.0600000   6.128906e-05  1.496315e-08
    112    115   2   0.50000     0.0600000    0.0600000   6.128906e-05  1.496315e-08
    112    116   2   0.50000     0.0600000   -0.1200000   2.494471e-04  1.671101e-07
    113    114   2   0.50000     0.0600000    0.0600000   6.128906e-05  1.496315e-08
    113    115   2   0.50000     0.0600000    0.0600000   6.128906e-05  1.496315e-08
    113    116   2   0.50000     0.0600000   -0.1200000   2.494471e-04  1.671101e-07
    110    117   2   0.50000    -0.1200000   -0.1800000   1.015252e-03  1.866303e-06
    110    118   2   0.50000    -0.1200000    0.0600000   2.494471e-04  1.671101e-07
    110    119   2   0.50000    -0.1200000    0.0600000   2.494471e-04  1.671101e-07
    114    117   2   0.50000     0.0600000   -0.1800000   2.494471e-04  1.671101e-07
    114    118   2   0.50000     0.0600000    0.0600000   6.128906e-05  1.496315e-08
    114    119   2   0.50000     0.0600000    0.0600000   6.128906e-05  1.496315e-08
    115    117   2   0.50000     0.0600000   -0.1800000   2.494471e-04  1.671101e-07
    115    118   2   0.50000     0.0600000    0.0600000   6.128906e-05  1.496315e-08
    115    119   2   0.50000     0.0600000    0.0600000   6.128906e-05  1.496315e-08
    111    120   2   0.50000    -0.1200000    0.0600000   2.494471e-04  1.671101e-07
    111    121   2   0.50000    -0.1200000    0.0600000   2.494471e-04  1.671101e-07
    111    122   2   0.50000    -0.1200000    0.0600000   2.494471e-04  1.671101e-07
    118    120   2   0.50000     0.0600000    0.0600000   6.128906e-05  1.496315e-08
    118    121   2   0.50000     0.0600000    0.0600000   6.128906e-05  1.496315e-08
    118    122   2   0.50000     0.0600000    0.0600000   6.128906e-05  1.496315e-08
    119    120   2   0.50000     0.0600000    0.0600000   6.128906e-05  1.496315e-08
    119    121   2   0.50000     0.0600000    0.0600000   6.128906e-05  1.496315e-08
    119    122   2   0.50000     0.0600000    0.0600000   6.128906e-05  1.496315e-08

[ angles ]
; ai  aj  ak
      2      1      3   1    110.7000    313.8000
      2      1      4   1    110.7000    313.8000
      2      1      7   1    110.7000    313.8000
      3      1      4   1    107.8000    276.1440
      3      1      7   1    107.8000    276.1440
      4      1      7   1    107.8000    276.1440
      1      2      5   1    110.7000    313.8000
      1      2      6   1    110.7000    313.8000
      1      2      8   1    112.7000    488.2728
      5      2      6   1    107.8000    276.1440
      5      2      8   1    110.7000    313.8000
      6      2      8   1    110.7000    313.8000
      2      8      9   1    112.7000    488.2728
      2      8     10   1    110.7000    313.8000
      2      8     11   1    110.7000    313.8000
      9      8     10   1    110.7000    313.8000
      9      8     11   1    110.7000    313.8000
     10      8     11   1    107.8000    276.1440
      8      9     12   1    110.7000    313.8000
      8      9     13   1    110.7000    313.8000
      8      9     14   1    112.7000    488.2728
     12      9     13   1    107.8000    276.1440
     12      9     14   1    110.7000    313.8000
     13      9     14   1    110.7000    313.8000
      9     14     15   1    112.7000    488.2728
      9     14     16   1    110.7000    313.8000
      9     14     17   1    110.7000    313.8000
     15     14     16   1    110.7000    313.8000
     15     14     17   1    110.7000    313.8000
     16     14     17   1    107.8000    276.1440
     14     15     18   1    110.7000    313.8000
     14     15     19   1    110.7000    313.8000
     14     15     20   1    112.7000    488.2728
     18     15     19   1    107.8000    276.1440
     18     15     20   1    110.7000    313.8000
     19     15     20   1    110.7000    313.8000
     15     20     21   1    112.7000    488.2728
     15     20     22   1    110.7000    313.8000
     15     20     23   1    110.7000    313.8000
     21     20     22   1    110.7000    313.8000
     21     20     23   1    110.7000    313.8000
     22     20     23   1    107.8000    276.1440
     20     21     24   1    110.7000    313.8000
     20     21     25   1    110.7000    313.8000
     20     21     26   1    112.7000    488.2728
     24     21     25   1    107.8000    276.1440
     24     21     26   1    110.7000    313.8000
     25     21     26   1    110.7000    313.8000
     21     26     27   1    112.7000    488.2728
     21     26     28   1    110.7000    313.8000
     21     26     29   1    110.7000    313.8000
     27     26     28   1    110.7000    313.8000
     27     26     29   1    110.7000    313.8000
     28     26     29   1    107.8000    276.1440
     26     27     30   1    110.7000    313.8000
     26     27     31   1    110.7000    313.8000
     26     27     32   1    112.7000    488.2728
     30     27     31   1    107.8000    276.1440
     30     27     32   1    110.7000    313.8000
     31     27     32   1    110.7000    313.8000
     27     32     33   1    112.7000    488.2728
     27     32     34   1    110.7000    313.8000
     27     32     35   1    110.7000    313.8000
     33     32     34   1    110.7000    313.8000
     33     32     35   1    110.7000    313.8000
     34     32     35   1    107.8000    276.1440
     32     33     36   1    110.7000    313.8000
     32     33     37   1    110.7000    313.8000
     32     33     38   1    112.7000    488.2728
     36     33     37   1    107.8000    276.1440
     36     33     38   1    110.7000    313.8000
     37     33     38   1    110.7000    313.8000
     33     38     39   1    112.7000    488.2728
     33     38     40   1    110.7000    313.8000
     33     38     41   1    110.7000    313.8000
     39     38     40   1    110.7000    313.8000
     39     38     41   1    110.7000    313.8000
     40     38     41   1    107.8000    276.1440
     38     39     42   1    110.7000    313.8000
     38     39     43   1    110.7000    313.8000
     38     39     44   1    112.7000    488.2728
     42     39     43   1    107.8000    276.1440
     42     39     44   1    110.7000    313.8000
     43     39     44   1    110.7000    313.8000
     39     44     45   1    112.7000    488.2728
     39     44     46   1    110.7000    313.8000
     39     44     47   1    110.7000    313.8000
     45     44     46   1    110.7000    313.8000
     45     44     47   1    110.7000    313.8000
     46     44     47   1    107.8000    276.1440
     44     45     48   1    110.7000    313.8000
     44     45     49   1    110.7000    313.8000
     44     45     50   1    112.7000    488.2728
     48     45     49   1    107.8000    276.1440
     48     45     50   1    110.7000    313.8000
     49     45     50   1    110.7000    313.8000
     45     50     51   1    112.7000    488.2728
     45     50     52   1    110.7000    313.8000
     45     50     53   1    110.7000    313.8000
     51     50     52   1    110.7000    313.8000
     51     50     53   1    110.7000    313.8000
     52     50     53   1    107.8000    276.1440
     50     51     54   1    110.7000    313.8000
     50     51     55   1    110.7000    313.8000
     50     51     56   1    112.7000    488.2728
     54     51     55   1    107.8000    276.1440
     54     51     56   1    110.7000    313.8000
     55     51     56   1    110.7000    313.8000
     51     56     57   1    112.7000    488.2728
     51     56     58   1    110.7000    313.8000
     51     56     59   1    110.7000    313.8000
     57     56     58   1    110.7000    313.8000
     57     56     59   1    110.7000    313.8000
     58     56     59   1    107.8000    276.1440
     56     57     60   1    110.7000    313.8000
     56     57     61   1    110.7000    313.8000
     56     57     62   1    112.7000    488.2728
     60     57     61   1    107.8000    276.1440
     60     57     62   1    110.7000    313.8000
     61     57     62   1    110.7000    313.8000
     57     62     63   1    112.7000    488.2728
     57     62     64   1    110.7000    313.8000
     57     62     65   1    110.7000    313.8000
     63     62     64   1    110.7000    313.8000
     63     62     65   1    110.7000    313.8000
     64     62     65   1    107.8000    276.1440
     62     63     66   1    110.7000    313.8000
     62     63     67   1    110.7000    313.8000
     62     63     68   1    112.7000    488.2728
     66     63     67   1    107.8000    276.1440
     66     63     68   1    110.7000    313.8000
     67     63     68   1    110.7000    313.8000
     63     68     69   1    112.7000    488.2728
     63     68     70   1    110.7000    313.8000
     63     68     71   1    110.7000    313.8000
     69     68     70   1    110.7000    313.8000
     69     68     71   1    110.7000    313.8000
     70     68     71   1    107.8000    276.1440
     68     69     72   1    110.7000    313.8000
     68     69     73   1    110.7000    313.8000
     68     69     74   1    112.7000    488.2728
     72     69     73   1    107.8000    276.1440
     72     69     74   1    110.7000    313.8000
     73     69     74   1    110.7000    313.8000
     69     74     75   1    112.7000    488.2728
     69     74     76   1    110.7000    313.8000
     69     74     77   1    110.7000    313.8000
     75     74     76   1    110.7000    313.8000
     75     74     77   1    110.7000    313.8000
     76     74     77   1    107.8000    276.1440
     74     75     78   1    110.7000    313.8000
     74     75     79   1    110.7000    313.8000
     74     75     80   1    112.7000    488.2728
     78     75     79   1    107.8000    276.1440
     78     75     80   1    110.7000    313.8000
     79     75     80   1    110.7000    313.8000
     75     80     81   1    112.7000    488.2728
     75     80     82   1    110.7000    313.8000
     75     80     83   1    110.7000    313.8000
     81     80     82   1    110.7000    313.8000
     81     80     83   1    110.7000    313.8000
     82     80     83   1    107.8000    276.1440
     80     81     84   1    110.7000    313.8000
     80     81     85   1    110.7000    313.8000
     80     81     86   1    112.7000    488.2728
     84     81     85   1    107.8000    276.1440
     84     81     86   1    110.7000    313.8000
     85     81     86   1    110.7000    313.8000
     81     86     87   1    112.7000    488.2728
     81     86     88   1    110.7000    313.8000
     81     86     89   1    110.7000    313.8000
     87     86     88   1    110.7000    313.8000
     87     86     89   1    110.7000    313.8000
     88     86     89   1    107.8000    276.1440
     86     87     90   1    110.7000    313.8000
     86     87     91   1    110.7000    313.8000
     86     87     92   1    112.7000    488.2728
     90     87     91   1    107.8000    276.1440
     90     87     92   1    110.7000    313.8000
     91     87     92   1    110.7000    313.8000
     87     92     93   1    112.7000    488.2728
     87     92     94   1    110.7000    313.8000
     87     92     95   1    110.7000    313.8000
     93     92     94   1    110.7000    313.8000
     93     92     95   1    110.7000    313.8000
     94     92     95   1    107.8000    276.1440
     92     93     96   1    110.7000    313.8000
     92     93     97   1    110.7000    313.8000
     92     93     98   1    112.7000    488.2728
     96     93     97   1    107.8000    276.1440
     96     93     98   1    110.7000    313.8000
     97     93     98   1    110.7000    313.8000
     93     98     99   1    112.7000    488.2728
     93     98    100   1    110.7000    313.8000
     93     98    101   1    110.7000    313.8000
     99     98    100   1    110.7000    313.8000
     99     98    101   1    110.7000    313.8000
    100     98    101   1    107.8000    276.1440
     98     99    102   1    110.7000    313.8000
     98     99    103   1    110.7000    313.8000
     98     99    104   1    112.7000    488.2728
    102     99    103   1    107.8000    276.1440
    102     99    104   1    110.7000    313.8000
    103     99    104   1    110.7000    313.8000
     99    104    105   1    112.7000    488.2728
     99    104    106   1    110.7000    313.8000
     99    104    107   1    110.7000    313.8000
    105    104    106   1    110.7000    313.8000
    105    104    107   1    110.7000    313.8000
    106    104    107   1    107.8000    276.1440
    104    105    108   1    110.7000    313.8000
    104    105    109   1    110.7000    313.8000
    104    105    110   1    112.7000    488.2728
    108    105    109   1    107.8000    276.1440
    108    105    110   1    110.7000    313.8000
    109    105    110   1    110.7000    313.8000
    105    110    111   1    112.7000    488.2728
    105    110    112   1    110.7000    313.8000
    105    110    113   1    110.7000    313.8000
    111    110    112   1    110.7000    313.8000
    111    110    113   1    110.7000    313.8000
    112    110    113   1    107.8000    276.1440
    110    111    114   1    110.7000    313.8000
    110    111    115   1    110.7000    313.8000
    110    111    116   1    112.7000    488.2728
    114    111    115   1    107.8000    276.1440
    114    111    116   1    110.7000    313.8000
    115    111    116   1    110.7000    313.8000
    111    116    117   1    112.7000    488.2728
    111    116    118   1    110.7000    313.8000
    111    116    119   1    110.7000    313.8000
    117    116    118   1    110.7000    313.8000
    117    116    119   1    110.7000    313.8000
    118    116    119   1    107.8000    276.1440
    116    117    120   1    110.7000    313.8000
    116    117    121   1    110.7000    313.8000
    116    117    122   1    110.7000    313.8000
    120    117    121   1    107.8000    276.1440
    120    117    122   1    107.8000    276.1440
    121    117    122   1    107.8000    276.1440

[ dihedrals ]
; Proper dihedrals
      3      1      2      5   5     0.00000     0.00000     1.25520  0.0
      3      1      2      6   5     0.00000     0.00000     1.25520  0.0
      3      1      2      8   5     0.00000     0.00000     1.25520  0.0
      4      1      2      5   5     0.00000     0.00000     1.25520  0.0
      4      1      2      6   5     0.00000     0.00000     1.25520  0.0
      4      1      2      8   5     0.00000     0.00000     1.25520  0.0
      7      1      2      5   5     0.00000     0.00000     1.25520  0.0
      7      1      2      6   5     0.00000     0.00000     1.25520  0.0
      7      1      2      8   5     0.00000     0.00000     1.25520  0.0
      1      2      8      9   5     4.74884    -0.63178     1.67360  0.0
      1      2      8     10   5     0.00000     0.00000     1.25520  0.0
      1      2      8     11   5     0.00000     0.00000     1.25520  0.0
      5      2      8      9   5     0.00000     0.00000     1.25520  0.0
      5      2      8     10   5     0.00000     0.00000     1.25520  0.0
      5      2      8     11   5     0.00000     0.00000     1.25520  0.0
      6      2      8      9   5     0.00000     0.00000     1.25520  0.0
      6      2      8     10   5     0.00000     0.00000     1.25520  0.0
      6      2      8     11   5     0.00000     0.00000     1.25520  0.0
      2      8      9     12   5     0.00000     0.00000     1.25520  0.0
      2      8      9     13   5     0.00000     0.00000     1.25520  0.0
      2      8      9     14   5     4.74884    -0.63178     1.67360  0.0
     10      8      9     12   5     0.00000     0.00000     1.25520  0.0
     10      8      9     13   5     0.00000     0.00000     1.25520  0.0
     10      8      9     14   5     0.00000     0.00000     1.25520  0.0
     11      8      9     12   5     0.00000     0.00000     1.25520  0.0
     11      8      9     13   5     0.00000     0.00000     1.25520  0.0
     11      8      9     14   5     0.00000     0.00000     1.25520  0.0
      8      9     14     15   5     4.74884    -0.63178     1.67360  0.0
      8      9     14     16   5     0.00000     0.00000     1.25520  0.0
      8      9     14     17   5     0.00000     0.00000     1.25520  0.0
     12      9     14     15   5     0.00000     0.00000     1.25520  0.0
     12      9     14     16   5     0.00000     0.00000     1.25520  0.0
     12      9     14     17   5     0.00000     0.00000     1.25520  0.0
     13      9     14     15   5     0.00000     0.00000     1.25520  0.0
     13      9     14     16   5     0.00000     0.00000     1.25520  0.0
     13      9     14     17   5     0.00000     0.00000     1.25520  0.0
      9     14     15     18   5     0.00000     0.00000     1.25520  0.0
      9     14     15     19   5     0.00000     0.00000     1.25520  0.0
      9     14     15     20   5     4.74884    -0.63178     1.67360  0.0
     16     14     15     18   5     0.00000     0.00000     1.25520  0.0
     16     14     15     19   5     0.00000     0.00000     1.25520  0.0
     16     14     15     20   5     0.00000     0.00000     1.25520  0.0
     17     14     15     18   5     0.00000     0.00000     1.25520  0.0
     17     14     15     19   5     0.00000     0.00000     1.25520  0.0
     17     14     15     20   5     0.00000     0.00000     1.25520  0.0
     14     15     20     21   5     4.74884    -0.63178     1.67360  0.0
     14     15     20     22   5     0.00000     0.00000     1.25520  0.0
     14     15     20     23   5     0.00000     0.00000     1.25520  0.0
     18     15     20     21   5     0.00000     0.00000     1.25520  0.0
     18     15     20     22   5     0.00000     0.00000     1.25520  0.0
     18     15     20     23   5     0.00000     0.00000     1.25520  0.0
     19     15     20     21   5     0.00000     0.00000     1.25520  0.0
     19     15     20     22   5     0.00000     0.00000     1.25520  0.0
     19     15     20     23   5     0.00000     0.00000     1.25520  0.0
     15     20     21     24   5     0.00000     0.00000     1.25520  0.0
     15     20     21     25   5     0.00000     0.00000     1.25520  0.0
     15     20     21     26   5     4.74884    -0.63178     1.67360  0.0
     22     20     21     24   5     0.00000     0.00000     1.25520  0.0
     22     20     21     25   5     0.00000     0.00000     1.25520  0.0
     22     20     21     26   5     0.00000     0.00000     1.25520  0.0
     23     20     21     24   5     0.00000     0.00000     1.25520  0.0
     23     20     21     25   5     0.00000     0.00000     1.25520  0.0
     23     20     21     26   5     0.00000     0.00000     1.25520  0.0
     20     21     26     27   5     4.74884    -0.63178     1.67360  0.0
     20     21     26     28   5     0.00000     0.00000     1.25520  0.0
     20     21     26     29   5     0.00000     0.00000     1.25520  0.0
     24     21     26     27   5     0.00000     0.00000     1.25520  0.0
     24     21     26     28   5     0.00000     0.00000     1.25520  0.0
     24     21     26     29   5     0.00000     0.00000     1.25520  0.0
     25     21     26     27   5     0.00000     0.00000     1.25520  0.0
     25     21     26     28   5     0.00000     0.00000     1.25520  0.0
     25     21     26     29   5     0.00000     0.00000     1.25520  0.0
     21     26     27     30   5     0.00000     0.00000     1.25520  0.0
     21     26     27     31   5     0.00000     0.00000     1.25520  0.0
     21     26     27     32   5     4.74884    -0.63178     1.67360  0.0
     28     26     27     30   5     0.00000     0.00000     1.25520  0.0
     28     26     27     31   5     0.00000     0.00000     1.25520  0.0
     28     26     27     32   5     0.00000     0.00000     1.25520  0.0
     29     26     27     30   5     0.00000     0.00000     1.25520  0.0
     29     26     27     31   5     0.00000     0.00000     1.25520  0.0
     29     26     27     32   5     0.00000     0.00000     1.25520  0.0
     26     27     32     33   5     4.74884    -0.63178     1.67360  0.0
     26     27     32     34   5     0.00000     0.00000     1.25520  0.0
     26     27     32     35   5     0.00000     0.00000     1.25520  0.0
     30     27     32     33   5     0.00000     0.00000     1.25520  0.0
     30     27     32     34   5     0.00000     0.00000     1.25520  0.0
     30     27     32     35   5     0.00000     0.00000     1.25520  0.0
     31     27     32     33   5     0.00000     0.00000     1.25520  0.0
     31     27     32     34   5     0.00000     0.00000     1.25520  0.0
     31     27     32     35   5     0.00000     0.00000     1.25520  0.0
     27     32     33     36   5     0.00000     0.00000     1.25520  0.0
     27     32     33     37   5     0.00000     0.00000     1.25520  0.0
     27     32     33     38   5     4.74884    -0.63178     1.67360  0.0
     34     32     33     36   5     0.00000     0.00000     1.25520  0.0
     34     32     33     37   5     0.00000     0.00000     1.25520  0.0
     34     32     33     38   5     0.00000     0.00000     1.25520  0.0
     35     32     33     36   5     0.00000     0.00000     1.25520  0.0
     35     32     33     37   5     0.00000     0.00000     1.25520  0.0
     35     32     33     38   5     0.00000     0.00000     1.25520  0.0
     32     33     38     39   5     4.74884    -0.63178     1.67360  0.0
     32     33     38     40   5     0.00000     0.00000     1.25520  0.0
     32     33     38     41   5     0.00000     0.00000     1.25520  0.0
     36     33     38     39   5     0.00000     0.00000     1.25520  0.0
     36     33     38     40   5     0.00000     0.00000     1.25520  0.0
     36     33     38     41   5     0.00000     0.00000     1.25520  0.0
     37     33     38     39   5     0.00000     0.00000     1.25520  0.0
     37     33     38     40   5     0.00000     0.00000     1.25520  0.0
     37     33     38     41   5     0.00000     0.00000     1.25520  0.0
     33     38     39     42   5     0.00000     0.00000     1.25520  0.0
     33     38     39     43   5     0.00000     0.00000     1.25520  0.0
     33     38     39     44   5     4.74884    -0.63178     1.67360  0.0
     40     38     39     42   5     0.00000     0.00000     1.25520  0.0
     40     38     39     43   5     0.00000     0.00000     1.25520  0.0
     40     38     39     44   5     0.00000     0.00000     1.25520  0.0
     41     38     39     42   5     0.00000     0.00000     1.25520  0.0
     41     38     39     43   5     0.00000     0.00000     1.25520  0.0
     41     38     39     44   5     0.00000     0.00000     1.25520  0.0
     38     39     44     45   5     4.74884    -0.63178     1.67360  0.0
     38     39     44     46   5     0.00000     0.00000     1.25520  0.0
     38     39     44     47   5     0.00000     0.00000     1.25520  0.0
     42     39     44     45   5     0.00000     0.00000     1.25520  0.0
     42     39     44     46   5     0.00000     0.00000     1.25520  0.0
     42     39     44     47   5     0.00000     0.00000     1.25520  0.0
     43     39     44     45   5     0.00000     0.00000     1.25520  0.0
     43     39     44     46   5     0.00000     0.00000     1.25520  0.0
     43     39     44     47   5     0.00000     0.00000     1.25520  0.0
     39     44     45     48   5     0.00000     0.00000     1.25520  0.0
     39     44     45     49   5     0.00000     0.00000     1.25520  0.0
     39     44     45     50   5     4.74884    -0.63178     1.67360  0.0
     46     44     45     48   5     0.00000     0.00000     1.25520  0.0
     46     44     45     49   5     0.00000     0.00000     1.25520  0.0
     46     44     45     50   5     0.00000     0.00000     1.25520  0.0
     47     44     45     48   5     0.00000     0.00000     1.25520  0.0
     47     44     45     49   5     0.00000     0.00000     1.25520  0.0
     47     44     45     50   5     0.00000     0.00000     1.25520  0.0
     44     45     50     51   5     4.74884    -0.63178     1.67360  0.0
     44     45     50     52   5     0.00000     0.00000     1.25520  0.0
     44     45     50     53   5     0.00000     0.00000     1.25520  0.0
     48     45     50     51   5     0.00000     0.00000     1.25520  0.0
     48     45     50     52   5     0.00000     0.00000     1.25520  0.0
     48     45     50     53   5     0.00000     0.00000     1.25520  0.0
     49     45     50     51   5     0.00000     0.00000     1.25520  0.0
     49     45     50     52   5     0.00000     0.00000     1.25520  0.0
     49     45     50     53   5     0.00000     0.00000     1.25520  0.0
     45     50     51     54   5     0.00000     0.00000     1.25520  0.0
     45     50     51     55   5     0.00000     0.00000     1.25520  0.0
     45     50     51     56   5     4.74884    -0.63178     1.67360  0.0
     52     50     51     54   5     0.00000     0.00000     1.25520  0.0
     52     50     51     55   5     0.00000     0.00000     1.25520  0.0
     52     50     51     56   5     0.00000     0.00000     1.25520  0.0
     53     50     51     54   5     0.00000     0.00000     1.25520  0.0
     53     50     51     55   5     0.00000     0.00000     1.25520  0.0
     53     50     51     56   5     0.00000     0.00000     1.25520  0.0
     50     51     56     57   5     4.74884    -0.63178     1.67360  0.0
     50     51     56     58   5     0.00000     0.00000     1.25520  0.0
     50     51     56     59   5     0.00000     0.00000     1.25520  0.0
     54     51     56     57   5     0.00000     0.00000     1.25520  0.0
     54     51     56     58   5     0.00000     0.00000     1.25520  0.0
     54     51     56     59   5     0.00000     0.00000     1.25520  0.0
     55     51     56     57   5     0.00000     0.00000     1.25520  0.0
     55     51     56     58   5     0.00000     0.00000     1.25520  0.0
     55     51     56     59   5     0.00000     0.00000     1.25520  0.0
     51     56     57     60   5     0.00000     0.00000     1.25520  0.0
     51     56     57     61   5     0.00000     0.00000     1.25520  0.0
     51     56     57     62   5     4.74884    -0.63178     1.67360  0.0
     58     56     57     60   5     0.00000     0.00000     1.25520  0.0
     58     56     57     61   5     0.00000     0.00000     1.25520  0.0
     58     56     57     62   5     0.00000     0.00000     1.25520  0.0
     59     56     57     60   5     0.00000     0.00000     1.25520  0.0
     59     56     57     61   5     0.00000     0.00000     1.25520  0.0
     59     56     57     62   5     0.00000     0.00000     1.25520  0.0
     56     57     62     63   5     4.74884    -0.63178     1.67360  0.0
     56     57     62     64   5     0.00000     0.00000     1.25520  0.0
     56     57     62     65   5     0.00000     0.00000     1.25520  0.0
     60     57     62     63   5     0.00000     0.00000     1.25520  0.0
     60     57     62     64   5     0.00000     0.00000     1.25520  0.0
     60     57     62     65   5     0.00000     0.00000     1.25520  0.0
     61     57     62     63   5     0.00000     0.00000     1.25520  0.0
     61     57     62     64   5     0.00000     0.00000     1.25520  0.0
     61     57     62     65   5     0.00000     0.00000     1.25520  0.0
     57     62     63     66   5     0.00000     0.00000     1.25520  0.0
     57     62     63     67   5     0.00000     0.00000     1.25520  0.0
     57     62     63     68   5     4.74884    -0.63178     1.67360  0.0
     64     62     63     66   5     0.00000     0.00000     1.25520  0.0
     64     62     63     67   5     0.00000     0.00000     1.25520  0.0
     64     62     63     68   5     0.00000     0.00000     1.25520  0.0
     65     62     63     66   5     0.00000     0.00000     1.25520  0.0
     65     62     63     67   5     0.00000     0.00000     1.25520  0.0
     65     62     63     68   5     0.00000     0.00000     1.25520  0.0
     62     63     68     69   5     4.74884    -0.63178     1.67360  0.0
     62     63     68     70   5     0.00000     0.00000     1.25520  0.0
     62     63     68     71   5     0.00000     0.00000     1.25520  0.0
     66     63     68     69   5     0.00000     0.00000     1.25520  0.0
     66     63     68     70   5     0.00000     0.00000     1.25520  0.0
     66     63     68     71   5     0.00000     0.00000     1.25520  0.0
     67     63     68     69   5     0.00000     0.00000     1.25520  0.0
     67     63     68     70   5     0.00000     0.00000     1.25520  0.0
     67     63     68     71   5     0.00000     0.00000     1.25520  0.0
     63     68     69     72   5     0.00000     0.00000     1.25520  0.0
     63     68     69     73   5     0.00000     0.00000     1.25520  0.0
     63     68     69     74   5     4.74884    -0.63178     1.67360  0.0
     70     68     69     72   5     0.00000     0.00000     1.25520  0.0
     70     68     69     73   5     0.00000     0.00000     1.25520  0.0
     70     68     69     74   5     0.00000     0.00000     1.25520  0.0
     71     68     69     72   5     0.00000     0.00000     1.25520  0.0
     71     68     69     73   5     0.00000     0.00000     1.25520  0.0
     71     68     69     74   5     0.00000     0.00000     1.25520  0.0
     68     69     74     75   5     4.74884    -0.63178     1.67360  0.0
     68     69     74     76   5     0.00000     0.00000     1.25520  0.0
     68     69     74     77   5     0.00000     0.00000     1.25520  0.0
     72     69     74     75   5     0.00000     0.00000     1.25520  0.0
     72     69     74     76   5     0.00000     0.00000     1.25520  0.0
     72     69     74     77   5     0.00000     0.00000     1.25520  0.0
     73     69     74     75   5     0.00000     0.00000     1.25520  0.0
     73     69     74     76   5     0.00000     0.00000     1.25520  0.0
     73     69     74     77   5     0.00000     0.00000     1.25520  0.0
     69     74     75     78   5     0.00000     0.00000     1.25520  0.0
     69     74     75     79   5     0.00000     0.00000     1.25520  0.0
     69     74     75     80   5     4.74884    -0.63178     1.67360  0.0
     76     74     75     78   5     0.00000     0.00000     1.25520  0.0
     76     74     75     79   5     0.00000     0.00000     1.25520  0.0
     76     74     75     80   5     0.00000     0.00000     1.25520  0.0
     77     74     75     78   5     0.00000     0.00000     1.25520  0.0
     77     74     75     79   5     0.00000     0.00000     1.25520  0.0
     77     74     75     80   5     0.00000     0.00000     1.25520  0.0
     74     75     80     81   5     4.74884    -0.63178     1.67360  0.0
     74     75     80     82   5     0.00000     0.00000     1.25520  0.0
     74     75     80     83   5     0.00000     0.00000     1.25520  0.0
     78     75     80     81   5     0.00000     0.00000     1.25520  0.0
     78     75     80     82   5     0.00000     0.00000     1.25520  0.0
     78     75     80     83   5     0.00000     0.00000     1.25520  0.0
     79     75     80     81   5     0.00000     0.00000     1.25520  0.0
     79     75     80     82   5     0.00000     0.00000     1.25520  0.0
     79     75     80     83   5     0.00000     0.00000     1.25520  0.0
     75     80     81     84   5     0.00000     0.00000     1.25520  0.0
     75     80     81     85   5     0.00000     0.00000     1.25520  0.0
     75     80     81     86   5     4.74884    -0.63178     1.67360  0.0
     82     80     81     84   5     0.00000     0.00000     1.25520  0.0
     82     80     81     85   5     0.00000     0.00000     1.25520  0.0
     82     80     81     86   5     0.00000     0.00000     1.25520  0.0
     83     80     81     84   5     0.00000     0.00000     1.25520  0.0
     83     80     81     85   5     0.00000     0.00000     1.25520  0.0
     83     80     81     86   5     0.00000     0.00000     1.25520  0.0
     80     81     86     87   5     4.74884    -0.63178     1.67360  0.0
     80     81     86     88   5     0.00000     0.00000     1.25520  0.0
     80     81     86     89   5     0.00000     0.00000     1.25520  0.0
     84     81     86     87   5     0.00000     0.00000     1.25520  0.0
     84     81     86     88   5     0.00000     0.00000     1.25520  0.0
     84     81     86     89   5     0.00000     0.00000     1.25520  0.0
     85     81     86     87   5     0.00000     0.00000     1.25520  0.0
     85     81     86     88   5     0.00000     0.00000     1.25520  0.0
     85     81     86     89   5     0.00000     0.00000     1.25520  0.0
     81     86     87     90   5     0.00000     0.00000     1.25520  0.0
     81     86     87     91   5     0.00000     0.00000     1.25520  0.0
     81     86     87     92   5     4.74884    -0.63178     1.67360  0.0
     88     86     87     90   5     0.00000     0.00000     1.25520  0.0
     88     86     87     91   5     0.00000     0.00000     1.25520  0.0
     88     86     87     92   5     0.00000     0.00000     1.25520  0.0
     89     86     87     90   5     0.00000     0.00000     1.25520  0.0
     89     86     87     91   5     0.00000     0.00000     1.25520  0.0
     89     86     87     92   5     0.00000     0.00000     1.25520  0.0
     86     87     92     93   5     4.74884    -0.63178     1.67360  0.0
     86     87     92     94   5     0.00000     0.00000     1.25520  0.0
     86     87     92     95   5     0.00000     0.00000     1.25520  0.0
     90     87     92     93   5     0.00000     0.00000     1.25520  0.0
     90     87     92     94   5     0.00000     0.00000     1.25520  0.0
     90     87     92     95   5     0.00000     0.00000     1.25520  0.0
     91     87     92     93   5     0.00000     0.00000     1.25520  0.0
     91     87     92     94   5     0.00000     0.00000     1.25520  0.0
     91     87     92     95   5     0.00000     0.00000     1.25520  0.0
     87     92     93     96   5     0.00000     0.00000     1.25520  0.0
     87     92     93     97   5     0.00000     0.00000     1.25520  0.0
     87     92     93     98   5     4.74884    -0.63178     1.67360  0.0
     94     92     93     96   5     0.00000     0.00000     1.25520  0.0
     94     92     93     97   5     0.00000     0.00000     1.25520  0.0
     94     92     93     98   5     0.00000     0.00000     1.25520  0.0
     95     92     93     96   5     0.00000     0.00000     1.25520  0.0
     95     92     93     97   5     0.00000     0.00000     1.25520  0.0
     95     92     93     98   5     0.00000     0.00000     1.25520  0.0
     92     93     98     99   5     4.74884    -0.63178     1.67360  0.0
     92     93     98    100   5     0.00000     0.00000     1.25520  0.0
     92     93     98    101   5     0.00000     0.00000     1.25520  0.0
     96     93     98     99   5     0.00000     0.00000     1.25520  0.0
     96     93     98    100   5     0.00000     0.00000     1.25520  0.0
     96     93     98    101   5     0.00000     0.00000     1.25520  0.0
     97     93     98     99   5     0.00000     0.00000     1.25520  0.0
     97     93     98    100   5     0.00000     0.00000     1.25520  0.0
     97     93     98    101   5     0.00000     0.00000     1.25520  0.0
     93     98     99    102   5     0.00000     0.00000     1.25520  0.0
     93     98     99    103   5     0.00000     0.00000     1.25520  0.0
     93     98     99    104   5     4.74884    -0.63178     1.67360  0.0
    100     98     99    102   5     0.00000     0.00000     1.25520  0.0
    100     98     99    103   5     0.00000     0.00000     1.25520  0.0
    100     98     99    104   5     0.00000     0.00000     1.25520  0.0
    101     98     99    102   5     0.00000     0.00000     1.25520  0.0
    101     98     99    103   5     0.00000     0.00000     1.25520  0.0
    101     98     99    104   5     0.00000     0.00000     1.25520  0.0
     98     99    104    105   5     4.74884    -0.63178     1.67360  0.0
     98     99    104    106   5     0.00000     0.00000     1.25520  0.0
     98     99    104    107   5     0.00000     0.00000     1.25520  0.0
    102     99    104    105   5     0.00000     0.00000     1.25520  0.0
    102     99    104    106   5     0.00000     0.00000     1.25520  0.0
    102     99    104    107   5     0.00000     0.00000     1.25520  0.0
    103     99    104    105   5     0.00000     0.00000     1.25520  0.0
    103     99    104    106   5     0.00000     0.00000     1.25520  0.0
    103     99    104    107   5     0.00000     0.00000     1.25520  0.0
     99    104    105    108   5     0.00000     0.00000     1.25520  0.0
     99    104    105    109   5     0.00000     0.00000     1.25520  0.0
     99    104    105    110   5     4.74884    -0.63178     1.67360  0.0
    106    104    105    108   5     0.00000     0.00000     1.25520  0.0
    106    104    105    109   5     0.00000     0.00000     1.25520  0.0
    106    104    105    110   5     0.00000     0.00000     1.25520  0.0
    107    104    105    108   5     0.00000     0.00000     1.25520  0.0
    107    104    105    109   5     0.00000     0.00000     1.25520  0.0
    107    104    105    110   5     0.00000     0.00000     1.25520  0.0
    104    105    110    111   5     4.74884    -0.63178     1.67360  0.0
    104    105    110    112   5     0.00000     0.00000     1.25520  0.0
    104    105    110    113   5     0.00000     0.00000     1.25520  0.0
    108    105    110    111   5     0.00000     0.00000     1.25520  0.0
    108    105    110    112   5     0.00000     0.00000     1.25520  0.0
    108    105    110    113   5     0.00000     0.00000     1.25520  0.0
    109    105    110    111   5     0.00000     0.00000     1.25520  0.0
    109    105    110    112   5     0.00000     0.00000     1.25520  0.0
    109    105    110    113   5     0.00000     0.00000     1.25520  0.0
    105    110    111    114   5     0.00000     0.00000     1.25520  0.0
    105    110    111    115   5     0.00000     0.00000     1.25520  0.0
    105    110    111    116   5     4.74884    -0.63178     1.67360  0.0
    112    110    111    114   5     0.00000     0.00000     1.25520  0.0
    112    110    111    115   5     0.00000     0.00000     1.25520  0.0
    112    110    111    116   5     0.00000     0.00000     1.25520  0.0
    113    110    111    114   5     0.00000     0.00000     1.25520  0.0
    113    110    111    115   5     0.00000     0.00000     1.25520  0.0
    113    110    111    116   5     0.00000     0.00000     1.25520  0.0
    110    111    116    117   5     4.74884    -0.63178     1.67360  0.0
    110    111    116    118   5     0.00000     0.00000     1.25520  0.0
    110    111    116    119   5     0.00000     0.00000     1.25520  0.0
    114    111    116    117   5     0.00000     0.00000     1.25520  0.0
    114    111    116    118   5     0.00000     0.00000     1.25520  0.0
    114    111    116    119   5     0.00000     0.00000     1.25520  0.0
    115    111    116    117   5     0.00000     0.00000     1.25520  0.0
    115    111    116    118   5     0.00000     0.00000     1.25520  0.0
    115    111    116    119   5     0.00000     0.00000     1.25520  0.0
    111    116    117    120   5     0.00000     0.00000     1.25520  0.0
    111    116    117    121   5     0.00000     0.00000     1.25520  0.0
    111    116    117    122   5     0.00000     0.00000     1.25520  0.0
    118    116    117    120   5     0.00000     0.00000     1.25520  0.0
    118    116    117    121   5     0.00000     0.00000     1.25520  0.0
    118    116    117    122   5     0.00000     0.00000     1.25520  0.0
    119    116    117    120   5     0.00000     0.00000     1.25520  0.0
    119    116    117    121   5     0.00000     0.00000     1.25520  0.0
    119    116    117    122   5     0.00000     0.00000     1.25520  0.0
