Control file title. For DL_FIELD 4.10
49898
    1MOL     C1    1   5.487   0.189   5.122  0.0739  0.4661  0.6466
    1MOL     C2    2   5.385   0.094   5.063 -1.3438 -0.6243  0.2575
    1MOL     H3    3   5.530   0.240   5.035  0.4556 -0.4408  0.3038
    1MOL     H4    4   5.563   0.137   5.180 -0.3970  0.4663  1.2713
    1MOL     H5    5   5.330   0.043   5.141 -3.6524 -0.2726 -1.1055
    1MOL     H6    6   5.310   0.153   5.011  0.5202  0.3733 -1.3575
    1MOL     H7    7   5.432   0.258   5.186 -1.4031  2.0980 -2.2543
    1MOL     C8    8   5.461   7.689   4.969  0.9516 -0.2937 -0.4360
    1MOL     C9    9   5.530   7.570   5.028 -0.1474 -0.2139 -0.5104
    1MOL    H10   10   5.394   7.646   4.894 -0.0562 -2.0539  1.4385
    1MOL    H11   11   5.511   0.050   4.887  0.9589 -3.2844 -2.4357
    1MOL    H12   12   5.604   7.599   5.103  0.4051 -2.3568 -0.1796
    1MOL    H13   13   5.453   7.511   5.079 -0.6857  0.7794 -0.1614
    1MOL    C14   14   5.595   7.491   4.915 -0.2124  0.4100  0.0090
    1MOL    C15   15   5.658   7.359   4.962  0.8988 -0.3497  0.3901
    1MOL    H16   16   5.522   7.457   4.841  0.0452 -3.0547  1.2938
    1MOL    H17   17   5.665   7.557   4.863 -2.8832  1.8586 -1.8806
    1MOL    H18   18   5.728   7.365   5.045  0.8119 -0.9093  0.5099
    1MOL    H19   19   5.578   7.291   4.992  2.6714 -2.5841  0.2178
    1MOL    C20   20   5.748   7.285   4.862  0.0186 -0.0927 -0.6184
    1MOL    C21   21   5.786   7.147   4.897  0.0212  0.7991 -0.2191
    1MOL    H22   22   5.701   7.279   4.764 -1.2275  0.3217 -0.0572
    1MOL    H23   23   5.841   7.339   4.847  0.0998 -0.3510 -1.0694
    1MOL    H24   24   5.844   7.150   4.989 -1.5654  5.9113  0.7718
    1MOL    H25   25   5.697   7.111   4.950  1.1018 -1.1368  0.3139
    1MOL    C26   26   5.847   7.068   4.781  0.1669  0.6047 -0.4249
    1MOL    C27   27   5.847   6.913   4.805 -0.2156 -0.0325 -0.2549
    1MOL    H28   28   5.787   7.083   4.691 -1.9689  1.3312  1.0782
    1MOL    H29   29   5.947   7.109   4.772  0.3251  0.2247 -0.4124
    1MOL    H30   30   5.889   6.885   4.901  1.1368  0.6129 -0.6421
    1MOL    H31   31   5.739   6.898   4.808 -0.1878 -0.4972 -1.3988
    1MOL    C32   32   5.914   6.834   4.695  0.2539 -0.2090  0.4463
    1MOL    C33   33   5.879   6.686   4.684  0.1645  0.3445 -0.3062
    1MOL    H34   34   5.886   6.872   4.597  2.1148 -1.1596 -0.4915
    1MOL    H35   35   6.020   6.854   4.713  0.2317  0.8232 -0.4937
    1MOL    H36   36   5.870   6.636   4.780 -0.4944  0.3141 -0.3861
    1MOL    H37   37   5.786   6.678   4.628  0.3631  0.4986 -0.6657
    1MOL    C38   38   5.984   6.601   4.603  0.2132  0.2796  0.2011
    1MOL    C39   39   5.936   6.459   4.558  0.7089 -0.1317  0.4399
    1MOL    H40   40   6.008   6.652   4.510 -0.2804 -1.2479 -0.7981
    1MOL    H41   41   6.068   6.584   4.671  0.4196  2.1805  0.4509
    1MOL    H42   42   5.904   6.401   4.644 -0.4730 -0.7205 -0.3871
    1MOL    H43   43   5.837   6.479   4.515  1.1948 -2.1561 -1.7150
    1MOL    C44   44   6.039   6.397   4.452  0.0278 -0.3568 -0.2026
    1MOL    C45   45   6.008   6.249   4.446  0.2488  0.8947  0.2101
    1MOL    H46   46   6.030   6.449   4.357  0.2264  0.7779  0.3918
    1MOL    H47   47   6.133   6.419   4.501 -0.4882  1.9541 -0.2054
    1MOL    H48   48   6.005   6.214   4.549  0.5889  0.6618  0.1418
    1MOL    H49   49   5.906   6.229   4.412  0.4030  0.3744  0.0443
    1MOL    C50   50   6.110   6.161   4.365  0.0758 -0.0971 -0.1238
    1MOL    C51   51   6.249   6.176   4.405  0.0971  0.1203 -0.0624
    1MOL    H52   52   6.083   6.055   4.372  0.0834  0.0416  2.4401
    1MOL    H53   53   6.105   6.185   4.259 -2.2701  1.7001  0.3547
    1MOL    H54   54   6.315   6.116   4.342  0.7264 -0.0457  0.7438
    1MOL    H55   55   6.281   6.278   4.387  2.8802 -0.8750 -0.9819
    1MOL    C56   56   6.275   6.139   4.557  0.4971  0.6991 -0.6669
    1MOL    C57   57   6.421   6.122   4.600 -0.5929  0.1077 -0.2330
    1MOL    H58   58   6.220   6.205   4.624 -0.1456  1.3786 -1.8412
    1MOL    H59   59   6.218   6.047   4.569 -0.6265  1.5572  0.7008
    1MOL    H60   60   6.456   6.030   4.553  1.4060  0.1287  1.1511
    1MOL    H61   61   6.480   6.198   4.551 -1.9092  0.7835 -0.7864
    1MOL    C62   62   6.448   6.127   4.754  0.1997 -0.0511  0.3778
    1MOL    C63   63   6.593   6.090   4.792  0.3496  0.6436  0.4078
    1MOL    H64   64   6.411   6.207   4.818  1.8904  0.8627  0.2347
    1MOL    H65   65   6.377   6.050   4.785 -0.7270  1.3752  1.9139
    1MOL    H66   66   6.578   6.045   4.890 -0.7899 -3.5158 -1.5599
    1MOL    H67   67   6.636   6.009   4.733  2.0010  0.6746  1.5378
    1MOL    C68   68   6.686   6.214   4.791  0.9745  0.1463  0.4455
    1MOL    C69   69   6.817   6.172   4.859 -0.4180 -0.2585  0.6531
    1MOL    H70   70   6.711   6.252   4.692  0.3069 -0.9806 -0.1670
    1MOL    H71   71   6.647   6.306   4.835  1.1359  1.1252 -1.3990
    1MOL    H72   72   6.789   6.176   4.965  0.0192 -0.2472  0.7685
    1MOL    H73   73   6.843   6.070   4.832 -0.7591 -0.6583  1.7784
    1MOL    C74   74   6.929   6.265   4.830 -0.0328  0.3716 -0.2933
    1MOL    C75   75   7.056   6.206   4.911  0.3996  0.3679  1.0080
    1MOL    H76   76   6.950   6.275   4.723  1.4024  0.9857  0.0342
    1MOL    H77   77   6.903   6.364   4.866  0.5529  1.2674 -2.2351
    1MOL    H78   78   7.044   6.196   5.019  1.3668 -1.1061  0.9933
    1MOL    H79   79   7.075   6.107   4.870 -0.1635  0.6664 -0.0063
    1MOL    C80   80   7.180   6.286   4.884  0.5934  0.1278  0.5868
    1MOL    C81   81   7.311   6.222   4.927  0.0320  1.0201  0.8493
    1MOL    H82   82   7.195   6.314   4.780 -0.7441  1.4515  0.7306
    1MOL    H83   83   7.161   6.370   4.952 -3.6677 -1.5159  1.6007
    1MOL    H84   84   7.304   6.216   5.036  0.0845 -0.8321  0.7744
    1MOL    H85   85   7.329   6.122   4.887 -0.1970  0.8965  1.0559
    1MOL    C86   86   7.434   6.310   4.896  0.3371  0.3949 -0.5010
    1MOL    C87   87   7.551   6.240   4.956 -0.1788 -0.3381 -0.1655
    1MOL    H88   88   7.453   6.299   4.789 -0.0887 -1.1347 -0.4229
    1MOL    H89   89   7.422   6.415   4.923 -1.7474  0.2886 -0.8790
    1MOL    H90   90   7.560   6.239   5.065  0.4229  0.8684 -0.2002
    1MOL    H91   91   7.567   6.135   4.928  2.7829 -0.0672  0.3357
    1MOL    C92   92   7.679   6.302   4.908 -1.2022  0.3709 -0.5499
    1MOL    C93   93   0.110   6.237   4.969 -0.1368 -0.1186 -0.1884
    1MOL    H94   94   7.688   6.300   4.799  2.2553  2.9656 -0.4144
    1MOL    H95   95   0.001   6.405   4.941  1.8729 -0.1301 -0.1422
    1MOL    H96   96   0.094   6.215   5.074  0.8478 -1.7530 -0.3588
    1MOL    H97   97   0.126   6.135   4.934 -0.3935 -1.5470  3.5979
    1MOL    C98   98   0.247   6.312   4.940 -0.3055 -0.3664 -0.7319
    1MOL    C99   99   0.278   6.405   5.048  0.1156 -0.7137  0.4453
    1MOL   H100  100   0.329   6.241   4.934  1.1657  1.2498 -0.1634
    1MOL   H101  101   0.245   6.353   4.839 -0.3550 -0.5300 -0.7972
    1MOL   H102  102   0.186   6.460   5.066  0.7365  0.0608  1.3108
    1MOL   H103  103   0.303   6.342   5.134  0.4710  0.9906  1.6128
    1MOL   C104  104   0.383   6.507   5.017  0.5196 -0.4095  0.1351
    1MOL   C105  105   0.522   6.485   5.080 -0.0943  0.4167 -0.1119
    1MOL   H106  106   0.393   6.521   4.910 -1.1588 -0.4002 -0.0342
    1MOL   H107  107   0.347   6.605   5.051 -2.5139 -0.7004 -2.0060
    1MOL   H108  108   0.497   6.450   5.180  2.2115  0.0520  0.3687
    1MOL   H109  109   0.571   6.396   5.042 -0.0791  1.1833 -1.9068
    1MOL   C110  110   0.611   6.607   5.081 -0.2898  0.5069 -0.5286
    1MOL   C111  111   0.754   6.569   5.118  0.4006  0.2268  0.0513
    1MOL   H112  112   0.606   6.657   4.984 -1.2927  0.2409 -0.6256
    1MOL   H113  113   0.570   6.677   5.154 -1.9952 -1.2653  0.2751
    1MOL   H114  114   0.748   6.532   5.221  1.2577  0.9666  0.3721
    1MOL   H115  115   0.796   6.485   5.063 -0.8603 -0.3437 -0.0604
    1MOL   C116  116   0.833   6.703   5.111  0.0676  0.8626  0.6086
    1MOL   C117  117   0.980   6.694   5.164 -0.0577 -0.1999  0.2940
    1MOL   H118  118   0.834   6.742   5.009  0.3402  0.8601  0.6098
    1MOL   H119  119   0.784   6.784   5.165 -1.0976  0.9835 -0.6147
    1MOL   H120  120   1.011   6.592   5.144 -0.6902  0.0868 -2.4218
    1MOL   H121  121   1.044   6.765   5.112 -1.4156  0.6643 -0.2459
    1MOL   H122  122   0.977   6.714   5.271 -1.4655 -1.4252  0.5057
    2MOL     C1  123   2.257   1.450   3.748 -0.1187  0.3549  0.3411
    2MOL     C2  124   2.368   1.530   3.820 -0.1105  0.1451 -0.2955
    2MOL     H3  125   2.184   1.517   3.701  1.2221  1.0104 -0.8350
    2MOL     H4  126   2.204   1.379   3.811 -0.1188  1.3017  1.4305
    2MOL     H5  127   2.420   1.595   3.751  0.5958  0.0632  0.1563
    2MOL     H6  128   2.316   1.596   3.890  0.6797  0.1184  0.3263
    2MOL     H7  129   2.296   1.382   3.673  1.3643 -1.4819  2.6794
    2MOL     C8  130   2.469   1.439   3.892 -0.4702 -0.1748 -0.0020
    2MOL     C9  131   2.593   1.529   3.939 -0.2565 -0.4462  0.3772
    2MOL    H10  132   2.419   1.381   3.969 -0.4439 -0.3411 -0.1117
    2MOL    H11  133   2.501   1.365   3.818 -0.9226 -1.0271  0.6578
    2MOL    H12  134   2.660   1.456   3.985 -0.3381  0.4229  1.8953
    2MOL    H13  135   2.642   1.584   3.858 -1.0032  0.3350  0.4495
    2MOL    C14  136   2.565   1.627   4.057  0.0596 -0.1057  0.3865
    2MOL    C15  137   2.524   1.554   4.179  0.6230 -0.9954 -0.3141
    2MOL    H16  138   2.651   1.691   4.074  0.1475  0.3966 -1.8219
    2MOL    H17  139   2.498   1.712   4.041  1.2029  0.4913 -1.3541
    2MOL    H18  140   2.432   1.497   4.165 -0.3299  0.6039 -0.7432
    2MOL    H19  141   2.601   1.480   4.199  0.7643 -1.1066 -1.2461
    2MOL    C20  142   2.510   1.649   4.298  0.2294 -0.0604  0.2284
    2MOL    C21  143   2.452   1.588   4.420  0.0367 -0.9686  0.5104
    2MOL    H22  144   2.611   1.688   4.312 -0.1541  0.9815  0.1335
    2MOL    H23  145   2.452   1.735   4.264 -0.3690  0.1179  1.6923
    2MOL    H24  146   2.352   1.554   4.397  0.2835 -1.7210  0.5387
    2MOL    H25  147   2.516   1.503   4.439  1.1572  0.0449  1.3762
    2MOL    C26  148   2.468   1.685   4.533 -0.0538 -0.3918 -0.1311
    2MOL    C27  149   2.416   1.637   4.673 -0.0271 -0.1947  0.1243
    2MOL    H28  150   2.569   1.716   4.560 -0.6886  2.6043 -0.9851
    2MOL    H29  151   2.424   1.781   4.508 -1.6155 -1.4169 -1.4349
    2MOL    H30  152   2.320   1.587   4.659  0.9368 -2.1542  0.3361
    2MOL    H31  153   2.467   1.551   4.715 -0.8851 -0.6207  0.2994
    2MOL    C32  154   2.402   1.752   4.773 -0.0594 -0.4640 -0.6200
    2MOL    C33  155   2.351   1.706   4.923 -0.3566 -0.3268  0.9509
    2MOL    H34  156   2.492   1.807   4.799 -0.2758  1.0187 -2.8667
    2MOL    H35  157   2.330   1.822   4.731 -0.3858 -0.7203 -0.4892
    2MOL    H36  158   2.415   1.626   4.959 -0.5621 -1.2770 -0.7264
    2MOL    H37  159   2.365   1.787   4.995  0.1577  1.7038 -1.3645
    2MOL    C38  160   2.197   1.684   4.927 -0.4035 -0.1955  0.7949
    2MOL    C39  161   2.143   1.632   5.062 -0.6155 -0.1261 -0.4910
    2MOL    H40  162   2.144   1.774   4.896  0.7746 -0.5729 -2.5105
    2MOL    H41  163   2.178   1.610   4.849  0.3836  0.4205 -0.0045
    2MOL    H42  164   2.184   1.534   5.087  1.3805  0.7336 -0.2988
    2MOL    H43  165   2.180   1.699   5.141 -0.6653  0.5337 -1.0227
    2MOL    C44  166   1.993   1.633   5.067  0.1947  0.9463  0.5885
    2MOL    C45  167   1.934   1.564   5.193  0.0439  0.7818  0.3718
    2MOL    H46  168   1.945   1.729   5.048  0.8527  0.8266 -1.8286
    2MOL    H47  169   1.955   1.572   4.985  1.8752  1.5447 -0.6662
    2MOL    H48  170   1.972   1.465   5.216 -0.4775  0.8577  1.6190
    2MOL    H49  171   1.956   1.617   5.286 -1.0825 -1.2362  1.8398
    2MOL    C50  172   1.782   1.543   5.189  0.8705 -0.0197 -0.5588
    2MOL    C51  173   1.726   1.475   5.315 -0.5949 -0.5180 -0.3171
    2MOL    H52  174   1.729   1.637   5.171  1.3443 -0.0112 -1.9640
    2MOL    H53  175   1.758   1.489   5.097  2.5126  1.1116 -1.6716
    2MOL    H54  176   1.786   1.385   5.322 -2.0860 -1.5109 -0.1546
    2MOL    H55  177   1.762   1.538   5.397  1.1914 -0.4651 -1.1219
    2MOL    C56  178   1.579   1.449   5.334  0.3809  0.5160  0.1124
    2MOL    C57  179   1.540   1.409   5.477  0.3476  0.1278  0.2346
    2MOL    H58  180   1.520   1.535   5.303  1.6163  0.6980 -1.8355
    2MOL    H59  181   1.551   1.366   5.269 -2.1761  1.3075  0.1691
    2MOL    H60  182   1.618   1.344   5.515 -0.7738 -0.4049  1.7071
    2MOL    H61  183   1.538   1.507   5.524 -1.6416  0.2997 -0.1522
    2MOL    C62  184   1.404   1.344   5.491  0.0701  0.3684 -0.2564
    2MOL    C63  185   1.369   1.297   5.636 -0.1084  0.3803  0.3761
    2MOL    H64  186   1.321   1.400   5.446 -0.0663  0.3121 -0.0730
    2MOL    H65  187   1.414   1.250   5.437 -0.3971  0.0901  0.1413
    2MOL    H66  188   1.438   1.219   5.666  0.9886  2.0567  2.3858
    2MOL    H67  189   1.374   1.375   5.712 -1.2150 -1.5129  2.4674
    2MOL    C68  190   1.231   1.232   5.642 -0.8813  0.4298 -0.3196
    2MOL    C69  191   1.190   1.195   5.784 -0.0964  0.4660  0.0479
    2MOL    H70  192   1.151   1.294   5.603 -2.7003 -2.0376 -0.6245
    2MOL    H71  193   1.232   1.145   5.575 -1.7148  0.0204  0.1974
    2MOL    H72  194   1.248   1.109   5.817  0.6767  0.1694 -1.9878
    2MOL    H73  195   1.214   1.278   5.850 -0.2165  0.0308  0.6352
    2MOL    C74  196   1.040   1.165   5.796 -0.2801 -0.4461  0.2357
    2MOL    C75  197   1.006   1.127   5.936 -0.1383 -0.0005 -0.5107
    2MOL    H76  198   0.994   1.261   5.773 -1.2177 -1.1911 -1.1334
    2MOL    H77  199   1.011   1.084   5.728  0.4647 -0.5126 -0.0071
    2MOL    H78  200   1.070   1.044   5.968 -2.9110 -2.6226 -1.4869
    2MOL    H79  201   1.032   1.209   6.002 -2.8916  0.7506 -0.3221
    2MOL    C80  202   0.858   1.101   5.953 -0.1677 -0.4344 -0.0986
    2MOL    C81  203   0.811   1.087   6.099  0.7884  0.4982 -0.5588
    2MOL    H82  204   0.796   1.177   5.905  0.7202 -0.0658 -0.6829
    2MOL    H83  205   0.831   1.015   5.892  0.8580 -0.4697 -0.5221
    2MOL    H84  206   0.828   1.180   6.152  0.1799  0.8929 -1.0449
    2MOL    H85  207   0.702   1.081   6.099  0.7832  0.2659  1.5337
    2MOL    C86  208   0.879   0.965   6.165  0.0385 -0.0057 -0.3854
    2MOL    C87  209   0.825   0.939   6.308  0.6217  0.0300  0.5777
    2MOL    H88  210   0.857   0.885   6.094  1.1699  0.0573 -0.8295
    2MOL    H89  211   0.988   0.973   6.162 -0.0931  1.4554 -2.8175
    2MOL    H90  212   0.850   1.023   6.372 -2.5426 -0.2562  2.2939
    2MOL    H91  213   0.716   0.941   6.307  0.6150  0.2827  1.6968
    2MOL    C92  214   0.884   0.812   6.375  0.2893 -1.2630 -0.2180
    2MOL    C93  215   0.860   0.685   6.295 -0.4386 -0.0194  0.2679
    2MOL    H94  216   0.990   0.825   6.395  0.6684 -3.1025 -0.9556
    2MOL    H95  217   0.843   0.796   6.475  0.2125  2.1036  0.3507
    2MOL    H96  218   0.826   0.621   6.377 -1.8644 -0.0147 -0.3138
    2MOL    H97  219   0.783   0.700   6.220 -0.6725 -1.4166  0.2223
    2MOL    C98  220   0.985   0.626   6.238 -0.5600 -0.3919 -0.4417
    2MOL    C99  221   0.963   0.479   6.198 -0.3495  0.3085  0.5532
    2MOL   H100  222   1.021   0.690   6.157  0.6378 -0.9283 -0.3396
    2MOL   H101  223   1.066   0.624   6.311  0.8634  0.2881 -1.9574
    2MOL   H102  224   0.949   0.417   6.287  2.8823 -1.4069 -0.0638
    2MOL   H103  225   0.876   0.461   6.135 -1.7265  0.6711  2.3008
    2MOL   C104  226   1.088   0.419   6.136 -0.0625 -0.6011  0.0526
    2MOL   C105  227   1.087   0.269   6.109  1.0020  0.1685 -0.2311
    2MOL   H106  228   1.091   0.465   6.037  2.0484 -0.6633  0.0749
    2MOL   H107  229   1.172   0.450   6.197  0.5592 -0.9078 -0.6398
    2MOL   H108  230   1.058   0.208   6.195  1.2134  2.1792  1.3127
    2MOL   H109  231   1.015   0.244   6.032 -0.4084  0.1102  1.0727
    2MOL   C110  232   1.223   0.223   6.051 -0.0361 -0.1122 -0.1410
    2MOL   C111  233   1.237   0.070   6.054  0.3715  0.0928  0.2448
    2MOL   H112  234   1.240   0.261   5.950 -0.4733 -1.2528 -0.6429
    2MOL   H113  235   1.303   0.255   6.118 -1.3465  0.7515  1.0147
    2MOL   H114  236   1.341   0.041   6.064 -0.4467 -3.7443 -1.6615
    2MOL   H115  237   1.175   0.021   6.129  0.2983  0.3325  0.3404
    2MOL   C116  238   1.201   0.007   5.911 -0.4866  0.0197 -0.3480
    2MOL   C117  239   1.272   7.564   5.894 -0.4235  0.5603 -0.4591
    2MOL   H118  240   1.094   0.015   5.892 -0.2085  1.5299 -1.4117
    2MOL   H119  241   1.243   0.069   5.832  2.3428 -1.7164 -0.2645
    2MOL   H120  242   1.225   7.482   5.949  1.9054 -0.2881  0.2869
    2MOL   H121  243   1.264   7.527   5.791  0.5453 -0.5039 -0.1633
    2MOL   H122  244   1.378   7.578   5.913 -0.7846 -0.3632  2.5012
    3MOL     C1  245   4.080   3.707   3.209 -0.8594  0.4143  0.0300
    3MOL     C2  246   4.231   3.690   3.224  0.2208 -0.1137 -0.3995
    3MOL     H3  247   4.040   3.606   3.201 -0.2095 -0.1309  3.1139
    3MOL     H4  248   4.058   3.768   3.121  0.3186 -0.1152 -0.6341
    3MOL     H5  249   4.247   3.611   3.296  2.4868 -0.8218 -1.6372
    3MOL     H6  250   4.267   3.656   3.126 -0.2949 -3.2249  0.4651
    3MOL     H7  251   4.023   3.760   3.286 -1.4773  0.7447 -0.6424
    3MOL     C8  252   4.305   3.817   3.249 -0.7327  1.1876 -0.3495
    3MOL     C9  253   4.282   3.860   3.389  0.4060  0.8611 -0.5750
    3MOL    H10  254   4.412   3.819   3.226 -0.5742 -0.1476  0.2101
    3MOL    H11  255   4.266   3.890   3.178  1.2873  3.0276  0.3669
    3MOL    H12  256   4.175   3.865   3.407  0.7768 -0.8374  2.4051
    3MOL    H13  257   4.309   3.789   3.467  0.7407  2.1650  0.5262
    3MOL    C14  258   4.338   3.999   3.421  0.1650 -0.3540 -0.5398
    3MOL    C15  259   4.294   4.057   3.559  0.3918 -0.0272 -0.2120
    3MOL    H16  260   4.447   4.005   3.420  0.1116  1.1062  0.3925
    3MOL    H17  261   4.292   4.071   3.353 -0.7689 -0.3616  0.0785
    3MOL    H18  262   4.327   4.160   3.541 -1.9389  0.7339 -0.3906
    3MOL    H19  263   4.186   4.046   3.571  0.2073  0.3997 -1.4143
    3MOL    C20  264   4.357   3.995   3.679  0.1156 -0.0018  0.7257
    3MOL    C21  265   4.296   4.038   3.810 -0.3066 -0.1743  0.1187
    3MOL    H22  266   4.353   3.887   3.667 -1.6455  0.1769 -0.3550
    3MOL    H23  267   4.461   4.030   3.681 -0.3677  1.5628 -0.8208
    3MOL    H24  268   4.306   4.147   3.811  1.4197 -0.3299  0.7604
    3MOL    H25  269   4.192   4.005   3.805 -0.6693  0.9651 -0.1020
    3MOL    C26  270   4.364   3.977   3.936 -0.4350 -0.5968  0.0096
    3MOL    C27  271   4.286   3.985   4.070 -0.0891 -0.0700  0.8909
    3MOL    H28  272   4.390   3.872   3.919 -1.6145 -0.9201  0.1629
    3MOL    H29  273   4.463   4.021   3.946 -0.5037 -0.2680 -0.7595
    3MOL    H30  274   4.250   4.088   4.082  2.5961  1.0161  0.0715
    3MOL    H31  275   4.207   3.910   4.072  1.0454 -1.3713 -1.3521
    3MOL    C32  276   4.370   3.955   4.198  0.2423 -0.5737  0.0251
    3MOL    C33  277   4.286   3.976   4.327 -0.5814 -0.2246 -0.1778
    3MOL    H34  278   4.418   3.857   4.206 -0.1789 -0.8211 -0.4256
    3MOL    H35  279   4.458   4.018   4.185 -0.6629  0.6527 -0.1903
    3MOL    H36  280   4.241   4.075   4.333 -0.8248 -0.2967 -0.7705
    3MOL    H37  281   4.199   3.912   4.340 -1.3360  0.4897 -1.6689
    3MOL    C38  282   4.386   3.958   4.443  0.4058  0.2286  0.0128
    3MOL    C39  283   4.322   3.962   4.583  0.3554  0.7853 -0.2550
    3MOL    H40  284   4.441   3.865   4.427  1.4982  0.8681  0.0215
    3MOL    H41  285   4.468   4.029   4.434  0.8092 -0.2016  0.2973
    3MOL    H42  286   4.309   4.070   4.596  2.6108  0.9173  1.0758
    3MOL    H43  287   4.236   3.894   4.580  0.9267  0.0314  0.5590
    3MOL    C44  288   4.427   3.911   4.680 -1.1029 -0.5576  0.1020
    3MOL    C45  289   4.389   3.952   4.819  0.4524  0.1831 -0.3964
    3MOL    H46  290   4.449   3.805   4.668  0.2858 -0.3874  1.0797
    3MOL    H47  291   4.520   3.963   4.658 -1.4415  0.5451  1.2327
    3MOL    H48  292   4.480   3.944   4.879 -0.1900  0.1200  0.5732
    3MOL    H49  293   4.357   4.056   4.816 -0.1321  0.0292  0.3181
    3MOL    C50  294   4.272   3.861   4.867 -0.5419  0.3944 -1.1203
    3MOL    C51  295   4.222   3.882   5.018  0.6582 -0.1250 -0.0626
    3MOL    H52  296   4.186   3.868   4.800  0.4409  0.8653 -2.3566
    3MOL    H53  297   4.299   3.756   4.863  0.2013  0.5567 -0.5835
    3MOL    H54  298   4.219   3.989   5.039  1.1601 -0.2120  0.4516
    3MOL    H55  299   4.115   3.858   5.019  0.6869 -0.2424  0.6947
    3MOL    C56  300   4.300   3.813   5.125 -0.1903  0.2927  0.2198
    3MOL    C57  301   4.353   3.909   5.238 -0.3373  0.8326 -0.8216
    3MOL    H58  302   4.252   3.722   5.162 -1.4286  1.1723  0.7797
    3MOL    H59  303   4.395   3.772   5.089 -0.7941 -0.0608 -1.0150
    3MOL    H60  304   4.406   3.991   5.189  0.2190  0.2650 -1.1875
    3MOL    H61  305   4.277   3.961   5.296  1.3178  2.9558 -0.4764
    3MOL    C62  306   4.438   3.829   5.347 -0.5475  0.6414  0.2181
    3MOL    C63  307   4.448   3.924   5.474  0.0911 -0.0108 -0.7244
    3MOL    H64  308   4.380   3.743   5.380  0.9128 -0.6037 -0.3812
    3MOL    H65  309   4.533   3.783   5.316 -1.1693 -1.0398  0.7546
    3MOL    H66  310   4.505   4.012   5.444 -0.7231 -0.0369 -2.3970
    3MOL    H67  311   4.346   3.956   5.490 -0.4451 -1.4312 -1.2131
    3MOL    C68  312   4.517   3.865   5.591  0.4329 -0.3392  0.9177
    3MOL    C69  313   4.509   3.969   5.705 -0.5762  0.3244 -0.3901
    3MOL    H70  314   4.466   3.776   5.628 -0.6213 -1.3225 -2.7244
    3MOL    H71  315   4.623   3.844   5.574  0.6907  2.3307 -0.9243
    3MOL    H72  316   4.576   4.054   5.689  1.8892 -1.5542 -0.4262
    3MOL    H73  317   4.408   4.009   5.705 -0.8514 -0.3703 -0.3236
    3MOL    C74  318   4.549   3.912   5.852 -0.1739 -0.3972  0.1663
    3MOL    C75  319   4.491   3.997   5.967 -0.0730  1.1518 -0.2088
    3MOL    H76  320   4.517   3.808   5.844 -0.1941 -0.4245  0.6190
    3MOL    H77  321   4.658   3.909   5.854 -0.1607  0.5818  1.3055
    3MOL    H78  322   4.386   4.021   5.951 -0.1482 -0.2267 -1.9268
    3MOL    H79  323   4.501   3.940   6.059  4.2857  1.1981 -0.5311
    3MOL    C80  324   4.570   4.128   5.988  0.4000 -0.3514 -0.9241
    3MOL    C81  325   4.583   4.147   6.140  0.1737 -0.0029 -0.1383
    3MOL    H82  326   4.661   4.147   5.931  1.6911 -1.9663  0.5430
    3MOL    H83  327   4.508   4.205   5.943 -1.3953 -1.3826 -0.2726
    3MOL    H84  328   4.506   4.091   6.192  0.6705 -2.2027 -1.7179
    3MOL    H85  329   4.681   4.111   6.171  0.4911  0.5525 -0.4753
    3MOL    C86  330   4.561   4.292   6.181 -0.2579  0.4097 -0.2256
    3MOL    C87  331   4.604   4.314   6.336  0.2187  0.2608  0.0320
    3MOL    H88  332   4.626   4.349   6.114  0.6469  0.4099  0.6331
    3MOL    H89  333   4.472   4.350   6.158  0.4524  0.9798 -1.6127
    3MOL    H90  334   4.528   4.272   6.401  0.2386  0.0677 -0.0676
    3MOL    H91  335   4.692   4.252   6.354 -0.2449 -0.3838  0.1117
    3MOL    C92  336   4.616   4.465   6.368 -0.5174 -0.1673 -0.0796
    3MOL    C93  337   4.615   4.494   6.519  0.3380 -0.2789 -0.8714
    3MOL    H94  338   4.694   4.510   6.306 -1.3157  1.5400  0.1346
    3MOL    H95  339   4.520   4.504   6.333 -0.2925 -1.2372 -1.9682
    3MOL    H96  340   4.618   4.601   6.541  0.9655 -0.3430 -0.6389
    3MOL    H97  341   4.519   4.460   6.559 -0.2080  0.6811 -1.3579
    3MOL    C98  342   4.724   4.427   6.607  0.3540 -0.6864  0.2291
    3MOL    C99  343   4.857   4.510   6.613 -1.0212 -0.1131 -0.1126
    3MOL   H100  344   4.684   4.423   6.709  0.8641 -1.7143  0.3933
    3MOL   H101  345   4.727   4.328   6.562 -0.6467 -0.1845 -0.9648
    3MOL   H102  346   4.891   4.514   6.509 -1.6594  1.3898 -0.2792
    3MOL   H103  347   4.838   4.614   6.640  1.8253 -0.2698  2.7686
    3MOL   C104  348   4.962   4.449   6.700  0.3801 -0.5113  0.0688
    3MOL   C105  349   4.935   4.469   6.849 -0.1883  0.6923  0.1832
    3MOL   H106  350   4.984   4.349   6.663  2.7462  0.6577 -1.7920
    3MOL   H107  351   5.056   4.498   6.676  0.9377 -2.1256 -1.0865
    3MOL   H108  352   4.918   4.574   6.870  1.2497  0.9558  0.1235
    3MOL   H109  353   4.850   4.410   6.881 -0.0422  1.3006  1.7127
    3MOL   C110  354   5.049   4.416   6.939 -0.6599 -0.1472 -0.0864
    3MOL   C111  355   5.179   4.487   6.922  0.5839 -0.5518  0.2048
    3MOL   H112  356   5.021   4.430   7.044 -0.1776  0.3922 -0.0271
    3MOL   H113  357   5.060   4.308   6.930 -2.8753 -0.5112  1.1924
    3MOL   H114  358   5.221   4.461   6.825  2.6812 -1.2660  1.2708
    3MOL   H115  359   5.156   4.594   6.926  0.9095 -0.4626 -0.3137
    3MOL   C116  360   5.281   4.438   7.028  0.3097 -0.0906 -0.1399
    3MOL   C117  361   5.421   4.492   7.013 -0.5222 -0.4949  0.1471
    3MOL   H118  362   5.247   4.458   7.130  1.8652  0.0098  0.3712
    3MOL   H119  363   5.286   4.329   7.027  0.8864 -0.0612 -0.3971
    3MOL   H120  364   5.486   4.459   7.095 -1.3937  1.4653  1.6779
    3MOL   H121  365   5.472   4.449   6.927  1.6684  2.8445 -0.3144
    3MOL   H122  366   5.428   4.601   7.005  0.3532 -0.5956 -0.4461
    4MOL     C1  367   0.212   1.732   2.178  0.4162 -0.3426 -0.2713
    4MOL     C2  368   0.252   1.594   2.121  0.1294  0.1374 -0.2048
    4MOL     H3  369   0.168   1.722   2.278 -1.4080  1.3379 -0.8732
    4MOL     H4  370   0.140   1.792   2.123  1.3931  1.5507  0.4886
    4MOL     H5  371   0.162   1.535   2.102  0.5055 -1.3374  2.2559
    4MOL     H6  372   0.294   1.604   2.021  0.2589  0.0563 -0.1594
    4MOL     H7  373   0.300   1.796   2.177  1.2516 -1.4717 -1.1673
    4MOL     C8  374   0.343   1.516   2.217 -0.2536 -0.4458  0.9154
    4MOL     C9  375   0.464   1.609   2.276 -0.3050  0.0783 -0.4932
    4MOL    H10  376   0.290   1.479   2.305 -0.0448  0.4608  1.4267
    4MOL    H11  377   0.378   1.429   2.161  0.6325  0.6686 -0.2900
    4MOL    H12  378   0.522   1.646   2.192  1.0295  0.2151  0.4879
    4MOL    H13  379   0.415   1.695   2.321 -0.9688 -0.3245 -0.4288
    4MOL    C14  380   0.544   1.533   2.387 -0.1480 -0.9740  0.7752
    4MOL    C15  381   0.471   1.510   2.526 -0.5523  0.0516 -0.3093
    4MOL    H16  382   0.573   1.436   2.347  1.6035  0.1036 -0.6422
    4MOL    H17  383   0.642   1.580   2.396  0.2557 -1.7255  0.3643
    4MOL    H18  384   0.434   1.610   2.552  1.3293  1.2128 -1.9572
    4MOL    H19  385   0.378   1.453   2.528 -1.6160  1.7158 -0.6547
    4MOL    C20  386   0.571   1.473   2.634  0.0727  0.6000  0.2131
    4MOL    C21  387   0.525   1.491   2.773  0.2821 -0.3231  0.2008
    4MOL    H22  388   0.611   1.372   2.623 -2.3820 -0.5420  1.4367
    4MOL    H23  389   0.656   1.540   2.615  0.3022 -0.4926 -2.9561
    4MOL    H24  390   0.524   1.597   2.798 -2.4625 -0.8058  2.4783
    4MOL    H25  391   0.419   1.466   2.777  0.6565 -1.8315  1.4058
    4MOL    C26  392   0.596   1.399   2.876  0.6459  0.0139 -0.7475
    4MOL    C27  393   0.553   1.433   3.021  0.2139 -0.5773  0.0575
    4MOL    H28  394   0.580   1.294   2.851  0.7882 -0.6573  1.8153
    4MOL    H29  395   0.703   1.409   2.857  0.3973  0.8048 -1.8183
    4MOL    H30  396   0.562   1.542   3.022  1.0721 -0.6444  0.1329
    4MOL    H31  397   0.446   1.419   3.032 -0.4719  3.0939 -1.2335
    4MOL    C32  398   0.632   1.359   3.127  0.3779  0.3160 -0.2096
    4MOL    C33  399   0.573   1.357   3.268  0.0200 -0.6311 -0.5730
    4MOL    H34  400   0.659   1.255   3.105  1.1783  0.0446  1.9941
    4MOL    H35  401   0.729   1.408   3.122 -0.3392  1.6169 -2.2135
    4MOL    H36  402   0.567   1.459   3.307  1.3944  0.6781 -3.5994
    4MOL    H37  403   0.470   1.323   3.282  0.4356 -1.8873 -0.4759
    4MOL    C38  404   0.656   1.280   3.372 -0.2147 -0.4056  0.4276
    4MOL    C39  405   0.603   1.293   3.514 -0.5070  0.4572  0.2587
    4MOL    H40  406   0.659   1.175   3.341 -3.5721 -0.7445  1.0925
    4MOL    H41  407   0.760   1.311   3.374 -0.1519 -0.4236 -1.4139
    4MOL    H42  408   0.568   1.393   3.539 -2.3157  0.7983 -3.2646
    4MOL    H43  409   0.515   1.231   3.533 -1.4298  1.1101 -1.6867
    4MOL    C44  410   0.712   1.256   3.616 -0.1842  0.2034  0.1620
    4MOL    C45  411   0.644   1.246   3.751 -0.1307 -0.3108  0.4655
    4MOL    H46  412   0.764   1.162   3.599  1.7161  1.0106  1.3042
    4MOL    H47  413   0.800   1.320   3.624  1.8256 -2.6129  1.7865
    4MOL    H48  414   0.576   1.330   3.757  1.2571  0.7939  1.2456
    4MOL    H49  415   0.577   1.161   3.754  0.1706 -0.5839 -0.3634
    4MOL    C50  416   0.746   1.226   3.868 -0.5503 -0.1368  0.2501
    4MOL    C51  417   0.818   1.348   3.920 -0.3084 -0.2308 -0.1602
    4MOL    H52  418   0.698   1.190   3.959 -0.6849  0.6474  0.4895
    4MOL    H53  419   0.818   1.152   3.835 -0.6175 -1.2811  2.5585
    4MOL    H54  420   0.850   1.411   3.836 -0.6094  0.5472  0.3005
    4MOL    H55  421   0.740   1.406   3.970 -0.1354  0.2693 -0.4585
    4MOL    C56  422   0.937   1.316   4.011  0.5529  0.1921 -0.6199
    4MOL    C57  423   0.927   1.199   4.112  0.3184 -0.1076 -0.1049
    4MOL    H58  424   1.019   1.296   3.942 -0.9128 -2.6219 -1.6515
    4MOL    H59  425   0.967   1.402   4.070  1.2034 -0.5578  0.1637
    4MOL    H60  426   0.870   1.115   4.072  0.6259 -0.2973 -0.1467
    4MOL    H61  427   1.027   1.157   4.117  0.0389 -0.4971  2.7501
    4MOL    C62  428   0.874   1.252   4.245 -0.3456  0.5980 -0.5029
    4MOL    C63  429   0.728   1.256   4.250 -0.2748  0.1084  0.8921
    4MOL    H64  430   0.909   1.187   4.325  0.1509 -0.8944 -1.9155
    4MOL    H65  431   0.913   1.353   4.262  2.2028 -0.4950  0.3022
    4MOL    H66  432   0.687   1.310   4.165 -0.3235 -1.1089  0.1216
    4MOL    H67  433   0.686   1.158   4.225  0.9597  0.4591 -2.8460
    4MOL    C68  434   0.670   1.311   4.378  0.4584  0.0868 -0.4080
    4MOL    C69  435   0.521   1.306   4.377 -0.6163  0.0943 -0.3297
    4MOL    H70  436   0.707   1.247   4.458  1.1842  2.5523  1.2431
    4MOL    H71  437   0.687   1.412   4.412  0.3641 -0.3502  0.9540
    4MOL    H72  438   0.476   1.376   4.308 -4.8643 -0.1014  2.0507
    4MOL    H73  439   0.492   1.207   4.340 -1.4534 -0.2813  1.2737
    4MOL    C74  440   0.463   1.343   4.520  0.5112 -0.4609 -0.3657
    4MOL    C75  441   0.310   1.310   4.531  0.5711 -0.5638 -0.1310
    4MOL    H76  442   0.516   1.280   4.592  1.9750 -1.4233 -2.2343
    4MOL    H77  443   0.484   1.447   4.542  1.2307 -0.6304 -0.2422
    4MOL    H78  444   0.296   1.209   4.492  3.2917 -1.1275  0.2551
    4MOL    H79  445   0.278   1.296   4.635 -0.7093 -1.8405 -0.6797
    4MOL    C80  446   0.223   1.420   4.476  0.0272 -0.0270 -0.9977
    4MOL    C81  447   0.078   1.380   4.504 -0.0105  0.0343  0.0244
    4MOL    H82  448   0.246   1.517   4.519 -0.2290  0.3208 -1.6334
    4MOL    H83  449   0.237   1.426   4.368 -0.2030  1.0884 -0.9789
    4MOL    H84  450   0.065   1.280   4.462 -2.0439  0.4682 -0.4608
    4MOL    H85  451   0.065   1.383   4.612 -0.8379 -2.2252  0.0131
    4MOL    C86  452   7.675   1.475   4.437 -0.0894 -0.5398  0.2318
    4MOL    C87  453   7.646   1.441   4.283 -0.3643  0.5760 -0.7231
    4MOL    H88  454   7.582   1.451   4.487  0.1010 -1.8772 -0.0349
    4MOL    H89  455   0.018   1.577   4.452 -0.1135 -0.2927 -1.2969
    4MOL    H90  456   0.046   1.431   4.226  0.4600 -0.6122  0.7454
    4MOL    H91  457   7.607   1.340   4.272 -0.6832  0.6559 -0.3559
    4MOL    C92  458   7.544   1.536   4.216  0.1585 -0.8863  0.1223
    4MOL    C93  459   7.586   1.682   4.215 -0.2609 -0.1553  0.0078
    4MOL    H94  460   7.509   1.508   4.116  0.8957 -1.7892  0.1059
    4MOL    H95  461   7.448   1.532   4.267  0.2714  2.6015  0.7222
    4MOL    H96  462   7.500   1.734   4.173 -0.0491 -1.5402 -2.2434
    4MOL    H97  463   7.608   1.721   4.314  0.9295  1.5115 -0.8775
    4MOL    C98  464   0.014   1.713   4.131 -0.2153  0.7076 -0.1029
    4MOL    C99  465   0.056   1.861   4.114 -0.7665 -0.1263 -0.0148
    4MOL   H100  466   0.104   1.660   4.161 -0.4565  0.8804  0.9411
    4MOL   H101  467   7.688   1.672   4.032  0.7611 -1.3273  0.5496
    4MOL   H102  468   7.656   1.914   4.088 -1.0131  0.1340  1.3171
    4MOL   H103  469   0.090   1.900   4.210 -1.1607 -0.4191  0.2425
    4MOL   C104  470   0.159   1.878   4.005  0.0086  0.2180  0.0233
    4MOL   C105  471   0.177   2.021   3.952  0.3833 -0.1756 -0.1300
    4MOL   H106  472   0.255   1.842   4.042  0.2715  0.1078 -0.7530
    4MOL   H107  473   0.130   1.806   3.928 -0.2384 -1.9641  2.1124
    4MOL   H108  474   0.086   2.057   3.905 -0.1694 -2.2104 -0.6990
    4MOL   H109  475   0.205   2.084   4.036  0.5210 -0.0478 -0.2714
    4MOL   C110  476   0.296   2.033   3.849 -0.5139  0.0436  0.3432
    4MOL   C111  477   0.312   2.178   3.804  0.0085  0.6619 -0.4213
    4MOL   H112  478   0.383   1.993   3.900  0.3418  1.4829  0.0576
    4MOL   H113  479   0.268   1.976   3.761 -1.7609  2.0028 -0.5644
    4MOL   H114  480   0.382   2.169   3.721  0.8682  0.9094  0.2676
    4MOL   H115  481   0.219   2.217   3.763 -0.8696  3.5418  4.0195
    4MOL   C116  482   0.366   2.271   3.922  0.5452  0.0658  0.3527
    4MOL   C117  483   0.411   2.410   3.888  0.1518 -0.1215  0.3076
    4MOL   H118  484   0.288   2.283   3.998 -0.0336 -1.4306  0.0081
    4MOL   H119  485   0.449   2.226   3.977  1.6170  2.0381  0.3718
    4MOL   H120  486   0.355   2.460   3.809 -0.4612  1.2612  1.5940
    4MOL   H121  487   0.400   2.475   3.975 -2.0265  0.7379 -0.5648
    4MOL   H122  488   0.509   2.409   3.840 -1.1231  1.0608 -2.4730
    5MOL     C1  489   0.696   1.979   2.164  0.6045 -0.1604  0.0021
    5MOL     C2  490   0.787   2.010   2.285 -0.3417 -0.5875 -0.3509
    5MOL     H3  491   0.752   2.010   2.077 -1.2108  2.3307 -0.3230
    5MOL     H4  492   0.596   2.024   2.163  0.0768 -1.1766  2.2588
    5MOL     H5  493   0.771   2.116   2.305 -0.1776 -0.3988 -1.1947
    5MOL     H6  494   0.746   1.964   2.375  2.8349  1.7209  2.4047
    5MOL     H7  495   0.682   1.871   2.158 -0.9039  0.1088 -1.7047
    5MOL     C8  496   0.936   1.947   2.269  0.4477  0.1931 -0.0876
    5MOL     C9  497   1.027   2.010   2.376  0.8171 -0.4409 -0.0674
    5MOL    H10  498   0.938   1.838   2.265  0.5165  0.2074 -0.5211
    5MOL    H11  499   0.989   1.989   2.183 -1.5494 -2.4859 -2.7524
    5MOL    H12  500   1.023   2.118   2.364 -0.9901 -0.4817  0.1231
    5MOL    H13  501   0.993   1.991   2.478  0.6903 -0.0557 -0.0385
    5MOL    C14  502   1.178   1.966   2.343 -0.2344  0.0111  0.4735
    5MOL    C15  503   1.291   2.013   2.439 -0.3977  0.3217 -0.7891
    5MOL    H16  504   1.195   1.858   2.336  1.5760  0.3736 -1.2907
    5MOL    H17  505   1.205   2.002   2.244 -0.5760  1.7190  0.9944
    5MOL    H18  506   1.283   2.120   2.459  1.2274  0.6882 -2.0834
    5MOL    H19  507   1.278   1.956   2.532  0.8784 -3.2593 -2.7149
    5MOL    C20  508   1.427   1.987   2.375 -0.2668 -0.3890 -0.1961
    5MOL    C21  509   1.555   2.050   2.435  0.6694  0.1903  0.2027
    5MOL    H22  510   1.438   1.879   2.371  0.1684 -0.3109 -1.3225
    5MOL    H23  511   1.423   2.023   2.272  0.6168 -1.9581 -0.7922
    5MOL    H24  512   1.542   2.158   2.427 -0.9126 -0.0144 -0.1803
    5MOL    H25  513   1.568   2.021   2.539 -3.0053 -1.2359  0.3151
    5MOL    C26  514   1.685   2.018   2.343  0.3342  0.0330 -0.2079
    5MOL    C27  515   1.817   2.095   2.387 -0.2207 -0.3629  0.5990
    5MOL    H28  516   1.706   1.911   2.345  1.8144  0.2754 -1.5988
    5MOL    H29  517   1.675   2.045   2.238 -0.5669  0.3043 -0.0538
    5MOL    H30  518   1.807   2.203   2.387  0.9638 -0.2410  0.0315
    5MOL    H31  519   1.841   2.064   2.489  1.0728 -0.1668  0.3638
    5MOL    C32  520   1.939   2.059   2.302 -0.0399 -0.1976  0.0848
    5MOL    C33  521   2.067   2.142   2.335  0.3473 -0.0737 -0.0444
    5MOL    H34  522   1.964   1.956   2.329 -0.4988 -0.5570 -0.8067
    5MOL    H35  523   1.916   2.068   2.195  1.7991  1.3963 -0.1977
    5MOL    H36  524   2.052   2.249   2.317 -1.8514 -0.4801 -0.7766
    5MOL    H37  525   2.100   2.134   2.439 -0.9816 -1.2014  0.2974
    5MOL    C38  526   2.170   2.102   2.226 -0.0895 -0.2916 -0.2080
    5MOL    C39  527   2.313   2.165   2.240 -0.2247  0.2547 -0.1282
    5MOL    H40  528   2.168   1.994   2.210  0.2173 -0.2649 -0.4184
    5MOL    H41  529   2.129   2.147   2.135 -3.3779  1.4823  2.0160
    5MOL    H42  530   2.292   2.263   2.283 -1.8666 -0.8379  1.7072
    5MOL    H43  531   2.359   2.125   2.331  1.6912  0.6109 -0.9201
    5MOL    C44  532   2.409   2.151   2.120  0.1885  0.0280  0.0216
    5MOL    C45  533   2.555   2.179   2.159  0.3112 -0.4024  0.1344
    5MOL    H46  534   2.397   2.049   2.081  0.1119 -1.0760  2.8335
    5MOL    H47  535   2.377   2.222   2.044 -1.4375 -0.0866  0.5637
    5MOL    H48  536   2.569   2.280   2.197  1.4020 -0.5935  0.2530
    5MOL    H49  537   2.570   2.111   2.243  0.2691  0.8269  1.1433
    5MOL    C50  538   2.662   2.147   2.053  0.2936  0.2082  0.0842
    5MOL    C51  539   2.801   2.171   2.113 -1.0128  0.0077  0.9555
    5MOL    H52  540   2.659   2.045   2.014  0.9510  0.6529 -1.1239
    5MOL    H53  541   2.641   2.208   1.965  0.9668 -0.9243 -0.8744
    5MOL    H54  542   2.815   2.264   2.168  1.4996  0.4149 -0.2939
    5MOL    H55  543   2.824   2.093   2.186  2.1668  1.7856  1.9330
    5MOL    C56  544   2.906   2.156   2.004  0.2432 -0.1564 -0.1771
    5MOL    C57  545   3.050   2.190   2.046  0.1075 -0.0952  0.0959
    5MOL    H58  546   2.908   2.052   1.971  0.1816 -0.6621  1.3809
    5MOL    H59  547   2.876   2.214   1.917 -1.9469 -1.0549 -0.0598
    5MOL    H60  548   3.048   2.286   2.097 -0.1863 -1.1367  2.0846
    5MOL    H61  549   3.082   2.119   2.122  1.6569 -0.4606 -0.8721
    5MOL    C62  550   3.157   2.188   1.939 -0.4900  0.3435  0.1187
    5MOL    C63  551   3.302   2.196   2.009 -0.0848  0.2195 -0.1138
    5MOL    H64  552   3.154   2.098   1.877 -2.5162 -0.5505  1.4897
    5MOL    H65  553   3.140   2.270   1.869 -0.4855  1.3784  1.3063
    5MOL    H66  554   3.317   2.292   2.059 -0.4842 -0.4196  1.2601
    5MOL    H67  555   3.321   2.114   2.079 -0.1190 -0.3007 -0.7124
    5MOL    C68  556   3.406   2.181   1.898  0.5878 -0.1585 -0.1728
    5MOL    C69  557   3.549   2.223   1.934  0.7152 -0.0214  0.0965
    5MOL    H70  558   3.417   2.075   1.873  0.3337 -0.4286  0.8172
    5MOL    H71  559   3.365   2.236   1.813  0.6980  2.2146  1.2673
    5MOL    H72  560   3.533   2.323   1.973 -2.0474 -0.2759 -0.2977
    5MOL    H73  561   3.594   2.165   2.015  2.2086  0.0599 -0.6582
    5MOL    C74  562   3.639   2.224   1.804  0.5221  0.9140 -0.2579
    5MOL    C75  563   3.779   2.272   1.846  1.2426 -0.4045 -0.4131
    5MOL    H76  564   3.643   2.129   1.753 -2.1622  0.9527 -0.6270
    5MOL    H77  565   3.594   2.288   1.728 -0.0550 -1.3390 -1.8328
    5MOL    H78  566   3.788   2.373   1.885 -1.4795 -0.4524  0.4459
    5MOL    H79  567   3.815   2.212   1.930 -0.5805  0.0594  0.7326
    5MOL    C80  568   3.876   2.255   1.722 -0.5135 -0.1503  0.0637
    5MOL    C81  569   4.021   2.299   1.743 -0.1996 -0.2084 -0.5076
    5MOL    H82  570   3.861   2.153   1.685  1.2462  0.0101 -1.1184
    5MOL    H83  571   3.832   2.322   1.648  0.2284  1.4221  1.0234
    5MOL    H84  572   4.028   2.406   1.760 -1.7227 -0.2914  0.8097
    5MOL    H85  573   4.055   2.259   1.839  0.0577  3.0406  0.8342
    5MOL    C86  574   4.112   2.265   1.621  0.1470 -0.0313  0.4621
    5MOL    C87  575   4.254   2.291   1.660 -0.1998 -0.6558 -0.5097
    5MOL    H88  576   4.117   2.161   1.586  0.2347  0.9936 -2.7331
    5MOL    H89  577   4.085   2.327   1.535  2.6093 -2.4246 -2.1328
    5MOL    H90  578   4.263   2.394   1.693 -2.5580 -0.9455  1.1922
    5MOL    H91  579   4.298   2.219   1.730 -0.5357 -0.1211  0.2537
    5MOL    C92  580   4.350   2.275   1.541 -0.2475 -0.6356 -0.9526
    5MOL    C93  581   4.492   2.319   1.573 -0.3776 -0.2314  0.8777
    5MOL    H94  582   4.350   2.168   1.517 -0.8411 -0.8230 -0.1648
    5MOL    H95  583   4.312   2.332   1.457 -0.8033  1.0173  0.4089
    5MOL    H96  584   4.494   2.424   1.603  1.7412 -0.3411  1.2388
    5MOL    H97  585   4.523   2.262   1.661  0.7196  0.3204  0.8659
    5MOL    C98  586   4.586   2.274   1.459 -0.2779  0.4811  0.0297
    5MOL    C99  587   4.731   2.322   1.484  0.5168  0.8142 -0.8072
    5MOL   H100  588   4.580   2.166   1.445 -1.6191  0.6208 -0.6609
    5MOL   H101  589   4.548   2.318   1.366  1.1150  3.2512  0.7275
    5MOL   H102  590   4.730   2.430   1.489  2.6046  0.9180 -1.9668
    5MOL   H103  591   4.749   2.278   1.582 -0.2958  0.3912 -0.8424
    5MOL   C104  592   4.842   2.287   1.380  0.2525  0.2580  0.1635
    5MOL   C105  593   4.980   2.347   1.414  0.0755  0.1084 -0.0767
    5MOL   H106  594   4.850   2.179   1.365 -0.5385  0.2941 -0.5650
    5MOL   H107  595   4.815   2.328   1.283 -1.7111  0.3469  0.7205
    5MOL   H108  596   4.963   2.447   1.455 -0.5316 -1.1229  2.7915
    5MOL   H109  597   5.035   2.293   1.492  0.2548  0.7167  0.2216
    5MOL   C110  598   5.074   2.359   1.290  0.0636  0.9539  0.3286
    5MOL   C111  599   5.203   2.443   1.329  0.2448  0.4021  0.1984
    5MOL   H112  600   5.103   2.255   1.272  0.8082  0.9672  1.3555
    5MOL   H113  601   5.026   2.386   1.197 -0.1243 -3.3145 -0.9209
    5MOL   H114  602   5.239   2.407   1.425  2.3868  0.7399 -0.4379
    5MOL   H115  603   5.280   2.424   1.254 -0.9418 -0.0329 -0.9326
    5MOL   C116  604   5.182   2.597   1.315  0.3995 -0.1365  0.2063
    5MOL   C117  605   5.150   2.649   1.169  0.4028  0.6177 -0.5578
    5MOL   H118  606   5.102   2.614   1.387  0.2268  1.0250 -0.2596
    5MOL   H119  607   5.275   2.649   1.338 -0.7794  3.0656 -1.9903
    5MOL   H120  608   5.058   2.599   1.138  0.8406  0.2837 -1.3202
    5MOL   H121  609   5.139   2.757   1.172 -0.3041  0.5569 -0.7245
    5MOL   H122  610   5.233   2.635   1.101  0.6568  0.2143 -0.1725
    6MOL     C1  611   3.717   4.523   4.463 -0.8603  0.4212  0.2770
    6MOL     C2  612   3.605   4.568   4.552 -0.3155 -0.0166  0.3715
    6MOL     H3  613   3.805   4.582   4.490  0.3227 -1.9395  1.7766
    6MOL     H4  614   3.700   4.526   4.355 -0.4255 -1.5422  0.1350
    6MOL     H5  615   3.517   4.513   4.518  1.0628 -1.4653 -0.9538
    6MOL     H6  616   3.624   4.535   4.654 -0.3980  1.4232  0.8568
    6MOL     H7  617   3.740   4.418   4.480 -0.8050  0.1637 -1.3564
    6MOL     C8  618   3.570   4.718   4.532  0.1518  0.7383 -0.1590
    6MOL     C9  619   3.432   4.765   4.596  0.1387  0.4471 -0.0152
    6MOL    H10  620   3.647   4.776   4.582 -0.9481  2.1812 -0.1087
    6MOL    H11  621   3.564   4.733   4.424  2.3184 -1.0565 -0.5818
    6MOL    H12  622   3.353   4.707   4.549 -1.2561  3.2566 -1.2294
    6MOL    H13  623   3.435   4.735   4.701 -0.2561 -1.2746 -0.4768
    6MOL    C14  624   3.389   4.910   4.586 -0.7538  0.3319  0.2477
    6MOL    C15  625   3.275   4.946   4.677 -0.4728  0.4185  0.8153
    6MOL    H16  626   3.478   4.969   4.607 -1.5828  1.4884  0.5902
    6MOL    H17  627   3.374   4.925   4.479 -0.6152  0.3338  0.2278
    6MOL    H18  628   3.193   4.879   4.649 -1.8106  2.4487 -0.2034
    6MOL    H19  629   3.297   4.926   4.782  0.3468 -0.2903  0.5120
    6MOL    C20  630   3.237   5.092   4.648 -0.1957  0.7499  0.4153
    6MOL    C21  631   3.105   5.137   4.720  0.7755  0.5761 -0.2552
    6MOL    H22  632   3.318   5.161   4.673  0.6105  0.4525 -1.3786
    6MOL    H23  633   3.237   5.113   4.541 -0.5266 -2.4783 -0.2658
    6MOL    H24  634   3.024   5.068   4.694 -0.1187  2.0652 -1.5319
    6MOL    H25  635   3.112   5.127   4.828  2.1155  0.5140 -0.3460
    6MOL    C26  636   3.075   5.280   4.689  0.3115 -0.6868 -0.4287
    6MOL    C27  637   2.947   5.340   4.754  0.5978 -0.1350 -0.1495
    6MOL    H28  638   3.159   5.349   4.698  0.7646 -1.5148  1.9001
    6MOL    H29  639   3.048   5.283   4.583  1.1347 -0.1868 -0.6253
    6MOL    H30  640   2.865   5.273   4.726  0.9054 -0.2957 -0.6803
    6MOL    H31  641   2.955   5.334   4.862  1.9479  1.6403 -0.1246
    6MOL    C32  642   2.911   5.484   4.710 -0.2077 -0.9280 -1.1037
    6MOL    C33  643   2.778   5.539   4.774 -0.3760 -1.0563 -0.3773
    6MOL    H34  644   2.985   5.555   4.747 -2.8427  0.0695  2.4801
    6MOL    H35  645   2.906   5.478   4.601 -2.0587  2.3023 -1.2623
    6MOL    H36  646   2.705   5.458   4.776  2.3941 -3.6417  1.9373
    6MOL    H37  647   2.793   5.549   4.882  2.5584 -1.0659 -0.7427
    6MOL    C38  648   2.726   5.683   4.735  0.3294 -0.1525 -0.2304
    6MOL    C39  649   2.679   5.696   4.593  0.6206 -0.1415  0.9916
    6MOL    H40  650   2.651   5.724   4.803  0.1688 -1.3536  0.3294
    6MOL    H41  651   2.809   5.749   4.760 -0.9105  0.4396  2.5317
    6MOL    H42  652   2.671   5.804   4.582 -2.0595 -0.3736  0.5203
    6MOL    H43  653   2.752   5.647   4.529 -2.0826 -1.4925 -1.1577
    6MOL    C44  654   2.545   5.618   4.576  0.1593  0.2702 -0.3105
    6MOL    C45  655   2.515   5.610   4.425 -0.0847 -0.1259  0.2317
    6MOL    H46  656   2.545   5.516   4.615  1.4904 -0.5903 -2.5046
    6MOL    H47  657   2.463   5.672   4.624 -1.4769 -1.8817 -0.6457
    6MOL    H48  658   2.542   5.702   4.373 -1.0009 -0.9379 -1.7036
    6MOL    H49  659   2.577   5.534   4.378  1.5589  0.2612  1.7153
    6MOL    C50  660   2.367   5.581   4.407  0.1904  0.2279 -0.2118
    6MOL    C51  661   2.338   5.559   4.258 -0.1306 -0.6512  0.0179
    6MOL    H52  662   2.341   5.492   4.464 -1.5070  0.8734  0.0692
    6MOL    H53  663   2.292   5.650   4.445 -0.1279 -0.3123  0.1553
    6MOL    H54  664   2.346   5.652   4.203  1.9246 -1.5561 -1.2630
    6MOL    H55  665   2.420   5.496   4.226 -0.0646 -0.4705 -0.1656
    6MOL    C56  666   2.203   5.494   4.227  0.3699 -0.1715 -0.0637
    6MOL    C57  667   2.172   5.483   4.080 -0.0297 -0.1254 -1.3200
    6MOL    H58  668   2.189   5.395   4.271 -0.8928 -1.1233 -2.4701
    6MOL    H59  669   2.125   5.556   4.270 -1.5931 -0.6374 -2.7803
    6MOL    H60  670   2.158   5.577   4.025 -0.6187  1.4334  1.4048
    6MOL    H61  671   2.262   5.437   4.040  0.7691 -0.4582  0.8181
    6MOL    C62  672   2.051   5.399   4.048 -0.5010 -0.6637  0.1447
    6MOL    C63  673   2.060   5.374   3.897  0.6335 -0.3774  0.1426
    6MOL    H64  674   2.072   5.297   4.082 -2.8939 -1.3387 -0.2665
    6MOL    H65  675   1.956   5.428   4.094  0.7895  0.0406  2.4182
    6MOL    H66  676   2.082   5.468   3.846 -0.5125  0.5607  1.3099
    6MOL    H67  677   2.138   5.300   3.879  1.5064  0.4833  0.3347
    6MOL    C68  678   1.921   5.326   3.850  0.4281 -0.0445  0.5985
    6MOL    C69  679   1.927   5.265   3.714 -0.0709 -0.4423 -0.3499
    6MOL    H70  680   1.879   5.255   3.921 -0.7614 -0.0184 -0.0638
    6MOL    H71  681   1.846   5.405   3.841  0.3379  0.0735  2.2992
    6MOL    H72  682   1.989   5.176   3.720 -0.2588 -0.4946  0.8693
    6MOL    H73  683   1.828   5.221   3.701 -0.9438  1.1134  0.7793
    6MOL    C74  684   1.957   5.353   3.598 -0.3220 -0.7988  0.5789
    6MOL    C75  685   1.901   5.306   3.467 -0.2065  0.1606  0.0067
    6MOL    H76  686   1.915   5.453   3.615 -1.5780 -0.6418 -3.0230
    6MOL    H77  687   2.066   5.347   3.599 -0.2828 -0.5355 -0.8832
    6MOL    H78  688   1.794   5.305   3.489  0.1435  0.4833  1.7501
    6MOL    H79  689   1.910   5.371   3.380 -2.7379 -0.0095 -0.4302
    6MOL    C80  690   1.954   5.175   3.405  0.0964 -0.6740 -0.7814
    6MOL    C81  691   1.871   5.124   3.279  0.2962  0.2467  0.0295
    6MOL    H82  692   2.060   5.180   3.382  0.6607 -0.3457  1.7657
    6MOL    H83  693   1.943   5.091   3.474  1.5332 -1.4638 -1.4859
    6MOL    H84  694   1.772   5.086   3.306  0.7360 -1.4526 -0.7046
    6MOL    H85  695   1.864   5.208   3.210 -1.4666 -0.0487 -0.1739
    6MOL    C86  696   1.931   5.011   3.202 -0.3944  0.2462  0.2143
    6MOL    C87  697   1.850   4.978   3.077 -0.5119  0.3798  0.3922
    6MOL    H88  698   2.030   5.036   3.165 -0.1958 -0.4315  0.2887
    6MOL    H89  699   1.951   4.921   3.260 -0.8767  0.8025  1.2639
    6MOL    H90  700   1.746   4.949   3.093 -0.9395  1.0098 -1.1595
    6MOL    H91  701   1.840   5.065   3.012 -1.1825  1.5729  2.0613
    6MOL    C92  702   1.920   4.874   2.984 -1.0685  0.1299  0.0168
    6MOL    C93  703   1.892   4.724   3.023  0.0613  0.2446 -0.7373
    6MOL    H94  704   1.903   4.902   2.880 -1.0841 -1.6875 -0.4916
    6MOL    H95  705   2.028   4.884   2.991 -1.0056 -1.1763  1.2014
    6MOL    H96  706   1.935   4.705   3.122  0.4878 -1.9351 -1.3065
    6MOL    H97  707   1.785   4.721   3.043  0.2890  0.5114  0.5995
    6MOL    C98  708   1.931   4.612   2.930 -0.3561 -0.4169  0.2280
    6MOL    C99  709   1.878   4.474   2.982 -0.1075  1.2475 -0.0819
    6MOL   H100  710   1.894   4.642   2.832 -2.5916 -1.2621  0.7726
    6MOL   H101  711   2.039   4.602   2.922 -0.4315 -1.5438  0.4650
    6MOL   H102  712   1.910   4.454   3.084  0.4595 -0.1739 -0.5300
    6MOL   H103  713   1.770   4.476   2.981 -0.2106 -1.3381  1.4103
    6MOL   C104  714   1.928   4.359   2.890 -0.6181  0.0716 -0.4659
    6MOL   C105  715   1.902   4.215   2.948 -0.4495 -0.2366 -0.5001
    6MOL   H106  716   1.904   4.378   2.785  1.5066  1.0443 -0.8058
    6MOL   H107  717   2.037   4.365   2.890 -0.6549  0.7536 -1.1557
    6MOL   H108  718   1.938   4.203   3.051 -0.8189 -0.5745 -0.4087
    6MOL   H109  719   1.794   4.207   2.953 -0.3048 -1.1050  2.9323
    6MOL   C110  720   1.968   4.105   2.863 -0.5665  0.0059  0.3735
    6MOL   C111  721   1.968   3.974   2.936  0.6962  0.0281 -0.0001
    6MOL   H112  722   1.931   4.092   2.761 -0.9845 -0.2794  0.5628
    6MOL   H113  723   2.070   4.138   2.843 -1.1304  1.1329 -0.7613
    6MOL   H114  724   2.034   3.903   2.886  0.2741  1.1359 -2.1497
    6MOL   H115  725   2.008   3.993   3.036  2.0652  3.4894 -1.1263
    6MOL   C116  726   1.833   3.900   2.936 -0.0733  0.1946  0.4571
    6MOL   C117  727   1.842   3.772   3.029 -0.8550  0.7622 -0.6235
    6MOL   H118  728   1.759   3.966   2.982  1.7336  0.9983  2.3072
    6MOL   H119  729   1.799   3.868   2.838  0.0470  0.2344  0.4034
    6MOL   H120  730   1.747   3.720   3.026  0.1872 -1.1155 -2.3716
    6MOL   H121  731   1.923   3.705   3.001 -1.6975  0.5847 -2.7010
    6MOL   H122  732   1.843   3.805   3.133  1.8436 -0.0670 -0.3400
    7MOL     C1  733   1.808   0.276   4.300 -0.8666 -0.3403 -0.4207
    7MOL     C2  734   1.841   0.128   4.311  0.9030  0.1647 -0.4270
    7MOL     H3  735   1.707   0.306   4.274 -0.2664  1.7555 -0.4218
    7MOL     H4  736   1.886   0.322   4.240  2.0604 -2.0255  1.9194
    7MOL     H5  737   1.839   0.080   4.213 -1.5267 -0.0701 -0.2790
    7MOL     H6  738   1.941   0.115   4.354 -0.3614  0.3107  2.7001
    7MOL     H7  739   1.825   0.316   4.400 -2.0219  1.3453 -0.8873
    7MOL     C8  740   1.743   0.038   4.399 -0.4457 -0.2074 -0.5211
    7MOL     C9  741   1.711   0.103   4.538  0.5049 -0.3490 -0.2258
    7MOL    H10  742   1.655   0.009   4.343 -2.0251  4.2998 -0.5807
    7MOL    H11  743   1.803   7.641   4.416 -0.8949  0.2264  3.8205
    7MOL    H12  744   1.802   0.122   4.595  0.1938 -0.3199  0.2663
    7MOL    H13  745   1.665   0.201   4.525  2.4885  0.5921 -0.2939
    7MOL    C14  746   1.622   0.012   4.615 -0.1622 -0.0316  0.1885
    7MOL    C15  747   1.559   0.081   4.733  0.3654 -0.0850  0.0029
    7MOL    H16  748   1.550   7.671   4.540 -3.3081  1.3527  2.5159
    7MOL    H17  749   1.679   7.617   4.648 -0.5918 -1.5941 -2.9242
    7MOL    H18  750   1.629   0.121   4.805  0.0225  1.1622 -0.3356
    7MOL    H19  751   1.506   0.167   4.693 -0.1617  0.4956  1.9185
    7MOL    C20  752   1.456   7.682   4.804 -0.8999 -0.4185 -0.9771
    7MOL    C21  753   1.370   0.074   4.901 -0.9570 -0.8499 -0.0854
    7MOL    H22  754   1.388   7.621   4.745 -1.3691 -0.9892  0.1404
    7MOL    H23  755   1.504   7.607   4.866 -0.9755  1.2584  1.1674
    7MOL    H24  756   1.435   0.125   4.973  0.2129  0.5493 -2.0851
    7MOL    H25  757   1.322   0.154   4.845  0.0571 -1.3357 -1.6922
    7MOL    C26  758   1.262   7.673   4.956 -0.8494 -0.5811  0.1551
    7MOL    C27  759   1.182   0.048   5.071 -0.0762  0.1418 -0.2408
    7MOL    H28  760   1.194   7.637   4.878  0.7529 -0.3804 -1.3639
    7MOL    H29  761   1.297   7.576   4.991  1.3492  0.3975  0.7070
    7MOL    H30  762   1.250   0.081   5.150 -1.9485 -1.0397  1.9163
    7MOL    H31  763   1.141   0.142   5.034 -1.3673 -0.7815 -1.1850
    7MOL    C32  764   1.067   7.662   5.123 -0.0372 -1.0752  0.3725
    7MOL    C33  765   0.950   0.043   5.192  0.3961 -0.5328 -0.2512
    7MOL    H34  766   1.007   7.626   5.039 -0.5866 -0.1613  0.3630
    7MOL    H35  767   1.104   7.576   5.179  1.6614 -1.5099 -1.3612
    7MOL    H36  768   0.908   0.122   5.131 -0.4339 -1.4980 -0.9569
    7MOL    H37  769   0.865   7.667   5.203 -1.2042  1.6241  1.1874
    7MOL    C38  770   0.976   0.111   5.322  0.7002  0.7396 -0.3745
    7MOL    C39  771   0.860   0.196   5.364 -0.9867  0.0007  0.1842
    7MOL    H40  772   1.008   0.037   5.395  0.4805  1.9755  1.0020
    7MOL    H41  773   1.069   0.168   5.321  2.3361 -1.8494 -0.6232
    7MOL    H42  774   0.840   0.272   5.289 -1.7689  0.6818  1.0582
    7MOL    H43  775   0.764   0.145   5.377 -0.9547  0.0634  0.7132
    7MOL    C44  776   0.898   0.259   5.499  0.2303 -0.0581  0.2389
    7MOL    C45  777   0.783   0.348   5.542 -0.6463  0.8250  0.1118
    7MOL    H46  778   0.906   0.183   5.576  0.1652  0.7152  1.0227
    7MOL    H47  779   0.990   0.318   5.509  0.4027 -0.4046  0.7212
    7MOL    H48  780   0.787   0.428   5.467  2.7220 -0.4707 -1.1880
    7MOL    H49  781   0.686   0.299   5.531 -0.6147  0.1083  2.7204
    7MOL    C50  782   0.787   0.418   5.676 -0.0757  0.5619 -0.2263
    7MOL    C51  783   0.686   0.532   5.698 -0.0603 -0.3714  0.0722
    7MOL    H52  784   0.774   0.347   5.758 -2.3745 -1.5479 -2.3325
    7MOL    H53  785   0.891   0.448   5.687 -0.0342 -0.4544  2.4689
    7MOL    H54  786   0.672   0.591   5.608  1.1067 -0.6877 -0.3230
    7MOL    H55  787   0.585   0.501   5.728  0.1171 -0.5654  0.4771
    7MOL    C56  788   0.729   0.636   5.805 -0.1254 -0.2210  0.0562
    7MOL    C57  789   0.635   0.762   5.799 -0.1437 -1.1087  0.1693
    7MOL    H58  790   0.738   0.596   5.906  3.2525 -0.7292 -0.4021
    7MOL    H59  791   0.828   0.671   5.778 -0.0259  0.3584  1.1602
    7MOL    H60  792   0.528   0.739   5.803 -0.3687 -0.3728 -1.2559
    7MOL    H61  793   0.657   0.817   5.891 -3.1767  0.3019  0.1231
    7MOL    C62  794   0.654   0.852   5.671 -0.5116  0.0622  0.6126
    7MOL    C63  795   0.556   0.964   5.646  0.6670  0.1130  0.3604
    7MOL    H64  796   0.755   0.893   5.675 -1.6102  2.8714  0.3981
    7MOL    H65  797   0.643   0.794   5.579 -1.4788  2.5041 -0.8440
    7MOL    H66  798   0.456   0.919   5.646  0.8475 -0.3525 -2.2819
    7MOL    H67  799   0.559   1.033   5.730  1.6611  2.0792 -1.2455
    7MOL    C68  800   0.579   1.033   5.525 -0.3823  0.0049  0.0123
    7MOL    C69  801   0.698   1.128   5.527  0.1393 -0.4345 -0.2275
    7MOL    H70  802   0.589   0.963   5.442  0.5065 -1.0363  0.9715
    7MOL    H71  803   0.496   1.092   5.488  0.3070  0.1831 -1.3008
    7MOL    H72  804   0.677   1.223   5.575 -0.9992 -0.2733 -1.0200
    7MOL    H73  805   0.779   1.083   5.584 -0.1362 -1.6139 -0.7522
    7MOL    C74  806   0.752   1.164   5.393 -0.8127 -0.2751 -0.0847
    7MOL    C75  807   0.895   1.221   5.388  0.4324  0.0877 -0.1426
    7MOL    H76  808   0.743   1.083   5.320  1.2317 -1.1338  0.5723
    7MOL    H77  809   0.688   1.246   5.361 -1.9719 -1.4496 -0.8146
    7MOL    H78  810   0.900   1.300   5.462  0.6116 -0.9018  0.9117
    7MOL    H79  811   0.970   1.148   5.419  0.9665  1.4161  1.7349
    7MOL    C80  812   0.948   1.269   5.246 -0.7587 -0.1623 -0.9266
    7MOL    C81  813   1.074   1.349   5.248  0.5896 -0.4121 -0.6378
    7MOL    H82  814   0.961   1.177   5.191 -0.7398 -0.2509 -0.7759
    7MOL    H83  815   0.871   1.329   5.198  0.1521  2.2443  0.4863
    7MOL    H84  816   1.056   1.441   5.304  1.1576 -0.9826  0.5138
    7MOL    H85  817   1.147   1.287   5.301 -0.5953 -1.7201 -0.4880
    7MOL    C86  818   1.126   1.363   5.109 -0.0723 -0.3416 -0.0523
    7MOL    C87  819   1.260   1.429   5.112 -0.1225 -0.0766  0.2095
    7MOL    H88  820   1.123   1.275   5.045 -2.0942 -1.5521  1.6222
    7MOL    H89  821   1.056   1.432   5.062 -0.6163  1.6694  3.4658
    7MOL    H90  822   1.261   1.531   5.152  0.3621 -0.7586  2.0111
    7MOL    H91  823   1.333   1.374   5.172 -0.8532  0.9338  2.0603
    7MOL    C92  824   1.319   1.441   4.963 -0.5235 -0.5871  0.2739
    7MOL    C93  825   1.451   1.515   4.963  0.6973  0.1253 -0.0708
    7MOL    H94  826   1.336   1.344   4.917  0.5491 -0.3064  0.0571
    7MOL    H95  827   1.250   1.501   4.904 -0.2169 -0.5629 -0.0560
    7MOL    H96  828   1.441   1.606   5.022 -1.8391  0.6714 -1.2805
    7MOL    H97  829   1.526   1.443   4.996 -1.6014 -1.1636  2.5812
    7MOL    C98  830   1.498   1.556   4.825  0.1247  0.3588  0.0015
    7MOL    C99  831   1.634   1.640   4.830  0.8863 -0.0715 -0.1411
    7MOL   H100  832   1.516   1.469   4.763  0.6424  0.9054 -0.6246
    7MOL   H101  833   1.426   1.620   4.774 -0.8781  0.4877  1.5364
    7MOL   H102  834   1.602   1.740   4.858  1.1579  0.7329 -2.5677
    7MOL   H103  835   1.688   1.604   4.917 -1.3729 -3.1863  0.0760
    7MOL   C104  836   1.705   1.632   4.700 -0.6399 -0.1042 -0.3236
    7MOL   C105  837   1.830   1.715   4.698  0.2835 -0.5817  0.1821
    7MOL   H106  838   1.724   1.528   4.670  1.6650  0.6548 -1.6470
    7MOL   H107  839   1.636   1.663   4.623 -2.6121  2.2882  2.3222
    7MOL   H108  840   1.796   1.818   4.707 -0.5206 -0.9547  1.4530
    7MOL   H109  841   1.886   1.693   4.788 -0.6026 -1.0663  0.6186
    7MOL   C110  842   1.906   1.704   4.565 -0.5518 -1.0539  0.3480
    7MOL   C111  843   2.017   1.807   4.557 -0.1108  0.4461  0.4644
    7MOL   H112  844   1.939   1.602   4.547 -0.1349 -0.8454 -0.0972
    7MOL   H113  845   1.835   1.716   4.483 -2.3065  0.7283  2.0781
    7MOL   H114  846   1.963   1.901   4.551 -1.6442 -0.5644 -2.0366
    7MOL   H115  847   2.097   1.808   4.631 -1.2552 -0.9116  1.7632
    7MOL   C116  848   2.096   1.796   4.422 -0.6122 -0.1534 -0.7378
    7MOL   C117  849   2.174   1.919   4.392 -0.2191  0.0180  0.5000
    7MOL   H118  850   2.162   1.710   4.432  1.1024  1.1231 -1.0688
    7MOL   H119  851   2.029   1.778   4.338  1.0321  1.0590 -2.3327
    7MOL   H120  852   2.114   2.010   4.387 -2.1912 -1.3453 -1.0612
    7MOL   H121  853   2.249   1.945   4.468 -2.0131  1.9826  1.6548
    7MOL   H122  854   2.229   1.891   4.303 -0.2370 -0.3399  0.6010
    8MOL     C1  855   1.477   2.831   0.726  0.2176 -0.2865  0.5707
    8MOL     C2  856   1.435   2.877   0.864 -0.8894 -0.4505 -0.2407
    8MOL     H3  857   1.486   2.919   0.663 -2.5472 -0.8394 -0.6767
    8MOL     H4  858   1.403   2.767   0.678  0.7105 -1.4102  1.2840
    8MOL     H5  859   1.328   2.893   0.881 -1.0513 -1.5245 -0.2180
    8MOL     H6  860   1.441   2.794   0.934 -3.5912  1.7329  2.7036
    8MOL     H7  861   1.574   2.781   0.731  0.2214 -0.3395 -0.0368
    8MOL     C8  862   1.533   2.989   0.905  0.0843  0.0818 -0.0284
    8MOL     C9  863   1.528   3.032   1.048  0.1794 -0.1218 -0.7732
    8MOL    H10  864   1.638   2.977   0.879  0.6868  1.4749  1.6460
    8MOL    H11  865   1.516   3.081   0.849  0.5270  0.3265  0.2325
    8MOL    H12  866   1.431   3.081   1.060 -0.7299 -1.9919 -0.2734
    8MOL    H13  867   1.535   2.947   1.117  1.1891  1.4021  1.0732
    8MOL    C14  868   1.634   3.138   1.081  0.1794  0.5171  0.0456
    8MOL    C15  869   1.620   3.278   1.018 -0.4419 -0.5320 -0.0278
    8MOL    H16  870   1.633   3.160   1.188 -0.7721 -0.5557  0.2711
    8MOL    H17  871   1.732   3.096   1.063 -0.2173 -0.7112  0.6531
    8MOL    H18  872   1.628   3.283   0.910  1.7025  0.5891  0.1591
    8MOL    H19  873   1.521   3.320   1.038 -1.3557 -3.0208  0.8943
    8MOL    C20  874   1.724   3.376   1.074 -0.7221  0.1150  0.7111
    8MOL    C21  875   1.684   3.528   1.039  0.2727  0.0732  0.2814
    8MOL    H22  876   1.744   3.370   1.181  0.3669 -0.7703  0.4600
    8MOL    H23  877   1.817   3.357   1.020 -0.8019  1.0602  0.2274
    8MOL    H24  878   1.652   3.528   0.935 -0.0468 -0.1131  0.3773
    8MOL    H25  879   1.592   3.561   1.087 -0.5375 -3.7278  1.5682
    8MOL    C26  880   1.796   3.631   1.057 -0.4913 -0.5793  0.0423
    8MOL    C27  881   1.746   3.775   1.052  0.3510  0.4811  0.0748
    8MOL    H28  882   1.860   3.612   1.143  0.0844  0.3785 -0.1685
    8MOL    H29  883   1.859   3.618   0.969  2.2608 -0.7034  1.9869
    8MOL    H30  884   1.694   3.800   0.960  1.0403  2.2184  0.1426
    8MOL    H31  885   1.677   3.783   1.136  1.5973  0.4059  1.1203
    8MOL    C32  886   1.864   3.867   1.078  0.2422  0.0343  0.2447
    8MOL    C33  887   1.814   4.006   1.100 -0.5080 -0.3819  0.2840
    8MOL    H34  888   1.923   3.841   1.166  1.5323 -2.9893 -1.4390
    8MOL    H35  889   1.933   3.852   0.995  0.6101  0.5008  0.4672
    8MOL    H36  890   1.734   4.042   1.036  0.6792  1.6673 -0.1158
    8MOL    H37  891   1.783   4.013   1.204 -1.1755  1.2542 -0.0028
    8MOL    C38  892   1.928   4.103   1.059  0.1871 -0.4855 -0.6816
    8MOL    C39  893   1.899   4.249   1.087 -0.1101  0.2193 -0.4870
    8MOL    H40  894   2.015   4.087   1.124  0.1745  2.0941  0.0267
    8MOL    H41  895   1.962   4.096   0.956 -0.2728  1.2259 -0.9692
    8MOL    H42  896   1.798   4.263   1.049  0.1165 -1.0922 -1.6002
    8MOL    H43  897   1.898   4.263   1.195  1.0998 -1.7234 -0.1993
    8MOL    C44  898   1.994   4.350   1.022  0.2884  0.0564 -0.1887
    8MOL    C45  899   2.140   4.326   1.072  0.2304 -0.1314  0.1759
    8MOL    H46  900   1.981   4.359   0.914  0.0847 -0.4541 -0.2100
    8MOL    H47  901   1.957   4.447   1.054  1.9477  1.0397 -1.2293
    8MOL    H48  902   2.152   4.307   1.179 -0.5838  1.7619  0.6251
    8MOL    H49  903   2.193   4.244   1.023  0.4936 -0.7238  1.4407
    8MOL    C50  904   2.227   4.453   1.053  0.9278  0.4364 -0.3516
    8MOL    C51  905   2.370   4.444   1.110  0.1357 -0.5634  0.3886
    8MOL    H52  906   2.228   4.471   0.945 -1.8897  2.0205 -0.1944
    8MOL    H53  907   2.179   4.540   1.100  0.3154 -0.6423  1.0571
    8MOL    H54  908   2.361   4.415   1.215 -1.2117 -0.8899  0.1882
    8MOL    H55  909   2.420   4.367   1.053  0.7762 -0.3662  0.6775
    8MOL    C56  910   2.458   4.574   1.096  0.6808  0.0331  0.7829
    8MOL    C57  911   2.600   4.553   1.149 -0.1359  0.1835  0.8792
    8MOL    H58  912   2.456   4.594   0.989  1.9194  0.3845  0.8137
    8MOL    H59  913   2.419   4.668   1.136  0.5497  0.2688  0.1096
    8MOL    H60  914   2.591   4.526   1.254 -2.5394 -0.7870  0.4543
    8MOL    H61  915   2.638   4.465   1.097  2.5690  0.8730  1.5965
    8MOL    C62  916   2.699   4.671   1.122 -0.2932  0.9444 -0.5847
    8MOL    C63  917   2.667   4.815   1.173  0.6755 -0.2740  0.0477
    8MOL    H64  918   2.800   4.635   1.143 -0.7878 -0.6496 -0.9223
    8MOL    H65  919   2.703   4.681   1.014 -2.8206 -0.6016 -0.8503
    8MOL    H66  920   2.577   4.850   1.123  1.4024 -1.1383 -1.9181
    8MOL    H67  921   2.640   4.799   1.278  0.2939 -1.0374 -0.1606
    8MOL    C68  922   2.782   4.912   1.166 -0.6774 -0.0097 -1.0628
    8MOL    C69  923   2.754   5.060   1.213 -0.0535  0.2935  0.5880
    8MOL    H70  924   2.874   4.865   1.200 -1.1971  0.6840  1.3987
    8MOL    H71  925   2.791   4.909   1.058  0.2735 -1.2421 -0.9677
    8MOL    H72  926   2.661   5.088   1.166 -0.2374  3.7529  2.8407
    8MOL    H73  927   2.748   5.065   1.322  2.1984  2.1393  0.6738
    8MOL    C74  928   2.860   5.164   1.168  0.1704  0.0540 -0.5718
    8MOL    C75  929   2.817   5.305   1.201  0.0173 -0.4818 -0.3268
    8MOL    H76  930   2.954   5.148   1.222 -1.0790  0.4253  1.7862
    8MOL    H77  931   2.877   5.150   1.062 -2.2597  1.6294 -1.2051
    8MOL    H78  932   2.713   5.327   1.177 -0.4536 -0.1733  1.9190
    8MOL    H79  933   2.836   5.323   1.307 -2.6981 -1.9459  0.4462
    8MOL    C80  934   2.900   5.412   1.122 -0.5047  0.4081  0.3182
    8MOL    C81  935   2.868   5.559   1.149 -0.4235  0.4057 -0.5858
    8MOL    H82  936   3.004   5.408   1.155 -0.6489  0.6724  0.8096
    8MOL    H83  937   2.899   5.397   1.014 -0.2403 -0.2538  0.4069
    8MOL    H84  938   2.762   5.574   1.127 -0.3547  0.7104 -0.7046
    8MOL    H85  939   2.885   5.577   1.255  0.1417 -1.2423 -0.3731
    8MOL    C86  940   2.937   5.670   1.061  0.0156 -0.6407  0.8787
    8MOL    C87  941   2.893   5.812   1.103  0.3627 -0.4816 -0.4032
    8MOL    H88  942   3.044   5.658   1.077  0.1783 -1.2994 -0.6776
    8MOL    H89  943   2.913   5.665   0.955 -3.3851  0.2564  1.5647
    8MOL    H90  944   2.793   5.828   1.062  1.1366  4.2918 -0.6058
    8MOL    H91  945   2.902   5.823   1.211 -2.6012 -0.0424 -0.1641
    8MOL    C92  946   2.989   5.923   1.046 -0.3533  0.0259 -0.1541
    8MOL    C93  947   2.953   6.064   1.099 -0.0902  0.1039  0.5514
    8MOL    H94  948   3.090   5.902   1.081 -0.1480  0.8017 -0.2711
    8MOL    H95  949   2.982   5.904   0.939 -0.7830 -3.6286  0.4399
    8MOL    H96  950   2.847   6.078   1.083  0.2382  0.1908 -1.6251
    8MOL    H97  951   2.984   6.078   1.203  0.6950  0.3418  0.2899
    8MOL    C98  952   3.017   6.183   1.028 -0.4837  0.6322 -0.1067
    8MOL    C99  953   2.990   6.323   1.080  0.1246 -0.5189  0.2294
    8MOL   H100  954   3.123   6.176   1.053  0.0627  2.7121 -1.7153
    8MOL   H101  955   3.003   6.186   0.920 -2.4843  3.3585  0.1849
    8MOL   H102  956   2.883   6.339   1.068  0.4972  0.8160 -1.5281
    8MOL   H103  957   3.006   6.334   1.187 -0.6546  4.4274 -0.0221
    8MOL   C104  958   3.074   6.431   1.006  0.7417 -0.3371  0.0534
    8MOL   C105  959   3.004   6.491   0.891 -0.2619 -0.3289 -0.2804
    8MOL   H106  960   3.105   6.512   1.072 -1.1037  1.6209 -1.4303
    8MOL   H107  961   3.161   6.379   0.965  1.7757 -1.1555  3.0933
    8MOL   H108  962   2.970   6.407   0.831 -2.5345 -0.2508  0.8480
    8MOL   H109  963   2.914   6.542   0.924 -1.2335 -1.6899 -0.7916
    8MOL   C110  964   3.096   6.576   0.806 -0.0244  0.5416  0.4214
    8MOL   C111  965   3.045   6.618   0.666 -0.3746 -0.6520 -0.0972
    8MOL   H112  966   3.118   6.675   0.845  0.1705  1.5030 -2.0365
    8MOL   H113  967   3.193   6.531   0.788 -0.9676 -1.2827 -0.2425
    8MOL   H114  968   3.119   6.674   0.608  0.6275 -1.2732  0.5643
    8MOL   H115  969   3.014   6.537   0.599 -0.4112 -0.6052 -0.1368
    8MOL   C116  970   2.924   6.712   0.671 -0.3319  0.2030  0.3544
    8MOL   C117  971   2.890   6.775   0.534  0.2428  0.0176 -0.0980
    8MOL   H118  972   2.834   6.654   0.693 -1.0427  2.1100  2.7609
    8MOL   H119  973   2.937   6.790   0.746  1.3131 -2.1335  2.5797
    8MOL   H120  974   2.957   6.853   0.498 -3.0847  2.3610 -1.3949
    8MOL   H121  975   2.886   6.701   0.454 -0.5351  0.3164 -0.3355
    8MOL   H122  976   2.798   6.832   0.531  0.0647 -0.2541  0.2163
    9MOL     C1  977   1.122   4.495   5.521 -0.3741 -0.1068 -0.1202
    9MOL     C2  978   1.234   4.556   5.600 -0.0195  0.2013 -0.2116
    9MOL     H3  979   1.100   4.404   5.577  0.0227  1.2003  2.2082
    9MOL     H4  980   1.142   4.492   5.414  0.3413  1.7532 -0.0599
    9MOL     H5  981   1.253   4.509   5.696 -1.1641  0.3603  0.0924
    9MOL     H6  982   1.323   4.540   5.539  1.1266  1.5705  1.0510
    9MOL     H7  983   1.031   4.555   5.529  0.3601  1.3757 -2.3122
    9MOL     C8  984   1.204   4.697   5.644  0.4411  0.5409  0.1628
    9MOL     C9  985   1.240   4.802   5.540 -0.2317  0.0207 -0.6540
    9MOL    H10  986   1.101   4.708   5.680  0.0397  0.6746 -0.9858
    9MOL    H11  987   1.261   4.721   5.733  0.4645 -0.5632  0.4487
    9MOL    H12  988   1.342   4.795   5.502  0.5466  0.4821  1.2510
    9MOL    H13  989   1.188   4.785   5.446  0.2477  0.0187 -0.9222
    9MOL    C14  990   1.209   4.946   5.590  0.5032  0.2364  0.2145
    9MOL    C15  991   1.325   5.003   5.667 -0.3387  0.1057 -0.3175
    9MOL    H16  992   1.201   4.996   5.493 -1.1201 -0.2913  0.0623
    9MOL    H17  993   1.114   4.946   5.644 -0.1645 -0.3852 -0.9413
    9MOL    H18  994   1.330   4.962   5.768 -1.2320 -0.9334 -0.6849
    9MOL    H19  995   1.416   4.976   5.613 -0.6080 -0.1872 -0.6262
    9MOL    C20  996   1.313   5.151   5.684 -0.6867 -0.9000 -0.4515
    9MOL    C21  997   1.444   5.218   5.727  0.4085 -0.1316  0.1716
    9MOL    H22  998   1.286   5.196   5.588  0.1604 -0.0844 -0.3025
    9MOL    H23  999   1.225   5.158   5.748 -0.9763  0.0738 -0.9546
    9MOL    H24 1000   1.482   5.172   5.818  1.7747 -2.3118 -1.4311
    9MOL    H25 1001   1.534   5.203   5.667 -0.3041  0.6069 -1.1066
    9MOL    C26 1002   1.429   5.364   5.757  0.2453  0.1775 -0.2818
    9MOL    C27 1003   1.535   5.413   5.852  0.4502  0.9107 -0.5168
    9MOL    H28 1004   1.426   5.421   5.665 -1.2726  1.9817  0.8419
    9MOL    H29 1005   1.332   5.388   5.801  0.3733 -0.4852  0.3807
    9MOL    H30 1006   1.547   5.347   5.938 -1.9437 -0.6220 -1.3249
    9MOL    H31 1007   1.628   5.413   5.794  1.1324 -1.3366  0.5031
    9MOL    C32 1008   1.511   5.551   5.901  0.4269 -0.1388  0.2513
    9MOL    C33 1009   1.642   5.620   5.934 -0.5411 -0.4378 -0.3638
    9MOL    H34 1010   1.449   5.616   5.840 -0.3485 -0.0275  1.1434
    9MOL    H35 1011   1.458   5.533   5.995 -1.7694  3.2970 -0.2324
    9MOL    H36 1012   1.691   5.568   6.016  1.5510 -0.3858 -1.5508
    9MOL    H37 1013   1.710   5.608   5.850 -1.5672 -0.2606 -1.2275
    9MOL    C38 1014   1.628   5.768   5.969  0.3776 -0.8657 -0.5596
    9MOL    C39 1015   1.764   5.846   5.965 -0.1521 -0.4394  0.8906
    9MOL    H40 1016   1.572   5.813   5.887 -0.1931  0.6104  0.6259
    9MOL    H41 1017   1.570   5.786   6.059  1.3797  2.6672 -0.5342
    9MOL    H42 1018   1.829   5.806   6.043  0.5223  1.2173  1.1798
    9MOL    H43 1019   1.826   5.818   5.880  0.2013  1.6823  0.4277
    9MOL    C44 1020   1.752   5.995   5.994  0.5877  0.0935  0.4730
    9MOL    C45 1021   1.884   6.068   5.995 -0.0823 -0.6208  0.0753
    9MOL    H46 1022   1.681   6.028   5.918  2.2055  2.2300 -0.1381
    9MOL    H47 1023   1.695   6.008   6.086 -0.0591  1.4344 -0.1029
    9MOL    H48 1024   1.937   6.050   6.088 -0.3273  1.5771  0.6712
    9MOL    H49 1025   1.955   6.051   5.913  1.9397  0.5687  1.5324
    9MOL    C50 1026   1.863   6.220   5.993 -0.3459 -0.2220 -0.0531
    9MOL    C51 1027   1.992   6.299   6.027 -0.7382 -0.3401 -0.2123
    9MOL    H52 1028   1.820   6.241   5.895 -0.9274  1.0398  0.4554
    9MOL    H53 1029   1.782   6.251   6.058 -0.7153  0.7834 -0.9748
    9MOL    H54 1030   2.018   6.279   6.131 -2.4588 -1.5949  0.0127
    9MOL    H55 1031   2.078   6.269   5.968 -1.2987 -1.9471 -0.2343
    9MOL    C56 1032   1.980   6.450   6.012 -0.3714 -0.0008  0.0036
    9MOL    C57 1033   2.112   6.517   5.989 -0.2888  0.0795 -0.0237
    9MOL    H58 1034   1.897   6.485   5.950 -0.7022 -0.0748  0.3955
    9MOL    H59 1035   1.938   6.476   6.109 -0.8924  3.0037 -0.9862
    9MOL    H60 1036   2.166   6.448   5.924 -2.5992 -1.4244 -0.4023
    9MOL    H61 1037   2.097   6.610   5.935  0.3858  0.0730 -0.2369
    9MOL    C62 1038   2.209   6.553   6.107 -0.1692 -0.0814 -0.1747
    9MOL    C63 1039   2.332   6.618   6.061  0.2006  0.5648 -0.5676
    9MOL    H64 1040   2.162   6.618   6.181  0.1410 -1.2131  1.0435
    9MOL    H65 1041   2.246   6.461   6.151 -0.4382 -0.1356 -0.0549
    9MOL    H66 1042   2.376   6.546   5.991  0.1772 -1.3775  1.3637
    9MOL    H67 1043   2.316   6.712   6.008 -0.2196  0.8039 -0.0150
    9MOL    C68 1044   2.435   6.635   6.174 -0.8974  0.5295  0.1706
    9MOL    C69 1045   2.571   6.671   6.107 -0.4139 -0.1556 -0.3183
    9MOL    H70 1046   2.409   6.716   6.243 -0.4467  1.3959 -0.6691
    9MOL    H71 1047   2.442   6.549   6.240 -0.9366  0.6453  0.3258
    9MOL    H72 1048   2.595   6.592   6.036  0.0853  0.2833 -0.6434
    9MOL    H73 1049   2.565   6.773   6.070  0.3261 -0.0971 -0.2884
    9MOL    C74 1050   2.674   6.673   6.219  0.4959 -0.1983  0.4771
    9MOL    C75 1051   2.811   6.739   6.192  0.0519 -0.1057  0.1370
    9MOL    H76 1052   2.627   6.717   6.307  0.2171  0.5164 -0.0254
    9MOL    H77 1053   2.696   6.570   6.245  3.4835  0.5839  1.1560
    9MOL    H78 1054   2.861   6.683   6.113  0.1517  0.2721 -0.0668
    9MOL    H79 1055   2.781   6.835   6.150 -0.4586 -0.1291  0.4450
    9MOL    C80 1056   2.903   6.763   6.320  0.2147 -0.5314  0.0911
    9MOL    C81 1057   2.919   6.652   6.410  0.5358 -0.0534  0.3914
    9MOL    H82 1058   2.999   6.796   6.279  1.0282 -0.7287  1.7922
    9MOL    H83 1059   2.863   6.844   6.380 -0.5473 -0.7261 -0.1440
    9MOL    H84 1060   2.823   6.632   6.456  0.2333  0.5158  0.0131
    9MOL    H85 1061   2.960   6.575   6.345 -0.6039  0.7321 -1.2735
    9MOL    C86 1062   3.026   6.678   6.523  0.6738  0.1087 -0.0082
    9MOL    C87 1063   3.055   6.568   6.617  0.0482  1.3349 -0.0922
    9MOL    H88 1064   3.125   6.712   6.495  0.9979  3.0884  4.2438
    9MOL    H89 1065   2.981   6.760   6.580  0.6965 -0.1926  0.4390
    9MOL    H90 1066   3.083   6.612   6.712  4.4755 -1.7993  0.1812
    9MOL    H91 1067   2.964   6.510   6.634  0.5436  0.5981  0.0283
    9MOL    C92 1068   3.167   6.484   6.567 -0.3898  0.2202  0.7323
    9MOL    C93 1069   3.197   6.365   6.665  0.3411  0.0766 -0.0986
    9MOL    H94 1070   3.145   6.452   6.465  2.6712  1.2425 -0.3186
    9MOL    H95 1071   3.252   6.551   6.582 -0.3205 -0.2243  2.4855
    9MOL    H96 1072   3.214   6.388   6.770 -1.1535  1.0615 -0.0690
    9MOL    H97 1073   3.108   6.302   6.658  0.2018  0.3106 -0.4015
    9MOL    C98 1074   3.315   6.281   6.608 -0.2445 -0.5794  0.0477
    9MOL    C99 1075   3.334   6.156   6.699  0.1257 -0.4511 -0.4242
    9MOL   H100 1076   3.298   6.249   6.505 -0.8471  2.1252 -0.7445
    9MOL   H101 1077   3.407   6.338   6.601  0.4387 -1.7281 -0.3398
    9MOL   H102 1078   3.343   6.196   6.799  2.4716 -0.8271 -0.4529
    9MOL   H103 1079   3.246   6.091   6.695 -0.9575  0.8031  2.2496
    9MOL   C104 1080   3.467   6.079   6.679 -0.2742  0.4266  0.7188
    9MOL   C105 1081   3.482   5.963   6.781  0.1563  0.4419 -0.0580
    9MOL   H106 1082   3.464   6.040   6.577 -0.8832  0.4330  0.7342
    9MOL   H107 1083   3.556   6.141   6.691 -0.2384  0.3645  0.7692
    9MOL   H108 1084   3.512   6.005   6.877 -0.6793  1.4323 -0.2318
    9MOL   H109 1085   3.392   5.903   6.785 -0.1820  0.8378 -1.4961
    9MOL   C110 1086   3.596   5.860   6.735  0.6174  0.2049 -0.7442
    9MOL   C111 1087   3.607   5.744   6.835 -0.5551 -0.5609 -0.4067
    9MOL   H112 1088   3.561   5.808   6.645  1.1687 -1.3418 -0.0864
    9MOL   H113 1089   3.699   5.896   6.733  0.2343  1.2643 -2.6555
    9MOL   H114 1090   3.608   5.791   6.933 -1.3900 -2.6117  0.6069
    9MOL   H115 1091   3.514   5.687   6.832 -1.4585  0.6492  2.5929
    9MOL   C116 1092   3.729   5.649   6.828  0.2887  0.2099  0.0853
    9MOL   C117 1093   3.721   5.561   6.701 -0.2040  0.4925  0.1738
    9MOL   H118 1094   3.817   5.714   6.829  0.4684 -0.0292  1.5108
    9MOL   H119 1095   3.712   5.589   6.917  0.0419 -0.6860 -0.5585
    9MOL   H120 1096   3.698   5.617   6.610 -1.2200 -0.2406 -0.0256
    9MOL   H121 1097   3.814   5.505   6.692  0.3295  1.6196 -1.4325
    9MOL   H122 1098   3.627   5.507   6.707  0.2320 -0.5346 -1.9832
   10MOL     C1 1099   4.362   0.209   2.709  0.4511  0.7114 -0.1848
   10MOL     C2 1100   4.224   0.143   2.687 -0.7942  0.0246 -0.2662
   10MOL     H3 1101   4.425   0.214   2.621  1.1132  1.7743  0.3427
   10MOL     H4 1102   4.420   0.161   2.787  0.8396  0.9014 -0.3584
   10MOL     H5 1103   4.171   0.150   2.782  0.7843 -0.4111  0.6670
   10MOL     H6 1104   4.169   0.205   2.616 -1.2809 -0.5214 -0.3733
   10MOL     H7 1105   4.346   0.313   2.739  2.2249  0.7830  0.5383
   10MOL     C8 1106   4.237   0.005   2.617 -0.0322  0.2565 -0.0638
   10MOL     C9 1107   4.100   7.626   2.617 -0.7090 -0.1553 -0.5645
   10MOL    H10 1108   4.275   0.014   2.515 -0.8309 -0.6512 -0.4466
   10MOL    H11 1109   4.307   7.640   2.678 -1.8989 -2.0922 -0.0419
   10MOL    H12 1110   4.057   7.645   2.716  1.3005  1.4267  0.0583
   10MOL    H13 1111   4.037   7.682   2.548 -0.7995  0.3457 -0.0804
   10MOL    C14 1112   4.110   7.473   2.589  0.2626 -0.5908  0.2618
   10MOL    C15 1113   3.979   7.397   2.615 -0.5795 -0.6193 -0.3316
   10MOL    H16 1114   4.154   7.451   2.491  1.1462  0.5623  0.3866
   10MOL    H17 1115   4.186   7.441   2.661  0.2128 -1.1150  0.0884
   10MOL    H18 1116   3.960   7.405   2.722  1.3581 -1.7684  0.1191
   10MOL    H19 1117   3.902   7.451   2.559 -0.0130  1.7978  1.1487
   10MOL    C20 1118   4.001   7.251   2.582  0.8391  0.4221 -0.4402
   10MOL    C21 1119   3.872   7.162   2.590  0.1112  0.1414  0.0790
   10MOL    H22 1120   4.044   7.249   2.482 -0.4720 -1.6287 -0.9816
   10MOL    H23 1121   4.068   7.209   2.657  0.4575 -0.6434 -0.6947
   10MOL    H24 1122   3.814   7.207   2.670 -0.4230  0.8173 -0.6848
   10MOL    H25 1123   3.818   7.166   2.495  1.3838  0.2655 -0.6538
   10MOL    C26 1124   3.897   7.013   2.623 -0.0924  0.5902  0.5056
   10MOL    C27 1125   3.763   6.946   2.659 -0.3413  0.3726  0.0205
   10MOL    H28 1126   3.939   6.970   2.532  2.3655  0.6290  1.5809
   10MOL    H29 1127   3.968   6.995   2.705 -0.4007 -0.3319  0.5728
   10MOL    H30 1128   3.739   6.986   2.758 -1.9979 -1.9802  0.6110
   10MOL    H31 1129   3.676   6.975   2.599 -1.8407 -1.1800  1.3919
   10MOL    C32 1130   3.766   6.791   2.646 -0.3098  0.4340  0.4993
   10MOL    C33 1131   3.857   6.710   2.744  0.2014 -0.4181 -0.0415
   10MOL    H34 1132   3.662   6.766   2.662 -0.7742  0.6822 -1.8959
   10MOL    H35 1133   3.790   6.770   2.542 -0.5004 -3.5982  1.1940
   10MOL    H36 1134   3.963   6.724   2.725  0.4529 -0.7159  1.0923
   10MOL    H37 1135   3.837   6.746   2.845  0.5911 -0.5013  0.0665
   10MOL    C38 1136   3.826   6.559   2.735  0.4767  0.6107  0.4080
   10MOL    C39 1137   3.682   6.524   2.787  0.5177 -1.0801 -1.2258
   10MOL    H40 1138   3.810   6.525   2.632  0.6359 -0.4907  0.7499
   10MOL    H41 1139   3.904   6.498   2.780  0.3185  0.2658  0.2154
   10MOL    H42 1140   3.669   6.585   2.876  0.6169 -0.1444 -1.8549
   10MOL    H43 1141   3.595   6.562   2.735  0.4968 -1.0713 -1.1853
   10MOL    C44 1142   3.668   6.372   2.820  0.5334 -0.0442  0.4213
   10MOL    C45 1143   3.528   6.337   2.866  0.3236 -0.1101  0.2159
   10MOL    H46 1144   3.705   6.312   2.738 -1.6200  0.2368 -0.7971
   10MOL    H47 1145   3.733   6.348   2.905  0.3402 -1.5355  0.1705
   10MOL    H48 1146   3.517   6.380   2.965  1.3966 -0.5307  0.5270
   10MOL    H49 1147   3.448   6.385   2.810  0.1770  0.2379  0.7247
   10MOL    C50 1148   3.504   6.184   2.875 -0.0788 -0.8707  0.0650
   10MOL    C51 1149   3.367   6.136   2.924  0.4117 -0.4081  1.0291
   10MOL    H52 1150   3.525   6.137   2.779 -0.4928  0.7971 -0.8504
   10MOL    H53 1151   3.574   6.134   2.942 -1.7334  0.3832  2.8561
   10MOL    H54 1152   3.355   6.178   3.024 -0.0210 -2.2428  1.7580
   10MOL    H55 1153   3.290   6.184   2.864  3.1906  0.9151 -1.6569
   10MOL    C56 1154   3.342   5.985   2.925  0.5399 -0.6760 -0.2608
   10MOL    C57 1155   3.207   5.940   2.989  0.0693 -0.2636 -0.7357
   10MOL    H58 1156   3.360   5.948   2.824 -0.5638 -1.0047 -0.3402
   10MOL    H59 1157   3.417   5.929   2.982 -0.4909 -2.2801 -0.4484
   10MOL    H60 1158   3.191   5.985   3.087 -0.5068  2.7119 -2.1231
   10MOL    H61 1159   3.120   5.987   2.942 -0.1599  1.7236  1.5547
   10MOL    C62 1160   3.196   5.784   2.983  0.7032 -0.1480 -0.0698
   10MOL    C63 1161   3.054   5.728   3.002  0.2462  0.4633 -0.6904
   10MOL    H64 1162   3.254   5.729   2.909 -0.2714 -2.9149  1.1605
   10MOL    H65 1163   3.240   5.747   3.076 -1.0235  1.1559  1.3172
   10MOL    H66 1164   2.980   5.803   3.028 -0.5586 -0.6119  0.1410
   10MOL    H67 1165   3.011   5.691   2.909 -1.1201  0.3496 -0.0159
   10MOL    C68 1166   3.054   5.608   3.110 -0.1000  0.7937  0.6030
   10MOL    C69 1167   2.919   5.538   3.137  0.9144  0.6200 -0.6244
   10MOL    H70 1168   3.126   5.545   3.059 -0.4491  2.6908 -2.3525
   10MOL    H71 1169   3.094   5.645   3.205  0.7185  1.3869  0.0261
   10MOL    H72 1170   2.863   5.622   3.177  1.3057  1.3466 -1.5785
   10MOL    H73 1171   2.875   5.512   3.040 -0.0379 -1.4821  0.3398
   10MOL    C74 1172   2.909   5.421   3.237 -0.0741 -0.4637  0.5907
   10MOL    C75 1173   2.767   5.387   3.259 -0.1044  0.3195  0.3475
   10MOL    H76 1174   2.959   5.330   3.203  0.3244 -1.3762  3.4396
   10MOL    H77 1175   2.954   5.447   3.333  1.9177 -0.6954 -0.2513
   10MOL    H78 1176   2.734   5.458   3.335 -3.4904 -0.4918 -0.2970
   10MOL    H79 1177   2.710   5.382   3.166 -2.1074  0.1037  1.5527
   10MOL    C80 1178   2.739   5.251   3.336 -0.4466 -0.3249 -0.3588
   10MOL    C81 1179   2.791   5.119   3.268 -0.0982 -0.7021 -0.5372
   10MOL    H82 1180   2.767   5.268   3.440  0.4926 -1.1469 -0.4768
   10MOL    H83 1181   2.631   5.242   3.338 -0.6311  1.9278  2.4205
   10MOL    H84 1182   2.766   5.118   3.162 -0.9073  0.0973 -0.3555
   10MOL    H85 1183   2.900   5.113   3.266 -0.0436 -0.6596  1.4421
   10MOL    C86 1184   2.735   4.999   3.340  0.0188  0.3591 -0.2388
   10MOL    C87 1185   2.776   4.873   3.262  0.3427 -0.3024  0.2541
   10MOL    H88 1186   2.762   5.017   3.444 -1.0312 -0.5303  0.1974
   10MOL    H89 1187   2.626   5.001   3.345 -0.2077 -0.8101 -3.8133
   10MOL    H90 1188   2.733   4.873   3.162  1.2236 -1.1180 -0.1312
   10MOL    H91 1189   2.885   4.873   3.264  0.3709  0.6175 -0.6738
   10MOL    C92 1190   2.731   4.737   3.323 -0.2896  0.2672 -0.2274
   10MOL    C93 1191   2.775   4.614   3.252 -0.7893  0.1479  0.2480
   10MOL    H94 1192   2.765   4.740   3.427  0.2960 -2.2380 -0.2910
   10MOL    H95 1193   2.623   4.729   3.328 -0.3568  2.3607  2.2747
   10MOL    H96 1194   2.746   4.629   3.148  0.3223 -0.1895 -0.1123
   10MOL    H97 1195   2.881   4.623   3.229 -1.0641  1.7333 -0.4631
   10MOL    C98 1196   2.735   4.479   3.321  0.0015  0.5242 -0.0697
   10MOL    C99 1197   2.775   4.357   3.238 -0.1714  0.1669  0.1322
   10MOL   H100 1198   2.777   4.483   3.422  1.7797  1.4243 -0.8217
   10MOL   H101 1199   2.628   4.475   3.339  0.1019 -5.1456  0.2505
   10MOL   H102 1200   2.737   4.360   3.136 -0.2113  1.1855  0.1744
   10MOL   H103 1201   2.882   4.344   3.229  0.0373  1.2355  1.0345
   10MOL   C104 1202   2.728   4.224   3.302  0.1326  0.0832 -0.5390
   10MOL   C105 1203   2.753   4.096   3.216 -0.1342  0.1992  0.7848
   10MOL   H106 1204   2.770   4.214   3.402 -0.2533 -0.3046 -0.4166
   10MOL   H107 1205   2.621   4.222   3.321  0.2281  0.2068  0.0278
   10MOL   H108 1206   2.696   4.104   3.124  1.5038  0.9505 -0.1833
   10MOL   H109 1207   2.856   4.084   3.183  0.2241 -0.6146  2.1790
   10MOL   C110 1208   2.713   3.979   3.300 -0.0995  0.5504 -0.0801
   10MOL   C111 1209   2.707   3.847   3.228 -0.1668 -0.0361 -0.3155
   10MOL   H112 1210   2.785   3.963   3.381  0.2657 -1.7893 -0.8513
   10MOL   H113 1211   2.613   3.992   3.340 -0.1376 -0.5241  0.1873
   10MOL   H114 1212   2.691   3.772   3.306  0.2899  1.0522  0.8582
   10MOL   H115 1213   2.612   3.842   3.175 -0.9961  1.9814  0.9156
   10MOL   C116 1214   2.832   3.814   3.142 -0.2453 -0.3800 -0.2050
   10MOL   C117 1215   2.787   3.750   3.010 -0.1387 -0.3778  0.2670
   10MOL   H118 1216   2.903   3.896   3.124 -1.1053  0.4537  0.1445
   10MOL   H119 1217   2.898   3.740   3.188 -0.0105  1.1678  2.0845
   10MOL   H120 1218   2.743   3.811   2.932 -0.9416 -1.4416 -0.1294
   10MOL   H121 1219   2.869   3.696   2.963 -1.5012 -0.4814 -2.0320
   10MOL   H122 1220   2.716   3.668   3.021  0.9363 -1.2503  0.8704
   11MOL     C1 1221   7.191   6.267   6.064  0.2863 -0.0296 -0.8942
   11MOL     C2 1222   7.336   6.228   6.087 -0.6886 -0.0969  0.1740
   11MOL     H3 1223   7.153   6.309   6.157  1.5943  0.9575 -0.7913
   11MOL     H4 1224   7.134   6.177   6.041 -2.5890  0.7914  2.5254
   11MOL     H5 1225   7.342   6.156   6.169 -0.8684 -0.9046 -0.5282
   11MOL     H6 1226   7.386   6.186   6.001  1.3442  0.4870  1.0284
   11MOL     H7 1227   7.169   6.349   5.995 -0.9580  1.6302  1.3964
   11MOL     C8 1228   7.426   6.350   6.141  0.6974  0.0681  0.9053
   11MOL     C9 1229   7.572   6.312   6.162  0.2833  0.5750 -0.0726
   11MOL    H10 1230   7.419   6.434   6.071 -1.2787  0.5262  1.6433
   11MOL    H11 1231   7.387   6.387   6.235  2.1468  0.0162  1.5452
   11MOL    H12 1232   7.582   6.246   6.248  2.8708  2.2609  0.9915
   11MOL    H13 1233   7.613   6.260   6.076 -2.5218  1.5404 -2.0567
   11MOL    C14 1234   7.677   6.425   6.193 -0.3004  0.3300 -0.6187
   11MOL    C15 1235   0.119   6.366   6.225  0.1003  0.3257 -0.7967
   11MOL    H16 1236   7.683   6.493   6.108  0.2946  1.0618  0.0019
   11MOL    H17 1237   7.651   6.485   6.280  0.7953  1.0483 -0.7704
   11MOL    H18 1238   0.118   6.305   6.316  1.0805 -1.8586 -2.2131
   11MOL    H19 1239   0.153   6.307   6.140  0.6741 -0.7122  0.1378
   11MOL    C20 1240   0.235   6.475   6.257  0.6469 -0.4210  0.2185
   11MOL    C21 1241   0.371   6.407   6.296  0.6117  0.3019 -0.6829
   11MOL    H22 1242   0.252   6.543   6.173 -0.3071  0.2513  0.5614
   11MOL    H23 1243   0.186   6.538   6.331 -0.5300 -0.0156 -0.8754
   11MOL    H24 1244   0.354   6.362   6.394 -2.2712 -1.7925 -2.0701
   11MOL    H25 1245   0.411   6.332   6.228  0.5830  0.6282 -1.0596
   11MOL    C26 1246   0.479   6.517   6.344 -0.4775 -0.0226  0.1843
   11MOL    C27 1247   0.613   6.462   6.402  0.0499  0.1526 -0.2734
   11MOL    H28 1248   0.517   6.580   6.264 -1.4373 -0.3903 -0.5791
   11MOL    H29 1249   0.432   6.581   6.418  0.8981  2.6473 -1.1815
   11MOL    H30 1250   0.584   6.384   6.473 -0.8457 -1.1849 -2.0871
   11MOL    H31 1251   0.661   6.396   6.331 -0.6513  1.0344 -1.5777
   11MOL    C32 1252   0.716   6.569   6.455  0.1211  0.4273  0.1832
   11MOL    C33 1253   0.842   6.506   6.521 -0.3140 -0.8160  0.7144
   11MOL    H34 1254   0.749   6.629   6.370  1.7628 -1.9606 -0.9045
   11MOL    H35 1255   0.670   6.642   6.522  0.3611 -0.4574  1.3348
   11MOL    H36 1256   0.810   6.445   6.605  0.8289 -2.5349 -0.0723
   11MOL    H37 1257   0.877   6.442   6.439  0.1440  4.1003 -3.1956
   11MOL    C38 1258   0.947   6.610   6.562 -0.0362 -0.3249  0.4916
   11MOL    C39 1259   1.077   6.553   6.630  0.2660  0.5279  0.4528
   11MOL    H40 1260   0.967   6.678   6.479 -1.3620  0.0635  0.4896
   11MOL    H41 1261   0.894   6.674   6.633 -1.0360  2.9780 -3.0862
   11MOL    H42 1262   1.036   6.508   6.720  2.7030  0.3057  1.4869
   11MOL    H43 1263   1.119   6.478   6.562 -1.0936 -0.6600  0.8940
   11MOL    C44 1264   1.185   6.662   6.653  0.0996 -0.2402 -0.1743
   11MOL    C45 1265   1.320   6.597   6.694 -0.1373 -0.0488 -0.2258
   11MOL    H46 1266   1.196   6.725   6.565  0.4987 -0.7559 -0.4882
   11MOL    H47 1267   1.152   6.723   6.738 -0.6734 -1.6866  0.5705
   11MOL    H48 1268   1.291   6.514   6.758 -2.2871  0.8628  0.0313
   11MOL    H49 1269   1.368   6.574   6.598 -1.4816  1.7792 -1.3709
   11MOL    C50 1270   1.405   6.696   6.775  0.3021  0.3000  1.2479
   11MOL    C51 1271   1.546   6.648   6.815  0.0748  0.3242 -0.9051
   11MOL    H52 1272   1.413   6.793   6.726  1.0466 -0.6143 -0.4870
   11MOL    H53 1273   1.347   6.708   6.867 -0.3458 -1.4335  1.0818
   11MOL    H54 1274   1.527   6.560   6.877 -2.6255  0.9110 -0.8756
   11MOL    H55 1275   1.601   6.626   6.724 -0.7286 -0.0868 -1.2957
   11MOL    C56 1276   1.622   6.754   6.897 -0.0042 -0.7443 -0.6347
   11MOL    C57 1277   1.773   6.721   6.920  0.4224  0.1282 -0.1826
   11MOL    H58 1278   1.610   6.847   6.841  1.3418  0.4623  1.0100
   11MOL    H59 1279   1.589   6.768   7.000 -0.3430 -0.3574 -0.7941
   11MOL    H60 1280   1.776   6.628   6.976 -0.8092  1.6705  2.5330
   11MOL    H61 1281   1.813   6.706   6.820  0.6623  1.7753 -0.3482
   11MOL    C62 1282   1.859   6.818   7.007  0.1438 -0.0827 -0.0218
   11MOL    C63 1283   2.003   6.759   7.031  0.7058  0.5193 -0.1323
   11MOL    H64 1284   1.863   6.908   6.946 -1.1164 -0.3082 -0.4389
   11MOL    H65 1285   1.809   6.839   7.101 -0.8007 -1.1113 -0.2895
   11MOL    H66 1286   1.987   6.672   7.094 -0.0669  1.2624  0.6994
   11MOL    H67 1287   2.042   6.723   6.936 -3.1379 -0.6885 -1.2974
   11MOL    C68 1288   2.085   6.866   7.087 -0.2140  0.4239 -0.4012
   11MOL    C69 1289   2.230   6.810   7.128  0.1547 -0.0446  0.4326
   11MOL    H70 1290   2.101   6.932   7.002 -0.8363  1.0767 -0.0193
   11MOL    H71 1291   2.032   6.921   7.165  0.5984  1.0508 -0.2738
   11MOL    H72 1292   2.221   6.716   7.183  2.0366  0.6216  1.9462
   11MOL    H73 1293   2.285   6.777   7.040 -0.3457  0.4289 -0.0646
   11MOL    C74 1294   2.312   6.911   7.213 -0.1076  0.9870  0.0288
   11MOL    C75 1295   2.445   6.861   7.264 -0.9186 -0.3900 -0.0752
   11MOL    H76 1296   2.320   7.001   7.152  1.1467  0.5359 -0.5016
   11MOL    H77 1297   2.249   6.949   7.293  1.2532  0.8746  1.1647
   11MOL    H78 1298   2.442   6.758   7.299  1.0202  0.3831  2.5609
   11MOL    H79 1299   2.517   6.877   7.183 -2.0256  0.8850 -0.8129
   11MOL    C80 1300   2.500   6.943   7.385 -0.1715 -0.3843 -0.3256
   11MOL    C81 1301   2.571   7.074   7.339 -0.8269  0.2555  0.6198
   11MOL    H82 1302   2.423   6.958   7.461 -0.7652 -1.8469 -0.6149
   11MOL    H83 1303   2.574   6.878   7.430 -2.1961 -1.8205  1.0349
   11MOL    H84 1304   2.667   7.048   7.293 -0.7301 -0.3085  1.1381
   11MOL    H85 1305   2.508   7.110   7.257 -2.3381 -1.9088  0.8088
   11MOL    C86 1306   2.577   7.190   7.440  0.9947 -0.0833 -0.1745
   11MOL    C87 1307   2.699   7.290   7.411 -0.7127 -0.4282  0.5709
   11MOL    H88 1308   2.481   7.242   7.439  1.8373  1.4822 -0.1019
   11MOL    H89 1309   2.586   7.155   7.543 -1.9935 -0.7042 -0.0676
   11MOL    H90 1310   2.792   7.236   7.428 -0.2038  0.4501  0.5954
   11MOL    H91 1311   2.692   7.311   7.304 -1.7638  1.3107  0.9562
   11MOL    C92 1312   2.694   7.421   7.495  0.4986  0.9608  0.0556
   11MOL    C93 1313   2.744   7.402   7.641 -0.1326  0.5891 -0.3992
   11MOL    H94 1314   2.745   7.507   7.452  0.8353  1.8637  2.2175
   11MOL    H95 1315   2.589   7.450   7.491  0.4892  0.7621 -2.1275
   11MOL    H96 1316   2.689   7.318   7.684  0.6927  0.4547  0.4127
   11MOL    H97 1317   2.850   7.378   7.645 -0.5230 -0.8622  2.4342
   11MOL    C98 1318   2.712   7.526   0.038 -0.9012 -0.0492 -0.0175
   11MOL    C99 1319   2.742   7.494   0.184  0.0029  0.4394 -0.5694
   11MOL   H100 1320   2.769   7.609   7.688  2.0872 -2.4770 -1.0008
   11MOL   H101 1321   2.606   7.548   0.029 -0.6801  0.8681 -0.4507
   11MOL   H102 1322   2.685   7.407   0.219  2.6411 -1.0734  0.1198
   11MOL   H103 1323   2.848   7.469   0.193 -0.2356 -0.7467 -0.9470
   11MOL   C104 1324   2.733   7.611   0.281  0.0816 -0.0523  1.1531
   11MOL   C105 1325   2.793   7.593   0.418 -0.8351  0.5089 -0.0207
   11MOL   H106 1326   2.790   7.684   0.224  0.2992  0.5425  2.1224
   11MOL   H107 1327   2.631   7.648   0.286  0.2751  0.5196  1.0030
   11MOL   H108 1328   2.728   7.523   0.471 -0.1195  1.2072  1.8325
   11MOL   H109 1329   2.896   7.561   0.431 -0.4767  1.1239 -1.2796
   11MOL   C110 1330   2.791   0.033   0.494  0.2915 -0.3510 -0.5318
   11MOL   C111 1331   2.866   0.024   0.628 -0.0055 -0.5207  0.0153
   11MOL   H112 1332   2.838   0.112   0.436  0.6474  0.2783  0.5818
   11MOL   H113 1333   2.690   0.057   0.526  1.1970 -2.5480  4.5686
   11MOL   H114 1334   2.816   7.632   0.677  0.2477 -0.4239  0.4311
   11MOL   H115 1335   2.969   7.690   0.603 -0.0911 -3.0569  2.1398
   11MOL   C116 1336   2.843   0.144   0.714  0.0461  0.2269  0.9675
   11MOL   C117 1337   2.935   0.135   0.838 -0.4705  0.3656  0.1430
   11MOL   H118 1338   2.864   0.234   0.656 -0.1153 -0.9259 -0.9157
   11MOL   H119 1339   2.737   0.156   0.738 -0.9401  2.0236 -3.6524
   11MOL   H120 1340   3.037   0.104   0.813 -1.1974 -0.6348 -1.6775
   11MOL   H121 1341   2.930   0.238   0.875 -1.4605  0.6046 -0.6291
   11MOL   H122 1342   2.890   0.068   0.911  0.4417 -0.6965 -0.2493
   12MOL     C1 1343   1.297   1.298   4.525 -0.5030 -0.3874 -0.2592
   12MOL     C2 1344   1.149   1.326   4.534  0.6012 -0.1964 -0.2433
   12MOL     H3 1345   1.363   1.382   4.544 -0.6620 -0.0839 -1.0354
   12MOL     H4 1346   1.334   1.255   4.432  1.6417 -1.2496  0.9566
   12MOL     H5 1347   1.118   1.384   4.447 -0.5014  1.4889  1.2367
   12MOL     H6 1348   1.104   1.229   4.512 -0.8229 -0.0144  1.7037
   12MOL     H7 1349   1.316   1.222   4.601 -1.4661 -0.7990 -0.4146
   12MOL     C8 1350   1.097   1.374   4.676  0.3218  0.4609  0.0949
   12MOL     C9 1351   0.936   1.387   4.675  0.3294  0.4728 -0.0858
   12MOL    H10 1352   1.132   1.307   4.755  1.0869  1.0795  0.2893
   12MOL    H11 1353   1.137   1.468   4.713  1.1941  0.6445 -1.2859
   12MOL    H12 1354   0.918   1.466   4.602  2.1147  1.9851  1.0609
   12MOL    H13 1355   0.890   1.301   4.626  0.2739  0.3994  0.0944
   12MOL    C14 1356   0.864   1.417   4.808  0.6540  0.3564  0.5713
   12MOL    C15 1357   0.714   1.372   4.807  0.4750  0.1517  0.3345
   12MOL    H16 1358   0.912   1.369   4.894 -2.5548 -0.2536  2.0998
   12MOL    H17 1359   0.873   1.525   4.819  1.5172  0.3118  0.3223
   12MOL    H18 1360   0.680   1.418   4.715 -3.4822 -2.3082  0.4483
   12MOL    H19 1361   0.710   1.265   4.785  2.4278 -0.0023  0.6053
   12MOL    C20 1362   0.634   1.419   4.924  0.3686 -0.2018  0.6681
   12MOL    C21 1363   0.491   1.433   4.874  0.2664  0.3645  0.1856
   12MOL    H22 1364   0.649   1.343   5.001 -0.1270  0.2554  1.2177
   12MOL    H23 1365   0.659   1.514   4.972  0.3169 -0.0769  0.4460
   12MOL    H24 1366   0.481   1.505   4.793  2.3876  0.1762 -0.2504
   12MOL    H25 1367   0.460   1.335   4.836 -0.9382  0.8874 -0.2180
   12MOL    C26 1368   0.393   1.467   4.986  0.1552 -0.0850 -1.1138
   12MOL    C27 1369   0.253   1.467   4.920  0.1310  0.0472 -0.3973
   12MOL    H28 1370   0.398   1.388   5.061  2.4214  1.1532  0.0669
   12MOL    H29 1371   0.415   1.563   5.032  1.8782  0.6862 -3.4785
   12MOL    H30 1372   0.247   1.527   4.829 -0.0315  0.8616  0.1480
   12MOL    H31 1373   0.226   1.364   4.898  1.9082 -0.8266  1.3968
   12MOL    C32 1374   0.138   1.508   5.021  0.2420  0.0846  0.0531
   12MOL    C33 1375   0.138   1.660   5.059 -0.1628  0.5671 -0.1141
   12MOL    H34 1376   0.043   1.493   4.969  0.3650 -0.0311 -0.1379
   12MOL    H35 1377   0.140   1.444   5.109 -4.5463 -2.0159 -1.1783
   12MOL    H36 1378   0.229   1.675   5.117 -1.0621 -1.8351  2.0191
   12MOL    H37 1379   0.147   1.725   4.972 -1.5352  3.2878  1.7141
   12MOL    C38 1380   0.018   1.693   5.149  0.0981  0.0090  0.1141
   12MOL    C39 1381   0.013   1.840   5.185  0.0279  0.2521 -0.3272
   12MOL    H40 1382   7.609   1.678   5.112  0.0466 -2.6151  1.1920
   12MOL    H41 1383   0.016   1.643   5.246 -2.8380 -0.6246 -0.2462
   12MOL    H42 1384   0.080   1.878   5.262 -0.8533 -0.3506  0.7602
   12MOL    H43 1385   0.034   1.899   5.096 -1.7422  0.3076 -0.7295
   12MOL    C44 1386   7.572   1.886   5.233 -0.1160  0.5673 -0.1363
   12MOL    C45 1387   7.575   2.030   5.281 -0.0443  0.0896  0.0569
   12MOL    H46 1388   7.508   1.885   5.144 -0.1972 -0.2345 -0.0665
   12MOL    H47 1389   7.530   1.821   5.309  0.6716 -0.3550 -0.4878
   12MOL    H48 1390   7.617   2.025   5.381 -1.3952 -1.0125  0.5901
   12MOL    H49 1391   7.653   2.081   5.225  1.0174 -0.8571  0.6483
   12MOL    C50 1392   7.441   2.100   5.278 -0.3389 -0.2892  0.3756
   12MOL    C51 1393   7.391   2.121   5.132 -0.4062 -0.2472 -0.8046
   12MOL    H52 1394   7.371   2.036   5.331 -2.3006 -0.2902 -2.1560
   12MOL    H53 1395   7.448   2.196   5.329 -3.9915  0.6315 -0.7556
   12MOL    H54 1396   7.356   2.024   5.097 -0.3083 -1.0859  1.3788
   12MOL    H55 1397   7.297   2.175   5.135 -0.5271 -0.5065  0.0968
   12MOL    C56 1398   7.488   2.194   5.041  0.6548  0.3058 -0.1357
   12MOL    C57 1399   7.429   2.234   4.903  0.2790 -0.4654  0.3078
   12MOL    H58 1400   7.538   2.280   5.087  2.0622  0.8033 -2.5063
   12MOL    H59 1401   7.571   2.128   5.015  1.0336  0.6008  0.3052
   12MOL    H60 1402   7.412   2.147   4.840 -1.2056  0.0679 -0.0542
   12MOL    H61 1403   7.339   2.297   4.904 -0.2808 -1.1514 -2.5198
   12MOL    C62 1404   7.535   2.322   4.828 -0.6104 -0.0154 -0.5170
   12MOL    C63 1405   7.675   2.249   4.794 -0.1660 -0.7717 -0.3036
   12MOL    H64 1406   7.492   2.353   4.734  1.1923 -0.9464 -1.6882
   12MOL    H65 1407   7.558   2.414   4.882  1.1105 -0.6491 -0.1246
   12MOL    H66 1408   0.027   2.206   4.884  1.9747 -0.5523 -1.2106
   12MOL    H67 1409   7.658   2.166   4.726 -0.5890 -1.2624  0.3996
   12MOL    C68 1410   0.076   2.342   4.720 -1.0818  0.0245 -0.3934
   12MOL    C69 1411   0.220   2.286   4.690 -0.0881  0.2672 -0.1977
   12MOL    H70 1412   0.034   2.379   4.626 -0.9008  1.4700  0.0739
   12MOL    H71 1413   0.101   2.432   4.777  0.9512  1.2419 -3.0850
   12MOL    H72 1414   0.260   2.236   4.778 -0.6500  0.0221 -0.0756
   12MOL    H73 1415   0.206   2.208   4.615 -0.6618  0.0493  0.1343
   12MOL    C74 1416   0.320   2.379   4.628  0.0917 -0.1659 -0.1060
   12MOL    C75 1417   0.259   2.424   4.491 -0.2108 -0.3293 -0.3057
   12MOL    H76 1418   0.343   2.470   4.684 -0.1332 -0.1301 -0.0682
   12MOL    H77 1419   0.415   2.328   4.616  1.2329  1.6382  1.0578
   12MOL    H78 1420   0.254   2.330   4.437  0.0088 -1.0075  0.8390
   12MOL    H79 1421   0.167   2.482   4.499 -0.7470 -1.2331  0.2128
   12MOL    C80 1422   0.356   2.489   4.389  0.1119 -0.1791  0.3849
   12MOL    C81 1423   0.290   2.503   4.252 -0.6727 -0.0409  0.3171
   12MOL    H82 1424   0.407   2.580   4.420  0.5686 -0.5103  0.6001
   12MOL    H83 1425   0.446   2.428   4.379 -1.4657 -2.7591  1.5431
   12MOL    H84 1426   0.374   2.517   4.183  0.2588 -0.6859  1.3045
   12MOL    H85 1427   0.250   2.407   4.219 -0.8049  0.1712 -0.1410
   12MOL    C86 1428   0.193   2.622   4.236  0.7041 -0.0260  0.4108
   12MOL    C87 1429   0.166   2.653   4.096 -0.3880 -0.1525  0.1984
   12MOL    H88 1430   0.100   2.601   4.289 -0.6232  0.1692 -1.7989
   12MOL    H89 1431   0.231   2.708   4.292 -0.6213  1.4968 -0.9855
   12MOL    H90 1432   0.252   2.651   4.030 -0.1438 -0.4193  0.5272
   12MOL    H91 1433   0.115   2.568   4.052 -1.4555  1.4619 -1.7612
   12MOL    C92 1434   0.068   2.768   4.077  0.4076  0.0655 -0.0800
   12MOL    C93 1435   0.063   2.822   3.934 -0.6886 -0.1505  0.0018
   12MOL    H94 1436   7.659   2.737   4.104  0.3010  0.9387  0.5378
   12MOL    H95 1437   0.083   2.845   4.153 -1.7742 -0.5551  1.0374
   12MOL    H96 1438   0.157   2.814   3.879 -1.3093  0.8405 -1.2314
   12MOL    H97 1439   0.004   2.747   3.883  0.2674 -0.9496  0.0475
   12MOL    C98 1440   7.687   2.958   3.914  0.1528 -0.0596 -0.3243
   12MOL    C99 1441   7.673   2.992   3.759  0.2547 -0.1667 -0.0243
   12MOL   H100 1442   7.585   2.963   3.950  0.8632  3.2431  1.4377
   12MOL   H101 1443   0.040   3.040   3.972  0.6686  0.3863 -1.3416
   12MOL   H102 1444   0.062   2.952   3.698  1.0727  0.3887  0.6694
   12MOL   H103 1445   7.585   2.931   3.742  0.0178 -0.0167  0.6323
   12MOL   C104 1446   7.663   3.146   3.727 -0.9205  0.1178 -0.3422
   12MOL   C105 1447   7.640   3.161   3.577 -0.4563  0.4782 -0.5639
   12MOL   H106 1448   7.584   3.198   3.781  1.2159 -0.8574  3.9479
   12MOL   H107 1449   0.060   3.197   3.764 -1.3671 -1.3959  3.0368
   12MOL   H108 1450   0.032   3.121   3.520 -0.4173 -1.4926  0.8267
   12MOL   H109 1451   7.549   3.111   3.545 -1.9897  2.4972  0.5920
   12MOL   C110 1452   7.634   3.311   3.541  0.0801  0.6472  0.0434
   12MOL   C111 1453   7.598   3.329   3.391  0.0147 -0.2877  0.1772
   12MOL   H112 1454   7.557   3.352   3.608 -1.6593 -0.3985 -1.2662
   12MOL   H113 1455   0.036   3.360   3.566  0.5402 -0.6520  0.8540
   12MOL   H114 1456   7.669   3.278   3.326  0.5176 -0.3506  0.7637
   12MOL   H115 1457   7.495   3.296   3.378 -0.1822  0.3529  0.1038
   12MOL   C116 1458   7.593   3.481   3.353  0.1176  0.3713  0.9984
   12MOL   C117 1459   7.557   3.487   3.204  0.2034 -0.3454  0.7518
   12MOL   H118 1460   7.523   3.524   3.425  0.6533  1.1817  1.0396
   12MOL   H119 1461   7.685   3.534   3.376  0.1120  1.1916 -0.7727
   12MOL   H120 1462   7.495   3.409   3.162  0.6315  0.7086 -1.9223
   12MOL   H121 1463   7.519   3.585   3.173 -2.4254 -1.6007 -0.1073
   12MOL   H122 1464   7.651   3.482   3.149  0.0567  1.8757  0.2326
   13MOL     C1 1465   3.124   6.129   5.943 -0.2214 -0.4201  0.1203
   13MOL     C2 1466   3.047   6.101   5.821  0.7849 -0.1083  0.1517
   13MOL     H3 1467   3.055   6.146   6.027 -1.4658 -3.1512 -0.2985
   13MOL     H4 1468   3.184   6.219   5.933 -0.3644 -0.4056 -0.5977
   13MOL     H5 1469   2.946   6.138   5.835  0.4273 -1.6798  1.9033
   13MOL     H6 1470   3.080   6.162   5.736 -2.4743 -0.7804 -1.6883
   13MOL     H7 1471   3.187   6.043   5.965  0.3439  0.0517  0.3564
   13MOL     C8 1472   3.034   5.960   5.767 -0.0273 -0.1375 -0.1732
   13MOL     C9 1473   3.157   5.896   5.712 -0.1347  0.3911  0.2054
   13MOL    H10 1474   2.996   5.896   5.846 -2.1596  2.0486  0.6370
   13MOL    H11 1475   2.953   5.953   5.694  0.0743 -0.4273 -0.2568
   13MOL    H12 1476   3.200   5.973   5.648  1.5706 -1.0725 -0.4635
   13MOL    H13 1477   3.225   5.864   5.792 -1.2931 -0.8145  0.7348
   13MOL    C14 1478   3.118   5.781   5.621 -0.4436  0.0325  0.4623
   13MOL    C15 1479   3.072   5.670   5.718 -0.5647  0.3978 -0.2972
   13MOL    H16 1480   3.051   5.821   5.546  0.1992 -0.1119 -0.1980
   13MOL    H17 1481   3.206   5.740   5.571 -0.5252  1.3832 -0.8161
   13MOL    H18 1482   3.145   5.655   5.797 -0.9040  0.0562 -0.0487
   13MOL    H19 1483   2.987   5.697   5.780 -0.7871 -0.7595 -0.0960
   13MOL    C20 1484   3.037   5.534   5.658  0.4214 -1.1073 -0.1347
   13MOL    C21 1485   2.921   5.550   5.556  0.7166 -0.2063 -0.2285
   13MOL    H22 1486   3.125   5.490   5.612  0.6455 -1.6153  0.7595
   13MOL    H23 1487   3.014   5.467   5.741  0.2335  0.8773  1.4603
   13MOL    H24 1488   2.833   5.586   5.609  2.1806  0.2577  1.9687
   13MOL    H25 1489   2.946   5.628   5.484  0.5220  1.7430  1.7600
   13MOL    C26 1490   2.898   5.416   5.478 -0.0242 -0.0852  0.2177
   13MOL    C27 1491   2.789   5.430   5.375  0.2885  0.9294  0.2416
   13MOL    H28 1492   2.991   5.388   5.429 -1.3892  0.7424 -2.9306
   13MOL    H29 1493   2.868   5.335   5.545 -0.5003 -0.5234 -0.5286
   13MOL    H30 1494   2.695   5.454   5.425  0.0769  2.1261 -0.7104
   13MOL    H31 1495   2.817   5.509   5.306 -0.0588 -0.6156 -1.7136
   13MOL    C32 1496   2.773   5.301   5.287  0.4689  0.3046 -1.0092
   13MOL    C33 1497   2.866   5.304   5.165 -0.9041  0.2942  1.2786
   13MOL    H34 1498   2.804   5.224   5.357  0.1791 -0.9696 -2.2714
   13MOL    H35 1499   2.668   5.287   5.259  0.0388  1.0028  0.1713
   13MOL    H36 1500   2.815   5.367   5.092 -1.0443 -2.1637 -0.8280
   13MOL    H37 1501   2.958   5.355   5.194  0.6593  0.1980 -3.1948
   13MOL    C38 1502   2.902   5.164   5.104 -0.3519  0.0803  0.0524
   13MOL    C39 1503   2.777   5.115   5.021 -0.0232  0.1167  0.4601
   13MOL    H40 1504   2.986   5.183   5.038 -1.6639 -1.1404 -1.9882
   13MOL    H41 1505   2.929   5.084   5.173  1.5656 -1.1477 -2.0521
   13MOL    H42 1506   2.696   5.093   5.090 -1.0241  1.8205 -0.1413
   13MOL    H43 1507   2.741   5.193   4.954 -0.1477 -0.2159  0.1445
   13MOL    C44 1508   2.796   4.983   4.945 -0.5113  1.2708 -0.0873
   13MOL    C45 1509   2.681   4.945   4.849 -0.1533  0.0337  0.3930
   13MOL    H46 1510   2.887   4.986   4.885  0.2194 -0.2067  0.9069
   13MOL    H47 1511   2.799   4.907   5.023 -1.9568 -0.9216 -2.1475
   13MOL    H48 1512   2.583   4.952   4.898 -0.1042  0.3498  0.4451
   13MOL    H49 1513   2.677   5.023   4.773 -1.3505  0.6765  1.0979
   13MOL    C50 1514   2.702   4.815   4.772 -0.0281  0.3605  0.5639
   13MOL    C51 1515   2.604   4.787   4.659 -0.1096 -0.5360  0.3271
   13MOL    H52 1516   2.803   4.807   4.731 -0.3438  1.6745 -0.5216
   13MOL    H53 1517   2.689   4.733   4.842 -1.4667 -0.2360 -0.3972
   13MOL    H54 1518   2.500   4.771   4.689  0.3397 -0.1671  2.1316
   13MOL    H55 1519   2.593   4.871   4.591  0.0836 -0.1210  0.8127
   13MOL    C56 1520   2.639   4.667   4.567  0.4014 -0.2500 -0.4630
   13MOL    C57 1521   2.632   4.534   4.641 -0.2094  0.2064 -0.6062
   13MOL    H58 1522   2.560   4.671   4.492  0.8634 -0.9784 -0.9934
   13MOL    H59 1523   2.730   4.683   4.509  0.3139  3.1125  0.1942
   13MOL    H60 1524   2.727   4.527   4.694  0.9484  1.3350 -2.4780
   13MOL    H61 1525   2.546   4.533   4.707 -1.0243  3.1552 -1.5251
   13MOL    C62 1526   2.627   4.412   4.546  0.3062 -0.5513 -0.0197
   13MOL    C63 1527   2.608   4.281   4.619  0.1074  0.0487 -0.5371
   13MOL    H64 1528   2.548   4.423   4.472  1.6967 -0.4883 -1.5276
   13MOL    H65 1529   2.721   4.403   4.492  0.2051 -1.6251 -0.0148
   13MOL    H66 1530   2.671   4.267   4.707  1.5978  1.1779 -1.3959
   13MOL    H67 1531   2.506   4.277   4.656  0.0338  2.3633 -0.3770
   13MOL    C68 1532   2.610   4.160   4.534  0.1412 -0.1719 -0.8063
   13MOL    C69 1533   2.751   4.100   4.517  0.5103  0.7453 -0.5775
   13MOL    H70 1534   2.554   4.081   4.583  1.1232 -0.8245 -0.7303
   13MOL    H71 1535   2.569   4.174   4.434  1.0774  1.5684 -0.9722
   13MOL    H72 1536   2.737   4.017   4.447 -0.1611 -0.1920  0.6540
   13MOL    H73 1537   2.815   4.178   4.476  0.4425 -0.3626 -2.8869
   13MOL    C74 1538   2.826   4.029   4.632 -0.4499  0.1988  0.7057
   13MOL    C75 1539   2.947   3.955   4.578  0.3289  0.3647 -0.2046
   13MOL    H76 1540   2.861   4.101   4.705 -0.4787 -0.0927  1.0060
   13MOL    H77 1541   2.766   3.953   4.683 -1.4626  0.7721  0.3808
   13MOL    H78 1542   2.906   3.881   4.510 -0.0563 -0.7855  1.2551
   13MOL    H79 1543   3.014   4.017   4.519 -0.5158 -0.0400 -1.6022
   13MOL    C80 1544   3.030   3.889   4.691  0.0240  0.0568  1.0935
   13MOL    C81 1545   3.144   3.811   4.629 -0.4469 -0.2858 -0.5584
   13MOL    H82 1546   3.062   3.970   4.756 -0.8993  3.5129 -2.5797
   13MOL    H83 1547   2.974   3.818   4.753 -0.2249  0.7490  1.6734
   13MOL    H84 1548   3.103   3.717   4.591 -0.6771 -0.3854 -0.0716
   13MOL    H85 1549   3.190   3.852   4.539 -0.5813  1.9979  0.3811
   13MOL    C86 1550   3.259   3.792   4.732  0.3466  0.0955  0.2377
   13MOL    C87 1551   3.362   3.699   4.656 -0.6224 -0.9524  0.0856
   13MOL    H88 1552   3.307   3.889   4.745  0.4136  0.1070 -0.0809
   13MOL    H89 1553   3.233   3.754   4.831  1.3750 -0.3182  0.3615
   13MOL    H90 1554   3.303   3.612   4.629 -0.1559 -0.7241 -1.7294
   13MOL    H91 1555   3.389   3.748   4.562 -0.5231  0.1709  0.6856
   13MOL    C92 1556   3.491   3.662   4.730  0.0520 -0.4516 -0.6408
   13MOL    C93 1557   3.596   3.777   4.745 -0.5217  1.0710  0.7628
   13MOL    H94 1558   3.471   3.617   4.827 -1.1383  0.6054 -0.3803
   13MOL    H95 1559   3.537   3.585   4.669  2.2188  0.9631 -0.8525
   13MOL    H96 1560   3.607   3.809   4.642 -1.9729 -1.3809 -0.2173
   13MOL    H97 1561   3.546   3.856   4.801 -2.0516  0.7099 -0.0623
   13MOL    C98 1562   3.731   3.729   4.806  0.5068 -0.3651 -0.4270
   13MOL    C99 1563   3.811   3.847   4.863  0.5097 -0.0412  0.2546
   13MOL   H100 1564   3.721   3.664   4.893 -3.1042  0.6352  0.0136
   13MOL   H101 1565   3.789   3.668   4.736 -0.3264  0.3133 -1.7293
   13MOL   H102 1566   3.741   3.918   4.907  0.9626  1.5040 -1.4532
   13MOL   H103 1567   3.879   3.824   4.945  0.9274  0.6962  0.1233
   13MOL   C104 1568   3.882   3.910   4.743 -0.1326  0.6440 -0.6785
   13MOL   C105 1569   3.965   4.044   4.778  0.2607  0.3140  0.1457
   13MOL   H106 1570   3.951   3.833   4.709 -0.5546 -0.6226  1.2580
   13MOL   H107 1571   3.821   3.932   4.655 -0.5117  1.8257 -0.1308
   13MOL   H108 1572   4.032   4.016   4.859  0.4858 -1.1527 -0.5242
   13MOL   H109 1573   4.038   4.069   4.701  0.6372 -0.1875  0.3337
   13MOL   C110 1574   3.881   4.168   4.813 -0.1433 -0.2361  0.8294
   13MOL   C111 1575   3.965   4.291   4.855 -0.7990 -0.5438 -0.4924
   13MOL   H112 1576   3.812   4.188   4.731 -2.1136  1.0381  2.7437
   13MOL   H113 1577   3.807   4.142   4.888 -0.3216 -1.9438  0.0808
   13MOL   H114 1578   4.005   4.277   4.955  1.5535  0.7580 -1.2198
   13MOL   H115 1579   4.056   4.303   4.797 -1.2004  4.7730 -0.3011
   13MOL   C116 1580   3.877   4.419   4.845 -0.3168 -0.4942  0.3109
   13MOL   C117 1581   3.965   4.541   4.868  0.0962 -0.1035  0.5296
   13MOL   H118 1582   3.852   4.440   4.741  0.7441 -1.1537 -0.0798
   13MOL   H119 1583   3.796   4.416   4.919 -0.0135 -2.0799  0.5996
   13MOL   H120 1584   3.991   4.549   4.974 -0.8723  0.9617  0.6918
   13MOL   H121 1585   4.055   4.538   4.808 -1.2839 -3.0610 -1.5296
   13MOL   H122 1586   3.910   4.630   4.838 -2.3092 -1.4259  0.8586
   14MOL     C1 1587   4.387   2.098   4.071  0.1118  0.4891  0.8876
   14MOL     C2 1588   4.385   1.956   4.103  0.1358  0.3991  0.6495
   14MOL     H3 1589   4.341   2.143   4.158 -0.0828  0.0519  1.0145
   14MOL     H4 1590   4.315   2.128   3.995 -0.3790 -0.3995  0.9998
   14MOL     H5 1591   4.450   1.937   4.189 -1.7704  1.5981  2.4114
   14MOL     H6 1592   4.287   1.914   4.123 -1.1591  3.5421  1.2038
   14MOL     H7 1593   4.483   2.141   4.042 -0.1386  0.0108 -0.7149
   14MOL     C8 1594   4.466   1.876   3.992  0.4534  0.0823  0.7948
   14MOL     C9 1595   4.455   1.718   4.027  0.5325  0.0736 -0.2059
   14MOL    H10 1596   4.417   1.891   3.896  1.1626  0.2190  0.4551
   14MOL    H11 1597   4.568   1.913   3.983  1.1742 -2.1802 -0.8729
   14MOL    H12 1598   4.483   1.713   4.132  0.1714 -0.3393 -0.1275
   14MOL    H13 1599   4.350   1.690   4.014  0.8923 -1.1330 -0.5806
   14MOL    C14 1600   4.550   1.626   3.947  0.2515  0.1335  0.2297
   14MOL    C15 1601   4.503   1.616   3.797 -0.5631 -0.3490 -0.0093
   14MOL    H16 1602   4.651   1.661   3.967  0.1429  0.6536 -0.1096
   14MOL    H17 1603   4.528   1.533   3.999 -3.1174  2.0037  2.3519
   14MOL    H18 1604   4.395   1.609   3.792 -0.7589  2.1734  0.3825
   14MOL    H19 1605   4.520   1.702   3.733 -0.7141  0.3583  0.9054
   14MOL    C20 1606   4.543   1.485   3.731  0.0304 -0.4770 -0.7777
   14MOL    C21 1607   4.664   1.490   3.634  0.6397 -0.0907  0.6637
   14MOL    H22 1608   4.568   1.414   3.810  0.9931  0.4874 -0.1976
   14MOL    H23 1609   4.459   1.430   3.689  1.1133 -0.8454 -2.5433
   14MOL    H24 1610   4.638   1.533   3.537 -1.3909 -2.0393  0.3306
   14MOL    H25 1611   4.749   1.544   3.676 -0.1934  0.2369  1.9572
   14MOL    C26 1612   4.713   1.348   3.590 -0.7093 -0.1569 -0.2433
   14MOL    C27 1613   4.791   1.355   3.458 -0.8441 -0.8559  0.2702
   14MOL    H28 1614   4.773   1.308   3.672 -2.5965 -2.3051  0.1398
   14MOL    H29 1615   4.634   1.275   3.573  0.8173 -1.7793 -0.5250
   14MOL    H30 1616   4.815   1.252   3.429 -1.7980 -0.4580 -2.1213
   14MOL    H31 1617   4.720   1.392   3.384  0.2393 -0.1718 -0.4362
   14MOL    C32 1618   4.917   1.435   3.454  0.0360 -0.0265 -0.1562
   14MOL    C33 1619   4.989   1.439   3.315  0.1390 -0.3327  0.4873
   14MOL    H34 1620   4.897   1.538   3.482  1.1520 -0.2792  1.6411
   14MOL    H35 1621   4.988   1.393   3.525 -0.7205 -0.7818  0.1645
   14MOL    H36 1622   5.001   1.337   3.279 -3.1933 -0.2755 -1.0183
   14MOL    H37 1623   4.922   1.487   3.243  1.5648  2.7057  1.1188
   14MOL    C38 1624   5.104   1.531   3.314 -0.4857  0.1534 -0.5335
   14MOL    C39 1625   5.194   1.509   3.189  0.4238  0.0666 -0.3662
   14MOL    H40 1626   5.071   1.634   3.324 -0.6261  0.0185  0.4689
   14MOL    H41 1627   5.164   1.513   3.403  2.1702  3.3014 -1.5934
   14MOL    H42 1628   5.206   1.404   3.165  2.9240  0.2316  0.0657
   14MOL    H43 1629   5.155   1.564   3.103 -0.0632  3.2288  1.7725
   14MOL    C44 1630   5.334   1.566   3.197 -0.0200  0.6481  0.0857
   14MOL    C45 1631   5.424   1.525   3.081 -0.5232 -0.6235  0.4363
   14MOL    H46 1632   5.330   1.674   3.189 -0.1238  0.5419 -1.4644
   14MOL    H47 1633   5.380   1.554   3.295  1.3339  0.3614 -0.5612
   14MOL    H48 1634   5.433   1.418   3.062  0.5682 -0.1354 -1.9807
   14MOL    H49 1635   5.380   1.564   2.990  0.1903  1.1412  0.8214
   14MOL    C50 1636   5.565   1.579   3.105  0.2276 -0.3591  0.0774
   14MOL    C51 1637   5.659   1.557   2.974 -0.4608  0.6497 -0.3383
   14MOL    H52 1638   5.552   1.684   3.130 -2.9370 -0.8722  0.7394
   14MOL    H53 1639   5.614   1.541   3.195 -0.6082  0.6556  0.9671
   14MOL    H54 1640   5.625   1.475   2.910  0.0222  1.8630 -2.2221
   14MOL    H55 1641   5.661   1.646   2.910 -0.7726 -0.2305 -1.6039
   14MOL    C56 1642   5.805   1.535   3.016 -0.1153 -0.4508  0.8880
   14MOL    C57 1643   5.872   1.664   3.056 -0.5885 -0.7257  0.5385
   14MOL    H58 1644   5.807   1.459   3.094 -1.1172  0.4883  1.8500
   14MOL    H59 1645   5.857   1.481   2.938 -0.9676  1.1730 -0.8482
   14MOL    H60 1646   5.860   1.744   2.982  1.5985 -2.1156 -1.3914
   14MOL    H61 1647   5.818   1.694   3.145 -0.5167 -0.4514  0.4910
   14MOL    C62 1648   6.021   1.657   3.077  0.3993 -1.0577  0.0411
   14MOL    C63 1649   6.108   1.611   2.962 -0.3531  0.1302  0.5921
   14MOL    H64 1650   6.053   1.753   3.118  1.1579 -1.5809  0.6820
   14MOL    H65 1651   6.037   1.599   3.168 -0.9139 -1.8702 -0.2386
   14MOL    H66 1652   6.072   1.512   2.936  1.3610 -0.2330 -0.4783
   14MOL    H67 1653   6.093   1.671   2.872 -0.0670  0.3794  0.7086
   14MOL    C68 1654   6.254   1.602   3.011 -0.2580 -0.4451 -0.2943
   14MOL    C69 1655   6.348   1.504   2.930 -0.2730 -0.2494 -0.1894
   14MOL    H70 1656   6.292   1.703   3.009 -1.4873  0.0412  0.2535
   14MOL    H71 1657   6.253   1.569   3.115 -1.9370  3.2022  0.9272
   14MOL    H72 1658   6.431   1.513   3.000  0.5826  1.9138 -1.4347
   14MOL    H73 1659   6.314   1.400   2.929  0.9443 -0.6605 -1.6014
   14MOL    C74 1660   6.393   1.564   2.800 -0.1187 -0.0122  0.2476
   14MOL    C75 1661   6.510   1.476   2.736 -0.7099  0.2725 -0.1609
   14MOL    H76 1662   6.304   1.582   2.741 -0.3272 -0.7725  0.3264
   14MOL    H77 1663   6.435   1.660   2.827  0.4762 -0.3871  0.6752
   14MOL    H78 1664   6.596   1.483   2.804 -0.3992  1.6111 -0.6755
   14MOL    H79 1665   6.475   1.376   2.713 -0.3379  0.2756 -0.7435
   14MOL    C80 1666   6.554   1.537   2.601 -0.2077  0.4782  0.2283
   14MOL    C81 1667   6.659   1.446   2.534  0.4731  0.1808  0.3423
   14MOL    H82 1668   6.467   1.548   2.536  0.4375 -3.8262 -1.5506
   14MOL    H83 1669   6.593   1.639   2.611  0.6603  0.5180 -2.9470
   14MOL    H84 1670   6.741   1.429   2.604  1.9626  0.6442 -1.2531
   14MOL    H85 1671   6.607   1.353   2.514 -2.1737  1.8443 -0.8894
   14MOL    C86 1672   6.718   1.502   2.409  0.3256 -0.1404  0.3119
   14MOL    C87 1673   6.805   1.392   2.337  0.0646 -0.4363  0.1315
   14MOL    H88 1674   6.629   1.535   2.354  1.5727  0.7458 -1.2226
   14MOL    H89 1675   6.774   1.593   2.431  1.7154 -0.9950  0.3606
   14MOL    H90 1676   6.892   1.365   2.396  0.4612  1.8439  0.6434
   14MOL    H91 1677   6.743   1.303   2.328  0.8677 -0.8660 -1.2073
   14MOL    C92 1678   6.852   1.433   2.198 -0.1629  0.1710  0.4899
   14MOL    C93 1679   6.965   1.345   2.133 -0.4929 -0.7872 -0.2657
   14MOL    H94 1680   6.771   1.436   2.124  0.0933 -0.1379  0.1950
   14MOL    H95 1681   6.875   1.539   2.190 -0.6255  0.2883  0.6700
   14MOL    H96 1682   6.931   1.242   2.127  0.3490 -1.0404 -0.8206
   14MOL    H97 1683   6.975   1.373   2.028  0.4363  1.6047  0.4194
   14MOL    C98 1684   7.105   1.350   2.202 -0.1384  0.0102 -0.0567
   14MOL    C99 1685   7.208   1.264   2.134 -0.0865  0.2674 -0.2408
   14MOL   H100 1686   7.140   1.452   2.209 -0.6692  0.4064 -2.7406
   14MOL   H101 1687   7.093   1.305   2.301  0.7900 -2.1183 -0.8886
   14MOL   H102 1688   7.154   1.169   2.130 -2.9155  1.8547 -0.4971
   14MOL   H103 1689   7.213   1.292   2.029  1.2335 -0.8679 -0.5009
   14MOL   C104 1690   7.344   1.248   2.209 -0.1923 -0.2554 -0.3807
   14MOL   C105 1691   7.459   1.200   2.112  0.0749  0.3515  0.7323
   14MOL   H106 1692   7.366   1.341   2.261 -2.3740 -0.1754  0.4512
   14MOL   H107 1693   7.338   1.179   2.293  0.6796  0.7508  0.5243
   14MOL   H108 1694   7.445   1.099   2.074  2.9448  0.4539 -0.7632
   14MOL   H109 1695   7.463   1.270   2.029  0.1353  1.3349  1.5622
   14MOL   C110 1696   7.606   1.195   2.172  0.1335 -0.1676 -1.1610
   14MOL   C111 1697   0.004   1.123   2.074 -0.3023 -0.4285  0.7048
   14MOL   H112 1698   7.658   1.290   2.176 -2.3147  1.1278  1.4792
   14MOL   H113 1699   7.613   1.149   2.270  2.1028  2.6460  0.0588
   14MOL   H114 1700   7.649   1.025   2.065 -0.1256 -0.3419 -1.3348
   14MOL   H115 1701   0.001   1.164   1.973  0.9339 -0.3199  0.7129
   14MOL   C116 1702   0.149   1.125   2.110 -0.1086  0.7064 -0.4953
   14MOL   C117 1703   0.201   1.003   2.192 -0.4310  0.3522 -0.0057
   14MOL   H118 1704   0.199   1.134   2.013  1.6863  0.6144  0.4000
   14MOL   H119 1705   0.172   1.218   2.162 -0.4059 -0.0187  0.9470
   14MOL   H120 1706   0.166   1.017   2.295  0.4439  1.8932  0.0982
   14MOL   H121 1707   0.175   0.911   2.140 -0.4397  0.4135 -0.1073
   14MOL   H122 1708   0.310   0.996   2.191 -0.4354  0.2014  0.4268
   15MOL     C1 1709   0.215   3.909   1.607 -0.2409  0.6987  0.7322
   15MOL     C2 1710   0.310   4.001   1.683 -0.5309  0.3053  0.5417
   15MOL     H3 1711   0.257   3.887   1.509 -1.0793  2.0684  0.0440
   15MOL     H4 1712   0.117   3.952   1.588 -0.4101  0.0478  0.1664
   15MOL     H5 1713   0.408   3.954   1.674 -0.0303  1.3835  0.2868
   15MOL     H6 1714   0.325   4.092   1.625 -0.3740 -0.8786 -1.3573
   15MOL     H7 1715   0.218   3.810   1.651 -1.4797  0.2151 -0.2606
   15MOL     C8 1716   0.260   4.048   1.817 -0.8333  0.2867  0.4102
   15MOL     C9 1717   0.356   4.145   1.881 -0.0514 -0.4164  0.2012
   15MOL    H10 1718   0.155   4.072   1.802 -0.2747  2.3113 -0.4106
   15MOL    H11 1719   0.268   3.959   1.880  0.0004  1.9400  2.7149
   15MOL    H12 1720   0.459   4.109   1.874  0.4598  1.2626 -1.4958
   15MOL    H13 1721   0.360   4.234   1.818 -1.0768  1.2686  2.4679
   15MOL    C14 1722   0.310   4.173   2.026  0.1824 -0.2114  0.6579
   15MOL    C15 1723   0.417   4.254   2.093  0.5132 -0.4667 -0.0338
   15MOL    H16 1724   0.214   4.223   2.018 -0.7349 -1.7776  1.6725
   15MOL    H17 1725   0.275   4.087   2.083 -3.4818  0.5910 -0.2435
   15MOL    H18 1726   0.514   4.204   2.102 -0.3352 -2.2588 -0.5906
   15MOL    H19 1727   0.443   4.329   2.018  1.3867 -0.8771 -0.1532
   15MOL    C20 1728   0.373   4.312   2.227  0.2324  0.4618  0.9443
   15MOL    C21 1729   0.467   4.425   2.272 -0.2117 -0.1086 -0.4450
   15MOL    H22 1730   0.270   4.344   2.218  0.7383  1.4181 -1.8802
   15MOL    H23 1731   0.369   4.231   2.300  0.0592 -0.8641 -0.4870
   15MOL    H24 1732   0.571   4.396   2.284 -0.4098 -0.6786 -0.0722
   15MOL    H25 1733   0.469   4.505   2.198  0.2076 -1.5727 -2.0562
   15MOL    C26 1734   0.436   4.474   2.411  0.7420 -0.5212 -0.1139
   15MOL    C27 1735   0.522   4.589   2.444  0.3341  0.4617  0.3456
   15MOL    H28 1736   0.331   4.502   2.421  1.5907  1.6900  3.4824
   15MOL    H29 1737   0.449   4.393   2.483  2.4431 -1.1205 -1.0961
   15MOL    H30 1738   0.628   4.565   2.441 -0.0658 -1.6151  1.9346
   15MOL    H31 1739   0.495   4.664   2.370 -1.9451 -0.2901  0.3794
   15MOL    C32 1740   0.488   4.647   2.583  0.6757 -0.3401 -0.1957
   15MOL    C33 1741   0.575   4.762   2.628 -0.7342 -0.0578  0.0426
   15MOL    H34 1742   0.384   4.680   2.592  0.0189 -2.1268 -1.0112
   15MOL    H35 1743   0.508   4.568   2.656  1.9757 -2.0405 -2.3264
   15MOL    H36 1744   0.678   4.727   2.630 -0.2635  1.2858 -0.3307
   15MOL    H37 1745   0.566   4.843   2.557  2.0650  1.0028  0.8460
   15MOL    C38 1746   0.549   4.821   2.773  0.4189  0.0541 -0.1062
   15MOL    C39 1747   0.659   4.918   2.824  0.4901  0.2039 -0.0508
   15MOL    H40 1748   0.449   4.862   2.785  0.6649  0.4164  0.7291
   15MOL    H41 1749   0.556   4.735   2.840  0.1744  0.9503  1.0725
   15MOL    H42 1750   0.758   4.871   2.821  1.5695  2.4028  0.1571
   15MOL    H43 1751   0.661   5.001   2.753 -0.6788 -2.3749 -3.2068
   15MOL    C44 1752   0.628   4.950   2.970 -0.3648 -0.4643  1.0160
   15MOL    C45 1753   0.713   5.074   3.003 -0.0376 -0.6687  0.0024
   15MOL    H46 1754   0.523   4.975   2.985  0.0749  1.9429  0.3673
   15MOL    H47 1755   0.648   4.864   3.034  1.8906  0.5559  1.7575
   15MOL    H48 1756   0.820   5.049   3.001  0.9959  3.4828 -2.6432
   15MOL    H49 1757   0.707   5.144   2.920 -1.2741 -1.1867 -0.3462
   15MOL    C50 1758   0.683   5.157   3.131  0.5554 -0.0666  0.6749
   15MOL    C51 1759   0.771   5.278   3.150  0.0288  0.5703 -0.5607
   15MOL    H52 1760   0.576   5.180   3.136  0.5222 -0.3979  1.5368
   15MOL    H53 1761   0.710   5.082   3.205  1.4787 -1.0160 -0.6025
   15MOL    H54 1762   0.873   5.242   3.163 -0.9464 -1.3926  2.1426
   15MOL    H55 1763   0.765   5.343   3.062 -3.2152 -1.0388 -1.6216
   15MOL    C56 1764   0.731   5.362   3.276  0.7307  1.1982 -0.6902
   15MOL    C57 1765   0.827   5.485   3.294  0.0855 -0.2806 -0.0058
   15MOL    H58 1766   0.629   5.400   3.269 -0.0087 -0.5202  0.4198
   15MOL    H59 1767   0.720   5.300   3.365  0.9096  1.7692 -0.2687
   15MOL    H60 1768   0.842   5.528   3.195  1.4322 -0.3684  0.1502
   15MOL    H61 1769   0.781   5.559   3.359 -0.2267 -2.2759  2.1080
   15MOL    C62 1770   0.961   5.452   3.355 -0.7295  0.8397  0.1729
   15MOL    C63 1771   1.054   5.574   3.351  1.2602  0.2897  0.1033
   15MOL    H64 1772   0.944   5.420   3.458 -1.8031  1.2597  0.1387
   15MOL    H65 1773   0.999   5.374   3.290  1.9535  1.7306  0.6076
   15MOL    H66 1774   1.082   5.598   3.248  1.7489  0.0698  0.1858
   15MOL    H67 1775   0.990   5.652   3.393 -0.3227 -1.3716  0.8423
   15MOL    C68 1776   1.190   5.556   3.428 -0.3658  0.4546 -0.3633
   15MOL    C69 1777   1.260   5.689   3.457  0.2643 -0.1688  0.3238
   15MOL    H70 1778   1.172   5.495   3.516  2.4640 -0.9756 -0.7019
   15MOL    H71 1779   1.260   5.489   3.377  0.5775  1.8062 -0.9046
   15MOL    H72 1780   1.202   5.749   3.527 -0.6019  2.3123 -2.3956
   15MOL    H73 1781   1.358   5.660   3.495 -0.9667 -2.3395  1.9306
   15MOL    C74 1782   1.272   5.778   3.325 -0.3996 -0.0984  0.3525
   15MOL    C75 1783   1.358   5.906   3.353  0.0403 -0.4273 -0.0221
   15MOL    H76 1784   1.315   5.726   3.238 -1.2131  0.2753 -0.2782
   15MOL    H77 1785   1.171   5.798   3.292  0.6906  1.6931 -2.0765
   15MOL    H78 1786   1.324   5.946   3.449 -1.0875 -0.4438 -0.3992
   15MOL    H79 1787   1.460   5.878   3.379 -0.6986 -1.6461  1.7095
   15MOL    C80 1788   1.372   6.008   3.235 -0.2887  0.1101 -1.1576
   15MOL    C81 1789   1.451   6.131   3.283 -0.1574  0.4920  0.2439
   15MOL    H82 1790   1.429   5.952   3.160  1.3569 -0.5171  0.5330
   15MOL    H83 1791   1.276   6.038   3.192 -1.4414 -1.0813  0.5507
   15MOL    H84 1792   1.389   6.191   3.349  1.5103  0.6825  1.6598
   15MOL    H85 1793   1.548   6.105   3.325 -0.0931  0.7730  0.2690
   15MOL    C86 1794   1.488   6.230   3.176  0.1050 -0.5333  0.0062
   15MOL    C87 1795   1.541   6.357   3.246  0.7138 -0.2222  0.0282
   15MOL    H88 1796   1.570   6.186   3.120  0.4292  0.4995 -0.3414
   15MOL    H89 1797   1.412   6.255   3.101  0.0123 -0.4198  0.1387
   15MOL    H90 1798   1.473   6.404   3.316 -1.5103 -0.7506 -1.7323
   15MOL    H91 1799   1.633   6.331   3.298 -0.0713  2.4135  2.8451
   15MOL    C92 1800   1.586   6.463   3.138  0.6232  0.4112  0.2588
   15MOL    C93 1801   1.650   6.588   3.201 -0.0653  0.7681 -0.2386
   15MOL    H94 1802   1.667   6.409   3.089  0.7102  0.0033  0.8478
   15MOL    H95 1803   1.514   6.485   3.060  1.9892 -1.0474 -1.4760
   15MOL    H96 1804   1.567   6.645   3.245 -2.1124 -1.9717 -0.4433
   15MOL    H97 1805   1.720   6.561   3.280 -2.6657 -1.0580  1.5063
   15MOL    C98 1806   1.729   6.674   3.092 -0.4705  0.5387  0.2617
   15MOL    C99 1807   1.751   6.825   3.130 -0.4033  0.2893 -0.8842
   15MOL   H100 1808   1.828   6.629   3.084 -0.5926  0.6862 -2.2660
   15MOL   H101 1809   1.686   6.673   2.992 -0.6966  1.7207  0.3373
   15MOL   H102 1810   1.647   6.856   3.143  0.0629  1.2559  0.6471
   15MOL   H103 1811   1.807   6.839   3.222 -2.9989  0.9013  0.6481
   15MOL   C104 1812   1.820   6.910   3.024 -0.0643 -0.5729  0.0812
   15MOL   C105 1813   1.867   7.048   3.086  0.3630 -0.1410 -0.4898
   15MOL   H106 1814   1.907   6.853   2.990 -1.3433  0.0124 -4.4548
   15MOL   H107 1815   1.763   6.931   2.933  1.2384 -0.4926 -0.7327
   15MOL   H108 1816   1.773   7.098   3.105  0.1742 -0.7590  0.2225
   15MOL   H109 1817   1.926   7.033   3.176 -0.6271 -3.5586 -0.3553
   15MOL   C110 1818   1.965   7.126   2.984  0.3274  0.6244  0.3378
   15MOL   C111 1819   2.051   7.237   3.042 -0.0890  0.2572  0.2800
   15MOL   H112 1820   2.027   7.056   2.929 -0.3040  0.6906 -0.4617
   15MOL   H113 1821   1.903   7.170   2.906  0.6234 -0.8159 -0.7434
   15MOL   H114 1822   1.991   7.290   3.116 -0.2629 -0.7351  0.8718
   15MOL   H115 1823   2.132   7.185   3.094  1.4915  2.8611  0.4972
   15MOL   C116 1824   2.120   7.328   2.936 -0.4959 -0.0154 -0.0207
   15MOL   C117 1825   2.170   7.465   2.988  0.0011  0.1563  0.3853
   15MOL   H118 1826   2.200   7.283   2.877  1.6259  3.1588  0.3431
   15MOL   H119 1827   2.043   7.349   2.861 -1.5359 -2.8649  0.1643
   15MOL   H120 1828   2.212   7.529   2.910 -0.6748  1.5680  1.1493
   15MOL   H121 1829   2.085   7.522   3.027  0.1506  1.3757 -1.0371
   15MOL   H122 1830   2.247   7.452   3.064  0.4587 -0.5044 -0.1898
   16MOL     C1 1831   7.525   1.754   1.408  0.6615  0.1110 -0.5405
   16MOL     C2 1832   7.521   1.700   1.260 -0.1357  0.1194 -0.1256
   16MOL     H3 1833   7.593   1.708   1.478  0.0946  0.2547  0.1099
   16MOL     H4 1834   7.420   1.763   1.437  0.5696  0.0619 -0.8586
   16MOL     H5 1835   7.627   1.690   1.235 -0.2387  0.2079 -0.5978
   16MOL     H6 1836   7.480   1.599   1.269 -0.0873  0.2337  1.6906
   16MOL     H7 1837   7.572   1.852   1.412 -2.5197  1.6616  0.4059
   16MOL     C8 1838   7.434   1.779   1.172  0.5282 -0.5458 -0.6175
   16MOL     C9 1839   7.414   1.740   1.031 -0.3378 -0.8216 -0.2807
   16MOL    H10 1840   7.333   1.805   1.205  0.9352  0.7833 -0.4019
   16MOL    H11 1841   7.481   1.877   1.174 -0.1089 -0.2596  0.9655
   16MOL    H12 1842   7.498   1.687   0.986  1.6042  0.2667  1.9629
   16MOL    H13 1843   7.316   1.691   1.024 -0.4474 -0.5344 -0.7409
   16MOL    C14 1844   7.378   1.861   0.950  0.6372  0.0987  0.0602
   16MOL    C15 1845   7.342   1.829   0.805 -0.0065 -0.5475 -0.2478
   16MOL    H16 1846   7.302   1.919   1.003  0.6859  0.5666 -0.3756
   16MOL    H17 1847   7.468   1.923   0.950 -0.4123  1.7402  2.9194
   16MOL    H18 1848   7.436   1.808   0.754  0.2525  0.1334 -0.0529
   16MOL    H19 1849   7.274   1.744   0.797  0.6295 -1.0784  0.0045
   16MOL    C20 1850   7.280   1.928   0.712 -0.0913 -0.3539  0.0773
   16MOL    C21 1851   7.262   1.892   0.565  0.3724 -0.0626  0.5708
   16MOL    H22 1852   7.181   1.957   0.747 -0.3651 -0.2004 -0.8355
   16MOL    H23 1853   7.341   2.019   0.713  1.2511 -1.2288  1.3156
   16MOL    H24 1854   7.358   1.856   0.530  1.3335 -0.2186  3.2450
   16MOL    H25 1855   7.203   1.801   0.555  3.2942 -1.7011 -2.7645
   16MOL    C26 1856   7.199   2.011   0.483  0.0779 -0.3795 -0.5501
   16MOL    C27 1857   7.179   1.970   0.336  0.0847  0.1061 -0.4673
   16MOL    H28 1858   7.101   2.030   0.527  0.8285  0.0148  0.9906
   16MOL    H29 1859   7.269   2.094   0.481 -1.5899  1.0667 -1.8401
   16MOL    H30 1860   7.278   1.954   0.293 -0.4642 -1.9156 -1.0407
   16MOL    H31 1861   7.123   1.876   0.338 -1.6446  1.0686 -1.8915
   16MOL    C32 1862   7.105   2.076   0.244  0.2348 -0.0696  0.0736
   16MOL    C33 1863   7.080   2.021   0.092  0.6449 -0.0145  0.3077
   16MOL    H34 1864   7.011   2.109   0.287 -0.6041 -0.6999 -1.2337
   16MOL    H35 1865   7.165   2.165   0.228 -0.2801  0.6149  1.9194
   16MOL    H36 1866   7.172   1.992   0.040  1.0778  1.6497  0.1138
   16MOL    H37 1867   7.037   1.921   0.104  0.2487  0.1849  0.5529
   16MOL    C38 1868   6.991   2.113   7.689  0.4282 -0.0362  0.3035
   16MOL    C39 1869   6.970   2.057   7.543  0.1638 -0.0683 -0.0579
   16MOL    H40 1870   6.893   2.138   0.039  0.3524  0.5931 -0.2425
   16MOL    H41 1871   7.035   2.212   0.002 -1.8932  1.4160 -4.7265
   16MOL    H42 1872   7.072   2.038   7.509  0.8372 -0.5153  2.1635
   16MOL    H43 1873   6.915   1.962   7.546 -0.4132  0.3086  1.6525
   16MOL    C44 1874   6.911   2.171   7.454  0.2927 -0.1406 -0.0350
   16MOL    C45 1875   6.899   2.135   7.306 -0.2574  0.0392 -0.3496
   16MOL    H46 1876   6.815   2.209   7.490 -0.4383  0.6746 -2.6755
   16MOL    H47 1877   6.966   2.265   7.458 -1.0607  0.6453  0.6533
   16MOL    H48 1878   6.894   2.225   7.246 -0.4784  0.6011  0.5041
   16MOL    H49 1879   6.995   2.091   7.277  0.2519  0.7631  0.1901
   16MOL    C50 1880   6.788   2.040   7.266 -0.0037 -0.1336 -0.4902
   16MOL    C51 1881   6.783   2.017   7.113  0.3566  0.1167  0.0064
   16MOL    H52 1882   6.815   1.950   7.322  3.5469  1.5691  0.6801
   16MOL    H53 1883   6.690   2.064   7.306 -0.9290 -1.7558 -1.7358
   16MOL    H54 1884   6.783   2.111   7.059  0.3707  0.3520  0.4134
   16MOL    H55 1885   6.865   1.953   7.080  0.1329 -0.1306 -0.0728
   16MOL    C56 1886   6.651   1.956   7.071 -0.1415  0.2492  0.3601
   16MOL    C57 1887   6.659   1.914   6.926 -0.1476 -0.1789  0.2334
   16MOL    H58 1888   6.640   1.866   7.132  1.4114 -0.7993 -0.8413
   16MOL    H59 1889   6.571   2.025   7.096 -3.5853 -3.4370 -0.0992
   16MOL    H60 1890   6.754   1.866   6.902  0.7399  1.0751  1.1885
   16MOL    H61 1891   6.578   1.845   6.903  0.4456 -0.4964 -0.9459
   16MOL    C62 1892   6.633   2.030   6.833 -0.8724 -0.3309 -0.8062
   16MOL    C63 1893   6.616   1.984   6.688  0.2280 -0.4583  0.2548
   16MOL    H64 1894   6.544   2.081   6.870 -0.7261  0.5338 -1.6258
   16MOL    H65 1895   6.715   2.101   6.838 -2.6824  1.7677 -0.3090
   16MOL    H66 1896   6.609   2.078   6.633  0.8935 -0.4753  0.1482
   16MOL    H67 1897   6.707   1.944   6.646 -0.2297  0.5527 -1.7403
   16MOL    C68 1898   6.490   1.896   6.653  0.7232 -0.1737  0.0889
   16MOL    C69 1899   6.485   1.846   6.507 -0.4225 -0.1977  0.0016
   16MOL    H70 1900   6.484   1.805   6.712 -1.2945 -0.2624 -0.2060
   16MOL    H71 1901   6.402   1.958   6.669  1.1179  0.5190 -0.3733
   16MOL    H72 1902   6.491   1.926   6.433 -1.0527 -0.1953 -0.0522
   16MOL    H73 1903   6.572   1.786   6.483 -0.6076 -0.0457 -1.0973
   16MOL    C74 1904   6.376   1.749   6.473 -0.2110 -0.4052 -0.2584
   16MOL    C75 1905   6.390   1.690   6.336  0.0686 -0.5420 -0.7758
   16MOL    H76 1906   6.387   1.671   6.548 -2.1016 -0.7843 -0.3511
   16MOL    H77 1907   6.285   1.809   6.479  0.4689  1.0565 -3.6092
   16MOL    H78 1908   6.474   1.621   6.331 -0.0131 -0.6952 -0.0924
   16MOL    H79 1909   6.308   1.618   6.330 -0.9689  0.2415  2.8432
   16MOL    C80 1910   6.390   1.788   6.222 -0.4091  0.6451  0.2337
   16MOL    C81 1911   6.347   1.713   6.096  0.1141 -0.5679  0.1930
   16MOL    H82 1912   6.322   1.871   6.238  0.6268  1.5822 -0.2136
   16MOL    H83 1913   6.488   1.834   6.212 -1.3755  2.0720 -3.0545
   16MOL    H84 1914   6.395   1.621   6.062  2.2554  0.8149 -0.6226
   16MOL    H85 1915   6.242   1.688   6.107 -0.1469 -0.8825 -2.6954
   16MOL    C86 1916   6.348   1.806   5.973  0.4424 -0.0589  0.8079
   16MOL    C87 1917   6.256   1.929   5.991  0.0529 -0.2654  0.5592
   16MOL    H88 1918   6.445   1.831   5.929 -0.3670  1.7163 -0.0457
   16MOL    H89 1919   6.305   1.741   5.897  0.8864 -0.4064  0.8559
   16MOL    H90 1920   6.167   1.894   6.044 -0.5286  1.6750  0.9303
   16MOL    H91 1921   6.310   2.002   6.051 -0.7847 -1.0087  2.2510
   16MOL    C92 1922   6.202   1.976   5.855 -0.6939 -0.0166  0.8228
   16MOL    C93 1923   6.100   2.095   5.871  0.1786 -0.3250 -0.0247
   16MOL    H94 1924   6.288   2.011   5.798 -1.2033 -0.9424 -0.5487
   16MOL    H95 1925   6.150   1.896   5.803  0.5365 -1.5349  1.8768
   16MOL    H96 1926   6.030   2.055   5.944  0.0098  2.0154  1.1343
   16MOL    H97 1927   6.148   2.184   5.910  1.0876 -0.6483 -0.3843
   16MOL    C98 1928   6.040   2.128   5.736 -0.0041 -0.4637  0.1701
   16MOL    C99 1929   6.097   2.251   5.650 -0.5653  0.2057 -0.0794
   16MOL   H100 1930   6.062   2.044   5.671  1.5328 -1.5309  2.0231
   16MOL   H101 1931   5.931   2.138   5.743  0.0254 -0.0207  0.0278
   16MOL   H102 1932   6.086   2.338   5.715 -1.0660  1.5944 -1.9986
   16MOL   H103 1933   6.203   2.228   5.642 -1.4318 -4.2620 -0.2660
   16MOL   C104 1934   6.035   2.278   5.513 -0.5814  0.6350  0.6421
   16MOL   C105 1935   6.129   2.362   5.427 -0.2718  0.0390 -0.0034
   16MOL   H106 1936   6.011   2.185   5.460  5.0196 -1.1994  0.9301
   16MOL   H107 1937   5.945   2.333   5.536 -1.2656 -0.8303  1.5834
   16MOL   H108 1938   6.173   2.430   5.499  0.2615  0.6502 -0.9040
   16MOL   H109 1939   6.200   2.293   5.382 -1.2981 -1.7103  0.9571
   16MOL   C110 1940   6.038   2.433   5.323 -0.3879  0.0333 -0.1267
   16MOL   C111 1941   6.110   2.519   5.220  0.1231 -0.6308  0.6759
   16MOL   H112 1942   5.985   2.353   5.271 -2.6142 -0.5694  2.9171
   16MOL   H113 1943   5.956   2.488   5.368 -1.6743 -0.9692 -1.2210
   16MOL   H114 1944   6.150   2.601   5.280  0.7492 -1.3683  1.2861
   16MOL   H115 1945   6.199   2.463   5.194 -1.2291 -1.8597 -1.4342
   16MOL   C116 1946   6.035   2.556   5.092 -0.4866  1.1048 -0.2418
   16MOL   C117 1947   5.922   2.659   5.122  0.2915  0.7564 -0.6288
   16MOL   H118 1948   6.104   2.611   5.027  0.6544 -0.7685 -0.6638
   16MOL   H119 1949   5.994   2.473   5.033  0.7583  0.1032  0.2666
   16MOL   H120 1950   5.862   2.682   5.034 -1.2427  0.0786  0.2083
   16MOL   H121 1951   5.854   2.609   5.192 -0.4568  3.4406  0.6229
   16MOL   H122 1952   5.955   2.744   5.181 -1.8636  2.2414 -1.4760
   17MOL     C1 1953   5.841   7.032   3.709 -0.3767  0.7803 -0.1662
   17MOL     C2 1954   5.811   6.926   3.825 -0.4294 -0.6603  1.0284
   17MOL     H3 1955   5.867   7.132   3.742  0.7292 -0.1936  1.9851
   17MOL     H4 1956   5.761   7.042   3.635  0.1868 -1.8804 -1.2109
   17MOL     H5 1957   5.794   6.825   3.786  4.2617 -1.4676  0.7631
   17MOL     H6 1958   5.902   6.914   3.885 -0.5979  1.1465  1.6685
   17MOL     H7 1959   5.926   7.014   3.643  0.4349  1.1407  0.7749
   17MOL     C8 1960   5.692   6.952   3.913  0.9381  0.2691  0.0604
   17MOL     C9 1961   5.710   7.081   3.993 -0.0904 -0.4147  0.4068
   17MOL    H10 1962   5.596   6.946   3.862 -0.3944  2.5137  2.1415
   17MOL    H11 1963   5.695   6.873   3.988 -0.8288  1.1772  1.1333
   17MOL    H12 1964   5.805   7.082   4.046  1.3834 -1.8069 -2.1646
   17MOL    H13 1965   5.711   7.164   3.922  1.0434 -0.5510  0.2628
   17MOL    C14 1966   5.587   7.107   4.088 -0.6036  0.6949 -0.2672
   17MOL    C15 1967   5.575   7.258   4.122  0.3764 -0.1607 -0.3234
   17MOL    H16 1968   5.496   7.076   4.037 -0.6753  1.1382 -0.4138
   17MOL    H17 1969   5.608   7.046   4.175 -2.7636  2.1014  1.2770
   17MOL    H18 1970   5.669   7.307   4.147 -0.2803  0.5935  0.7131
   17MOL    H19 1971   5.553   7.322   4.036 -0.8398  2.7164  2.0359
   17MOL    C20 1972   5.471   7.280   4.228  0.0905 -0.9784  0.5360
   17MOL    C21 1973   5.429   7.428   4.249  0.2302  0.1745 -0.1403
   17MOL    H22 1974   5.379   7.233   4.195  1.5203 -1.8651 -2.3901
   17MOL    H23 1975   5.503   7.238   4.323  0.1020 -1.0332  0.5079
   17MOL    H24 1976   5.524   7.481   4.236 -0.5070  1.4545 -0.3500
   17MOL    H25 1977   5.365   7.472   4.173  2.0253 -0.3563 -2.0129
   17MOL    C26 1978   5.374   7.453   4.393 -0.3310  0.2736  0.4059
   17MOL    C27 1979   5.300   7.588   4.407  0.0163  0.4957 -0.0286
   17MOL    H28 1980   5.305   7.373   4.418  0.2268 -0.5539 -0.6446
   17MOL    H29 1981   5.451   7.430   4.467 -1.7751 -0.3909  1.7123
   17MOL    H30 1982   5.370   7.670   4.396 -0.5639  1.1381  0.9719
   17MOL    H31 1983   5.229   7.604   4.325  0.7187  0.6384 -0.6124
   17MOL    C32 1984   5.228   7.594   4.548  0.0356 -0.4832 -0.2946
   17MOL    C33 1985   5.168   0.044   4.569  0.3596 -0.2502  0.5622
   17MOL    H34 1986   5.148   7.524   4.571 -1.3680  1.4581  0.8629
   17MOL    H35 1987   5.295   7.587   4.634 -2.4062  0.5650  1.7428
   17MOL    H36 1988   5.248   0.116   4.550  2.9520 -2.6385  1.9642
   17MOL    H37 1989   5.086   0.063   4.501 -1.2883 -1.7261  2.0639
   17MOL    C38 1990   5.116   0.056   4.713 -0.4416  0.5451  0.5486
   17MOL    C39 1991   5.036   0.185   4.724 -0.0871  0.1533 -0.1537
   17MOL    H40 1992   5.052   7.661   4.726 -0.2741  0.0120 -1.8634
   17MOL    H41 1993   5.202   0.066   4.779  2.0721 -0.7398 -2.4028
   17MOL    H42 1994   5.100   0.271   4.705 -0.3113  0.2825 -0.3219
   17MOL    H43 1995   4.959   0.193   4.647 -1.5833  0.7239  1.3725
   17MOL    C44 1996   4.983   0.206   4.863  0.1066  0.5053 -0.1234
   17MOL    C45 1997   4.896   0.337   4.872 -0.2097  0.1936  0.1906
   17MOL    H46 1998   4.938   0.111   4.890 -2.4674  1.4041 -1.1231
   17MOL    H47 1999   5.066   0.217   4.933  0.6179  1.0125 -0.8014
   17MOL    H48 2000   4.952   0.424   4.839 -0.3938  0.8721  1.6258
   17MOL    H49 2001   4.810   0.336   4.805 -1.8402  2.3288  2.1673
   17MOL    C50 2002   4.846   0.361   5.017  0.0451  0.6055 -0.0180
   17MOL    C51 2003   4.776   0.496   5.042  0.4855 -0.3065 -0.3189
   17MOL    H52 2004   4.771   0.288   5.047  0.6325 -0.5610 -1.3762
   17MOL    H53 2005   4.937   0.364   5.076 -0.6758  0.9796  1.0994
   17MOL    H54 2006   4.845   0.579   5.056 -0.3514  0.0289  2.0608
   17MOL    H55 2007   4.700   0.526   4.969 -0.0839  0.4210  0.5583
   17MOL    C56 2008   4.698   0.500   5.175 -0.6089  0.1564 -0.4543
   17MOL    C57 2009   4.643   0.644   5.219  0.6113  0.8727  0.0385
   17MOL    H58 2010   4.615   0.430   5.176 -0.7448  0.3155 -0.6827
   17MOL    H59 2011   4.760   0.461   5.256 -0.1745  2.9255  0.6203
   17MOL    H60 2012   4.726   0.709   5.247 -0.6637  1.7791  1.8576
   17MOL    H61 2013   4.596   0.696   5.136  0.8063 -0.2652 -0.7923
   17MOL    C62 2014   4.540   0.630   5.342 -0.0191  0.1276 -0.2564
   17MOL    C63 2015   4.471   0.754   5.388 -0.4365  0.5023 -0.1527
   17MOL    H64 2016   4.466   0.563   5.300  1.4367 -0.3098 -2.1787
   17MOL    H65 2017   4.597   0.588   5.425 -2.7118  1.5280  2.4056
   17MOL    H66 2018   4.549   0.806   5.443 -1.3402  0.6795  0.9928
   17MOL    H67 2019   4.455   0.823   5.305 -1.5881  1.7615  1.0703
   17MOL    C68 2020   4.347   0.738   5.472  0.1299 -0.2238 -0.4365
   17MOL    C69 2021   4.369   0.655   5.608 -0.4510  0.1436  0.2023
   17MOL    H70 2022   4.309   0.835   5.504  1.7812  0.0840  0.6610
   17MOL    H71 2023   4.270   0.702   5.404  0.4203 -1.1823 -0.2603
   17MOL    H72 2024   4.397   0.553   5.583 -3.2006 -0.6318  0.1250
   17MOL    H73 2025   4.455   0.693   5.663 -0.3874 -0.0836  0.2601
   17MOL    C74 2026   4.254   0.656   5.706 -0.9494 -0.0617 -0.0865
   17MOL    C75 2027   4.308   0.595   5.841 -0.4735  0.3566 -0.2729
   17MOL    H76 2028   4.219   0.759   5.719  1.5979  1.0690 -1.8743
   17MOL    H77 2029   4.172   0.593   5.671 -1.0359  0.8238 -1.5201
   17MOL    H78 2030   4.380   0.670   5.875  0.8610 -0.7716 -0.5712
   17MOL    H79 2031   4.235   0.593   5.922 -0.1268  0.8934  0.0615
   17MOL    C80 2032   4.376   0.456   5.838 -0.0919  0.3166  0.3425
   17MOL    C81 2033   4.271   0.354   5.787 -0.1631  0.1439 -0.4863
   17MOL    H82 2034   4.464   0.465   5.774  0.2299  0.0442  0.7474
   17MOL    H83 2035   4.405   0.429   5.939 -1.1017  1.7622  1.0396
   17MOL    H84 2036   4.190   0.354   5.860  0.7023  0.6030  0.4868
   17MOL    H85 2037   4.238   0.386   5.689 -0.5294  2.0159  0.2282
   17MOL    C86 2038   4.317   0.210   5.765 -0.2016  0.6911  0.1956
   17MOL    C87 2039   4.203   0.117   5.735 -0.0023  0.9151 -0.6736
   17MOL    H88 2040   4.382   0.214   5.678 -0.3882 -0.5925 -0.0107
   17MOL    H89 2041   4.377   0.177   5.851 -1.0620 -0.7615  0.2516
   17MOL    H90 2042   4.137   0.105   5.821 -0.4439  1.1997 -0.9655
   17MOL    H91 2043   4.138   0.168   5.663 -0.3378  0.9138 -0.3715
   17MOL    C92 2044   4.244   7.676   5.684 -0.3582  0.1726  0.2329
   17MOL    C93 2045   4.123   7.593   5.636  0.7709 -0.3475  0.0626
   17MOL    H94 2046   4.314   7.690   5.602  0.7063 -0.5804  1.0059
   17MOL    H95 2047   4.292   7.622   5.766 -2.5516 -0.9122  0.8355
   17MOL    H96 2048   4.061   7.569   5.723  1.1826 -0.4094  0.3400
   17MOL    H97 2049   4.069   7.657   5.566  1.4024  0.1273  0.0073
   17MOL    C98 2050   4.167   7.460   5.570 -0.0837  0.4053  1.2246
   17MOL    C99 2051   4.066   7.410   5.466 -0.1679  0.7175  0.1898
   17MOL   H100 2052   4.264   7.468   5.522 -0.5497  1.0550  0.3791
   17MOL   H101 2053   4.174   7.388   5.652 -1.3183 -0.1804  0.8304
   17MOL   H102 2054   3.970   7.418   5.516 -1.0515  2.2870 -1.7145
   17MOL   H103 2055   4.059   7.479   5.382  1.5181 -0.3612 -0.8668
   17MOL   C104 2056   4.093   7.270   5.401  0.3218  0.7733 -0.4164
   17MOL   C105 2057   4.014   7.243   5.273  0.2434 -0.2095 -0.0971
   17MOL   H106 2058   4.201   7.260   5.389  0.3454  0.4033  0.0664
   17MOL   H107 2059   4.064   7.192   5.471  2.4063 -0.4261 -0.8385
   17MOL   H108 2060   3.910   7.229   5.303  0.2450  0.7606  0.3798
   17MOL   H109 2061   4.029   7.330   5.210 -1.8315 -1.1712 -1.9753
   17MOL   C110 2062   4.069   7.110   5.208  0.3421  0.2253 -0.3479
   17MOL   C111 2063   3.973   7.064   5.095 -0.7461 -0.5154 -0.2379
   17MOL   H112 2064   4.171   7.117   5.171  1.1485  0.8205  1.8873
   17MOL   H113 2065   4.064   7.027   5.278 -2.1573  1.8716  1.5489
   17MOL   H114 2066   3.883   7.037   5.151 -0.3994  1.0573  1.1328
   17MOL   H115 2067   3.950   7.140   5.021 -0.1208 -0.5400 -0.4642
   17MOL   C116 2068   4.019   6.943   5.022 -0.1765 -0.4114  0.4215
   17MOL   C117 2069   3.944   6.914   4.886 -0.1300 -0.4846 -0.1134
   17MOL   H118 2070   4.125   6.953   4.999 -0.5928 -1.1909 -2.0105
   17MOL   H119 2071   4.017   6.858   5.090 -0.0634 -1.1495 -0.4735
   17MOL   H120 2072   3.852   6.861   4.911  0.1509 -1.5501 -1.3039
   17MOL   H121 2073   3.928   7.003   4.825  1.2903 -0.2760 -0.1992
   17MOL   H122 2074   4.001   6.843   4.826 -0.8733 -1.4601  0.3118
   18MOL     C1 2075   3.968   6.848   1.088  0.0199  0.3880 -0.9221
   18MOL     C2 2076   3.892   6.822   0.961 -0.7705  0.5334  0.4205
   18MOL     H3 2077   3.981   6.756   1.144  2.9494 -0.0131 -2.1530
   18MOL     H4 2078   3.917   6.928   1.141 -0.9518 -1.1852  0.5577
   18MOL     H5 2079   3.943   6.749   0.899 -1.1317  0.2120  0.5007
   18MOL     H6 2080   3.793   6.785   0.987 -1.3075  0.3953 -1.7201
   18MOL     H7 2081   4.070   6.878   1.063  0.3921  0.9515  1.1795
   18MOL     C8 2082   3.879   6.958   0.887 -0.2625 -0.3534 -0.5539
   18MOL     C9 2083   3.802   6.942   0.754 -0.5052  0.1364  0.5024
   18MOL    H10 2084   3.831   7.030   0.953 -0.2334 -0.9194  0.0902
   18MOL    H11 2085   3.978   6.997   0.864  0.2374  0.1897  2.3107
   18MOL    H12 2086   3.791   7.028   0.688 -0.3181 -0.0560  0.2180
   18MOL    H13 2087   3.840   6.853   0.703 -2.5359  0.1092 -1.0391
   18MOL    C14 2088   3.657   6.927   0.797  0.6358 -0.7197 -0.0874
   18MOL    C15 2089   3.550   6.912   0.692 -0.1398 -0.1583 -0.5469
   18MOL    H16 2090   3.646   6.847   0.870 -0.2588 -0.9656 -0.4797
   18MOL    H17 2091   3.620   7.016   0.849  0.0254 -0.6778 -0.5839
   18MOL    H18 2092   3.546   7.000   0.628 -0.7027 -0.1447 -0.4928
   18MOL    H19 2093   3.588   6.842   0.618  1.0057  0.2792 -0.3832
   18MOL    C20 2094   3.403   6.882   0.739  0.1765  0.3459 -0.1631
   18MOL    C21 2095   3.323   7.005   0.794 -0.3004  0.3890 -0.4730
   18MOL    H22 2096   3.350   6.834   0.657 -1.1486  2.6719 -0.6899
   18MOL    H23 2097   3.416   6.804   0.815  0.0043  0.4961  0.0217
   18MOL    H24 2098   3.381   7.058   0.870  0.5422  2.1317 -2.3182
   18MOL    H25 2099   3.315   7.080   0.716  0.7992  1.4938  0.4507
   18MOL    C26 2100   3.192   6.955   0.866 -0.0907  1.2864  0.1437
   18MOL    C27 2101   3.115   7.067   0.943 -0.4981  0.6197  0.4569
   18MOL    H28 2102   3.120   6.909   0.798 -0.9147  1.6590  0.7506
   18MOL    H29 2103   3.222   6.871   0.930 -0.8844  1.0662  0.2467
   18MOL    H30 2104   3.176   7.112   1.021  0.3650  2.7577 -1.4197
   18MOL    H31 2105   3.097   7.148   0.873 -3.0405  0.3211  0.7244
   18MOL    C32 2106   2.985   7.017   0.996 -0.2806  0.1447  0.0121
   18MOL    C33 2107   2.987   6.943   1.137 -0.2996 -0.4408  0.0036
   18MOL    H34 2108   2.918   7.103   1.004 -2.8817 -1.8206  0.4116
   18MOL    H35 2109   2.943   6.957   0.915  0.1939 -0.4153  0.1761
   18MOL    H36 2110   3.069   6.871   1.134  1.3791  1.3545  1.1920
   18MOL    H37 2111   3.009   7.027   1.204 -1.0662  0.5544 -0.9602
   18MOL    C38 2112   2.852   6.883   1.161  0.0615  0.2638 -0.1822
   18MOL    C39 2113   2.835   6.790   1.276  0.0119 -0.6477 -0.2676
   18MOL    H40 2114   2.777   6.961   1.170 -0.4158 -0.2894  0.6460
   18MOL    H41 2115   2.826   6.830   1.069 -0.0684  2.5859 -1.5378
   18MOL    H42 2116   2.899   6.704   1.260  1.8890  0.5054  0.8667
   18MOL    H43 2117   2.877   6.836   1.365  0.2928  0.5994 -1.0205
   18MOL    C44 2118   2.682   6.751   1.288 -0.5792  0.3821  0.1175
   18MOL    C45 2119   2.667   6.650   1.401  0.5914  0.2319 -0.1765
   18MOL    H46 2120   2.623   6.839   1.313 -0.3098  0.9672 -1.2633
   18MOL    H47 2121   2.637   6.714   1.196 -2.2141 -0.3921  1.2064
   18MOL    H48 2122   2.702   6.696   1.493 -0.6614  0.9506 -0.0497
   18MOL    H49 2123   2.561   6.628   1.413  1.0954 -1.0894  2.2023
   18MOL    C50 2124   2.723   6.504   1.388  0.0294 -0.6761 -0.0860
   18MOL    C51 2125   2.655   6.424   1.277  0.0914 -0.0039  0.0833
   18MOL    H52 2126   2.830   6.499   1.368 -0.2479 -3.0040 -1.2394
   18MOL    H53 2127   2.709   6.443   1.477  3.0353 -1.0128  0.2319
   18MOL    H54 2128   2.547   6.420   1.294 -0.0400 -0.5947 -0.8639
   18MOL    H55 2129   2.676   6.455   1.175  2.5684 -0.0156  0.5546
   18MOL    C56 2130   2.708   6.283   1.282  0.0286 -0.1760 -0.0043
   18MOL    C57 2131   2.625   6.190   1.366  0.3397  0.4090 -0.4680
   18MOL    H58 2132   2.715   6.249   1.179  2.1605  1.5505 -0.4578
   18MOL    H59 2133   2.811   6.283   1.317  1.0037  1.0323 -2.7641
   18MOL    H60 2134   2.625   6.218   1.471  0.1624 -0.0778 -0.3405
   18MOL    H61 2135   2.524   6.188   1.325  0.8802 -1.6337 -1.7600
   18MOL    C62 2136   2.683   6.042   1.347 -0.6800 -0.0871 -0.0478
   18MOL    C63 2137   2.600   5.944   1.429  0.0441  0.0478 -0.5831
   18MOL    H64 2138   2.695   6.027   1.239 -2.2280  0.0060 -0.2427
   18MOL    H65 2139   2.777   6.044   1.401 -0.9427  1.2314  0.3571
   18MOL    H66 2140   2.615   5.961   1.535  3.0140 -0.3677 -0.9026
   18MOL    H67 2141   2.495   5.957   1.401  0.0675 -0.3846 -0.8947
   18MOL    C68 2142   2.644   5.800   1.392  0.0983 -0.2142  0.0920
   18MOL    C69 2143   2.543   5.696   1.455 -0.0650 -0.2377  0.1789
   18MOL    H70 2144   2.659   5.794   1.284  2.3025  1.0083  0.3048
   18MOL    H71 2145   2.741   5.776   1.435  0.0412 -2.1386 -0.7989
   18MOL    H72 2146   2.519   5.705   1.561 -2.1870 -1.4287 -0.1821
   18MOL    H73 2147   2.447   5.714   1.407  0.6634  1.0581 -0.8425
   18MOL    C74 2148   2.592   5.550   1.427 -0.0786  0.6450 -0.7279
   18MOL    C75 2149   2.504   5.444   1.499  1.0744 -0.1812  0.1459
   18MOL    H76 2150   2.592   5.529   1.320 -2.8765  0.2167 -0.6716
   18MOL    H77 2151   2.695   5.525   1.452 -0.0383  1.2564 -0.2577
   18MOL    H78 2152   2.496   5.475   1.603 -1.4416 -1.0491  0.2512
   18MOL    H79 2153   2.402   5.456   1.464  1.4797 -2.4320 -1.9735
   18MOL    C80 2154   2.546   5.298   1.470  0.3876  0.0871  0.6613
   18MOL    C81 2155   2.454   5.186   1.529  0.2803  0.1172  0.1720
   18MOL    H82 2156   2.539   5.281   1.362 -0.1403 -2.1536  1.0133
   18MOL    H83 2157   2.653   5.282   1.482  0.4465  0.4376  0.6100
   18MOL    H84 2158   2.471   5.176   1.636  2.1879 -0.9122 -0.2198
   18MOL    H85 2159   2.346   5.196   1.512 -0.4176 -4.3417  1.1970
   18MOL    C86 2160   2.475   5.049   1.471  0.1939  0.4323 -0.7483
   18MOL    C87 2161   2.405   4.944   1.560 -0.2861 -0.2397  0.0555
   18MOL    H88 2162   2.436   5.043   1.369  0.1592  1.0868 -0.7753
   18MOL    H89 2163   2.581   5.021   1.468  0.2481  0.5747 -0.2499
   18MOL    H90 2164   2.452   4.944   1.658 -0.3294  0.1395  0.0742
   18MOL    H91 2165   2.301   4.974   1.572 -0.3086  0.4258 -1.6280
   18MOL    C92 2166   2.411   4.800   1.498  0.3802  0.4439  0.0329
   18MOL    C93 2167   2.330   4.694   1.575  0.1548  0.2797  0.1537
   18MOL    H94 2168   2.384   4.804   1.392 -1.8076  2.1617  0.6135
   18MOL    H95 2169   2.511   4.758   1.506  0.2330 -0.0018 -0.3955
   18MOL    H96 2170   2.381   4.600   1.557 -1.6732 -0.4097 -1.6291
   18MOL    H97 2171   2.329   4.726   1.680  1.1916 -0.2511  0.3273
   18MOL    C98 2172   2.189   4.662   1.521  0.1977  0.2626 -0.8698
   18MOL    C99 2173   2.129   4.539   1.599 -0.7300  0.1172  0.2721
   18MOL   H100 2174   2.120   4.746   1.531  1.6904  1.6581 -2.1652
   18MOL   H101 2175   2.180   4.639   1.415  1.7860 -1.8721 -0.5609
   18MOL   H102 2176   2.168   4.455   1.541  1.2245  0.1757  1.4457
   18MOL   H103 2177   2.168   4.536   1.701 -1.0288  0.9123  0.4072
   18MOL   C104 2178   1.975   4.543   1.603 -0.5336  0.1439  0.2678
   18MOL   C105 2179   1.902   4.540   1.468 -0.2192 -0.0371 -0.1051
   18MOL   H106 2180   1.940   4.468   1.673 -0.8875 -0.5107 -0.5938
   18MOL   H107 2181   1.945   4.639   1.645 -0.9659 -1.3253  3.4830
   18MOL   H108 2182   1.934   4.624   1.407 -0.1099  0.8724  1.1850
   18MOL   H109 2183   1.929   4.445   1.421  1.9015  1.1900 -1.4683
   18MOL   C110 2184   1.751   4.557   1.485 -0.6386 -0.8776  0.5981
   18MOL   C111 2185   1.686   4.499   1.360 -0.2537 -0.4826 -0.6119
   18MOL   H112 2186   1.725   4.517   1.583 -0.7803  1.1832  1.4279
   18MOL   H113 2187   1.743   4.665   1.490  1.0482 -0.7604  1.1079
   18MOL   H114 2188   1.724   4.552   1.273 -1.8406  0.3288 -0.8341
   18MOL   H115 2189   1.721   4.397   1.344 -1.8874 -1.1203 -0.1678
   18MOL   C116 2190   1.532   4.511   1.363  0.0018  0.5268 -0.3327
   18MOL   C117 2191   1.466   4.401   1.268 -0.4180  0.0487 -0.2855
   18MOL   H118 2192   1.491   4.493   1.463  0.6808 -1.4815 -0.3937
   18MOL   H119 2193   1.510   4.614   1.337 -0.8960  0.0110 -1.6618
   18MOL   H120 2194   1.405   4.450   1.192 -2.9452 -0.7207  1.2156
   18MOL   H121 2195   1.545   4.339   1.226  0.7469  0.2818  1.5142
   18MOL   H122 2196   1.406   4.341   1.335 -0.3865  0.0826 -0.2268
   19MOL     C1 2197   7.683   3.924   5.963  0.5896  0.5624 -0.5389
   19MOL     C2 2198   0.130   3.981   5.937  0.3409 -0.1440 -0.7320
   19MOL     H3 2199   7.606   4.001   5.960 -0.6910 -0.6497  0.4754
   19MOL     H4 2200   7.683   3.872   6.059  1.1002  1.0581 -0.2687
   19MOL     H5 2201   0.200   3.900   5.954  0.9915  0.6537  0.4864
   19MOL     H6 2202   0.137   4.022   5.836 -1.3455  0.4489 -0.6295
   19MOL     H7 2203   7.663   3.848   5.887 -1.3647 -0.9201  1.3837
   19MOL     C8 2204   0.152   4.093   6.041 -0.1593  0.4376  0.1537
   19MOL     C9 2205   0.269   4.191   6.008 -0.5830 -0.0432  0.6015
   19MOL    H10 2206   0.063   4.154   6.054  1.1121  2.4622 -0.4021
   19MOL    H11 2207   0.162   4.050   6.141 -1.1808  2.1291  1.0304
   19MOL    H12 2208   0.359   4.131   6.022 -0.7423 -0.9250 -1.7636
   19MOL    H13 2209   0.278   4.221   5.903  0.4595  0.8898  0.9422
   19MOL    C14 2210   0.275   4.315   6.085 -0.2016 -0.7308  0.0399
   19MOL    C15 2211   0.402   4.398   6.075 -0.4192 -0.5479 -0.2502
   19MOL    H16 2212   0.197   4.387   6.058 -1.4644 -1.4194  1.7770
   19MOL    H17 2213   0.238   4.299   6.186 -1.7528  0.9816 -0.2162
   19MOL    H18 2214   0.491   4.352   6.118 -0.1990 -1.2883 -1.4761
   19MOL    H19 2215   0.424   4.412   5.969 -3.0682  4.0885 -0.3023
   19MOL    C20 2216   0.388   4.537   6.147 -0.2348  0.1520 -0.0324
   19MOL    C21 2217   0.505   4.634   6.127  0.7146  0.1724  0.7258
   19MOL    H22 2218   0.292   4.585   6.127 -0.3127  0.0286  0.0461
   19MOL    H23 2219   0.388   4.527   6.255 -0.8310 -1.0807 -0.1337
   19MOL    H24 2220   0.597   4.575   6.128 -0.5340 -1.7897  0.7939
   19MOL    H25 2221   0.503   4.682   6.028 -0.9079 -0.6639  0.3491
   19MOL    C26 2222   0.514   4.727   6.249 -0.8063 -0.1525  0.4906
   19MOL    C27 2223   0.635   4.816   6.229  0.3245 -0.5907  0.1736
   19MOL    H28 2224   0.418   4.779   6.248 -0.5805  0.2720 -0.9092
   19MOL    H29 2225   0.523   4.668   6.340  0.7668 -0.0258  0.4228
   19MOL    H30 2226   0.729   4.761   6.227  0.6432 -0.2588  3.4196
   19MOL    H31 2227   0.614   4.857   6.130 -1.7571 -0.6500  0.5594
   19MOL    C32 2228   0.655   4.923   6.334 -0.0245  0.1620  0.0957
   19MOL    C33 2229   0.776   5.012   6.319 -0.2630  0.0388 -0.1461
   19MOL    H34 2230   0.561   4.979   6.337  0.5206  1.0473  0.9345
   19MOL    H35 2231   0.652   4.872   6.431 -1.7965  0.8944  0.4631
   19MOL    H36 2232   0.866   4.951   6.321  0.2119  0.7330 -0.0874
   19MOL    H37 2233   0.762   5.065   6.225 -2.8428  4.0475  2.3419
   19MOL    C38 2234   0.789   5.118   6.435  0.0373  0.0663 -0.6037
   19MOL    C39 2235   0.899   5.215   6.388  0.3009 -0.7741  0.4456
   19MOL    H40 2236   0.690   5.157   6.459 -0.4087 -0.3008 -1.7951
   19MOL    H41 2237   0.826   5.072   6.526 -1.0894  0.1771 -0.0861
   19MOL    H42 2238   0.869   5.245   6.287  0.3978 -1.0954  0.3216
   19MOL    H43 2239   0.906   5.299   6.457  0.2527 -2.5263  2.5996
   19MOL    C44 2240   1.042   5.151   6.379 -0.1515  0.2201  0.0728
   19MOL    C45 2241   1.144   5.264   6.371 -0.0998  0.2509 -0.4193
   19MOL    H46 2242   1.059   5.097   6.471  0.8847 -0.8801 -0.7449
   19MOL    H47 2243   1.055   5.079   6.298 -1.7260  1.5344 -1.4008
   19MOL    H48 2244   1.112   5.338   6.298  1.8747  2.0480  0.4634
   19MOL    H49 2245   1.140   5.310   6.470 -0.5245  0.1795 -0.4058
   19MOL    C50 2246   1.288   5.223   6.337 -0.0841 -0.0660 -0.0856
   19MOL    C51 2247   1.393   5.340   6.344  0.5413 -0.4148 -0.3503
   19MOL    H52 2248   1.339   5.147   6.395  0.2473 -0.7474 -1.2567
   19MOL    H53 2249   1.287   5.199   6.231  0.5583 -1.2415  0.1677
   19MOL    H54 2250   1.356   5.424   6.285  0.0169 -0.1059  0.4101
   19MOL    H55 2251   1.391   5.377   6.447 -2.3392  1.2906 -0.9728
   19MOL    C56 2252   1.536   5.302   6.298 -0.4709 -0.0665 -0.1241
   19MOL    C57 2253   1.633   5.416   6.333 -0.4269  0.6508 -0.2748
   19MOL    H58 2254   1.565   5.210   6.348  2.0370 -0.7006 -2.5658
   19MOL    H59 2255   1.532   5.275   6.192  1.6425  1.4282 -0.6177
   19MOL    H60 2256   1.624   5.506   6.273 -0.8377  1.0122  0.3297
   19MOL    H61 2257   1.613   5.448   6.435  1.6335 -0.6728  0.5808
   19MOL    C62 2258   1.784   5.374   6.344  0.0042 -0.4661 -0.5376
   19MOL    C63 2259   1.873   5.488   6.418  0.1579 -1.0105  0.2614
   19MOL    H64 2260   1.809   5.279   6.391  2.2284 -0.9215 -2.5360
   19MOL    H65 2261   1.822   5.368   6.242 -1.8412  1.3258 -1.3646
   19MOL    H66 2262   1.850   5.588   6.383  0.2506 -0.8424  0.6777
   19MOL    H67 2263   1.866   5.487   6.527  3.0170 -2.2473  0.4961
   19MOL    C68 2264   2.021   5.453   6.392  0.4427 -0.4628  0.0382
   19MOL    C69 2265   2.106   5.574   6.423 -0.1420 -0.1062  0.7628
   19MOL    H70 2266   2.052   5.361   6.442 -1.9591 -2.2531 -1.6464
   19MOL    H71 2267   2.042   5.432   6.287 -3.3518  1.2920 -1.1373
   19MOL    H72 2268   2.068   5.663   6.373 -2.2460 -1.0278  0.6472
   19MOL    H73 2269   2.091   5.602   6.527  1.8479  1.8102  0.5570
   19MOL    C74 2270   2.260   5.547   6.396  0.3847  0.1466 -0.9444
   19MOL    C75 2271   2.343   5.644   6.478  0.0370 -0.1592 -0.3587
   19MOL    H76 2272   2.286   5.453   6.444  0.0772  1.2739  1.4919
   19MOL    H77 2273   2.281   5.545   6.289 -1.1468 -0.6442 -1.2495
   19MOL    H78 2274   2.335   5.742   6.431  2.0320 -0.6468 -1.7813
   19MOL    H79 2275   2.321   5.653   6.584  0.4788  2.1035 -0.4292
   19MOL    C80 2276   2.492   5.608   6.476  0.4597 -0.4935  0.2194
   19MOL    C81 2277   2.589   5.714   6.529 -0.3506  0.5166 -0.1657
   19MOL    H82 2278   2.511   5.516   6.531  2.3937  1.5423  3.0489
   19MOL    H83 2279   2.527   5.578   6.377  0.3491 -0.9865  0.3296
   19MOL    H84 2280   2.582   5.810   6.478 -0.1283  0.8420  0.4050
   19MOL    H85 2281   2.558   5.734   6.631  0.7334 -1.7558  0.6476
   19MOL    C86 2282   2.733   5.663   6.522  0.0662 -0.2178 -0.2432
   19MOL    C87 2283   2.842   5.770   6.528 -1.2359  0.0824 -0.0854
   19MOL    H88 2284   2.747   5.605   6.613  0.7250  0.3381  0.0176
   19MOL    H89 2285   2.756   5.584   6.451  3.0170  0.5883 -0.2813
   19MOL    H90 2286   2.851   5.804   6.425 -0.4346  0.8577  0.2302
   19MOL    H91 2287   2.808   5.857   6.584 -1.1566  0.8079 -1.1432
   19MOL    C92 2288   2.987   5.714   6.571  0.1021  0.4108 -0.9857
   19MOL    C93 2289   3.101   5.757   6.481  0.2822  0.1948 -0.3200
   19MOL    H94 2290   2.986   5.730   6.678 -1.7556  1.2652 -1.1133
   19MOL    H95 2291   2.983   5.605   6.562  1.5622  0.3394 -0.8390
   19MOL    H96 2292   3.192   5.713   6.521  0.2790  1.7557  1.4469
   19MOL    H97 2293   3.083   5.702   6.388  2.9893  1.3194 -1.5780
   19MOL    C98 2294   3.124   5.912   6.458 -0.0435  0.6752  1.0557
   19MOL    C99 2295   3.235   5.946   6.356  0.4003  0.2336  0.4970
   19MOL   H100 2296   3.033   5.967   6.435  0.2741  0.9451  0.4239
   19MOL   H101 2297   3.166   5.948   6.552  0.9122 -0.1405  0.9426
   19MOL   H102 2298   3.204   5.930   6.253 -1.7771  0.5185  1.0941
   19MOL   H103 2299   3.268   6.050   6.365  1.9745 -0.0945 -1.1244
   19MOL   C104 2300   3.364   5.857   6.386 -0.4166  0.7806 -0.4659
   19MOL   C105 2301   3.493   5.903   6.306  0.0100 -0.3049 -0.1033
   19MOL   H106 2302   3.388   5.862   6.492  0.7537 -0.1595 -0.6798
   19MOL   H107 2303   3.341   5.753   6.361  1.0552  0.7263 -1.6863
   19MOL   H108 2304   3.511   6.011   6.299  2.5579 -0.6036  1.1463
   19MOL   H109 2305   3.584   5.875   6.359  1.1005  1.4915 -0.9832
   19MOL   C110 2306   3.504   5.842   6.166  0.3984  0.5203 -0.7436
   19MOL   C111 2307   3.632   5.889   6.095  0.4215  0.6526  0.1533
   19MOL   H112 2308   3.503   5.733   6.164 -2.5344  0.5060 -1.8179
   19MOL   H113 2309   3.410   5.864   6.115 -2.3632 -3.3884  2.3266
   19MOL   H114 2310   3.632   5.998   6.094  2.1873  0.6649  0.6100
   19MOL   H115 2311   3.713   5.860   6.161  1.2914  1.2986 -0.6223
   19MOL   C116 2312   3.644   5.847   5.946  0.3082 -0.7580 -0.4680
   19MOL   C117 2313   3.666   5.692   5.918  0.4822 -0.3494  0.5022
   19MOL   H118 2314   3.557   5.893   5.899  0.8332  1.5940  0.7937
   19MOL   H119 2315   3.726   5.902   5.901 -0.5766 -0.5487 -1.8435
   19MOL   H120 2316   3.766   5.664   5.952 -0.1126 -1.5821  1.2973
   19MOL   H121 2317   3.593   5.627   5.967 -1.3885  0.2175 -1.4517
   19MOL   H122 2318   3.659   5.684   5.810  2.4974 -0.9269  0.3798
   20MOL     C1 2319   7.487   6.652   6.986 -0.5190  0.6640  0.0402
   20MOL     C2 2320   7.356   6.597   7.054  0.5451 -0.9495 -0.0357
   20MOL     H3 2321   7.573   6.676   7.049  0.9398  0.6261 -1.8824
   20MOL     H4 2322   7.466   6.742   6.929  1.9490  1.4432  0.2837
   20MOL     H5 2323   7.385   6.513   7.117  1.9057  0.0664  0.7335
   20MOL     H6 2324   7.326   6.676   7.123  1.0284  1.3702 -2.4199
   20MOL     H7 2325   7.519   6.579   6.911  0.0276  0.4550  0.4723
   20MOL     C8 2326   7.246   6.564   6.954  0.4663 -0.0339 -0.3407
   20MOL     C9 2327   7.115   6.524   7.024 -0.4697  0.3861 -0.9245
   20MOL    H10 2328   7.224   6.650   6.891  0.1705 -0.7070 -1.1727
   20MOL    H11 2329   7.275   6.476   6.896 -1.1758 -0.2571 -0.8594
   20MOL    H12 2330   7.128   6.437   7.088 -2.0093 -0.6780 -2.0175
   20MOL    H13 2331   7.078   6.610   7.079 -0.8804 -0.8526  0.7637
   20MOL    C14 2332   7.003   6.497   6.929 -0.0609 -0.4218  0.1997
   20MOL    C15 2333   6.873   6.465   7.012 -0.6544  0.4009  0.3944
   20MOL    H16 2334   6.984   6.574   6.854  0.6556 -0.9061 -0.4842
   20MOL    H17 2335   7.014   6.406   6.870 -1.9311 -0.2960 -0.3762
   20MOL    H18 2336   6.883   6.369   7.064 -2.3721 -1.0435 -1.8069
   20MOL    H19 2337   6.846   6.529   7.096 -1.4888 -1.2761  1.4637
   20MOL    C20 2338   6.742   6.442   6.928  0.0400 -0.1478 -0.2482
   20MOL    C21 2339   6.618   6.399   7.013  0.1216 -0.5781  0.2777
   20MOL    H22 2340   6.725   6.534   6.874  0.9673  1.5332  2.2276
   20MOL    H23 2341   6.765   6.358   6.863 -1.3973 -2.1986  1.7706
   20MOL    H24 2342   6.658   6.307   7.055  0.9471 -1.7218 -2.8281
   20MOL    H25 2343   6.609   6.465   7.099  1.4312  1.4080 -1.0565
   20MOL    C26 2344   6.493   6.365   6.938  0.2698 -0.4317 -0.0679
   20MOL    C27 2345   6.381   6.312   7.029 -0.1621  0.2934  0.1908
   20MOL    H28 2346   6.476   6.461   6.890  0.3771 -0.2945  0.1656
   20MOL    H29 2347   6.517   6.281   6.872 -0.7449 -0.8840  0.1361
   20MOL    H30 2348   6.411   6.208   7.036 -1.8499 -0.2815 -0.7763
   20MOL    H31 2349   6.388   6.354   7.129 -1.9932  0.8328  0.1245
   20MOL    C32 2350   6.235   6.328   6.970  0.1770 -0.2262 -0.3039
   20MOL    C33 2351   6.205   6.240   6.856 -0.3566 -0.1476 -0.3011
   20MOL    H34 2352   6.161   6.316   7.050 -0.1466 -1.1930 -0.7372
   20MOL    H35 2353   6.234   6.433   6.942 -1.7164 -0.3945 -0.9829
   20MOL    H36 2354   6.267   6.286   6.778 -1.2237  1.9567  0.2216
   20MOL    H37 2355   6.242   6.139   6.876  0.5391 -0.0087 -1.1985
   20MOL    C38 2356   6.054   6.255   6.808 -0.3223  0.4607  0.5760
   20MOL    C39 2357   6.034   6.186   6.668  1.2310 -0.3361 -0.4526
   20MOL    H40 2358   5.990   6.212   6.884  0.2927  0.8040  1.2942
   20MOL    H41 2359   6.037   6.362   6.809  0.9129  0.6706  0.5087
   20MOL    H42 2360   6.093   6.247   6.599  1.7011  0.2758  0.4713
   20MOL    H43 2361   6.068   6.083   6.679 -1.7806 -1.1711  1.5701
   20MOL    C44 2362   5.887   6.189   6.624 -0.5798  0.0646  0.6127
   20MOL    C45 2363   5.792   6.109   6.709  0.8074  0.5522  0.5322
   20MOL    H46 2364   5.856   6.293   6.626 -1.6156 -0.1817 -1.4286
   20MOL    H47 2365   5.884   6.167   6.517  0.5007  1.9946  0.1546
   20MOL    H48 2366   5.835   6.019   6.754  0.4974  0.9058  1.5515
   20MOL    H49 2367   5.768   6.173   6.794 -3.1058  0.4844 -0.4664
   20MOL    C50 2368   5.658   6.082   6.647 -0.6278  0.1819 -1.1265
   20MOL    C51 2369   5.645   5.954   6.567  0.3545  1.2032 -0.3163
   20MOL    H52 2370   5.579   6.081   6.721  0.8202  2.7174  0.4839
   20MOL    H53 2371   5.631   6.169   6.588  2.9235  1.5215 -0.9221
   20MOL    H54 2372   5.697   5.950   6.472  1.9927  1.4399  0.5426
   20MOL    H55 2373   5.689   5.873   6.626 -0.2324  1.5515  0.6254
   20MOL    C56 2374   5.497   5.936   6.525 -0.6263  0.5195  0.0251
   20MOL    C57 2375   5.450   5.800   6.454  0.4253  0.1646 -0.2567
   20MOL    H58 2376   5.435   5.951   6.613 -1.9185 -0.7171 -0.6719
   20MOL    H59 2377   5.465   6.018   6.461 -2.0712  1.1752  1.5613
   20MOL    H60 2378   5.486   5.788   6.352 -0.8767 -2.1677 -0.4752
   20MOL    H61 2379   5.480   5.717   6.518 -1.8443 -0.5292 -0.0312
   20MOL    C62 2380   5.296   5.795   6.455  0.1132 -0.2228 -0.1223
   20MOL    C63 2381   5.220   5.677   6.383  0.0417  0.2452  0.1910
   20MOL    H64 2382   5.280   5.798   6.563  1.6560  2.4209  0.0716
   20MOL    H65 2383   5.255   5.889   6.418 -2.3005 -1.0471  0.4056
   20MOL    H66 2384   5.244   5.670   6.277  0.0388 -0.4325  0.2349
   20MOL    H67 2385   5.246   5.583   6.430 -0.5133 -0.2578 -0.4837
   20MOL    C68 2386   5.068   5.703   6.378  0.1608  0.6237  0.6283
   20MOL    C69 2387   5.001   5.573   6.319  0.4397  0.2390 -0.1984
   20MOL    H70 2388   5.036   5.716   6.481 -0.7582  0.3825  0.3798
   20MOL    H71 2389   5.050   5.800   6.332 -1.7734 -0.8448 -1.8557
   20MOL    H72 2390   5.029   5.549   6.216 -1.6314 -1.4692 -0.4006
   20MOL    H73 2391   5.041   5.494   6.383 -0.0786  0.8623  0.9102
   20MOL    C74 2392   4.851   5.575   6.343 -0.1302 -0.0978  0.1985
   20MOL    C75 2393   4.779   5.665   6.245  0.2796 -0.7983  0.2890
   20MOL    H76 2394   4.815   5.472   6.335 -0.1111 -0.0160 -1.0428
   20MOL    H77 2395   4.824   5.619   6.439 -1.7952 -1.1053  0.2272
   20MOL    H78 2396   4.826   5.763   6.254  0.5844 -0.9631  0.5004
   20MOL    H79 2397   4.799   5.632   6.143 -0.0974 -1.9046  0.5639
   20MOL    C80 2398   4.623   5.670   6.268  0.4237 -0.6234  0.0504
   20MOL    C81 2399   4.597   5.776   6.381 -1.1224 -0.7141  0.1002
   20MOL    H82 2400   4.567   5.688   6.176  0.2432 -0.1939  0.2431
   20MOL    H83 2401   4.578   5.578   6.304 -0.2947 -0.6532 -0.9095
   20MOL    H84 2402   4.639   5.738   6.474 -0.2826 -2.0451 -0.8128
   20MOL    H85 2403   4.654   5.869   6.371  1.3059 -2.2508 -0.6908
   20MOL    C86 2404   4.448   5.795   6.400  0.4289 -0.0073 -0.2929
   20MOL    C87 2405   4.413   5.942   6.431  0.3562 -0.0660 -0.7821
   20MOL    H88 2406   4.386   5.768   6.314 -3.6236 -0.9141  2.7302
   20MOL    H89 2407   4.400   5.733   6.476  0.6762 -1.5635 -1.3922
   20MOL    H90 2408   4.468   6.015   6.371  1.6985 -0.7700 -0.4281
   20MOL    H91 2409   4.306   5.956   6.414  0.4516  3.1051  1.0046
   20MOL    C92 2410   4.457   5.975   6.574 -0.2119 -0.4164 -0.0605
   20MOL    C93 2411   4.466   6.128   6.605 -0.1554  0.2485 -0.6027
   20MOL    H94 2412   4.403   5.928   6.657 -1.2023  3.5223  1.6828
   20MOL    H95 2413   4.556   5.931   6.585 -0.1212 -0.3345 -0.5672
   20MOL    H96 2414   4.526   6.171   6.524  1.8897  0.2560  0.8580
   20MOL    H97 2415   4.370   6.176   6.618 -0.5068 -0.8088  0.8540
   20MOL    C98 2416   4.546   6.159   6.731 -0.4092 -0.3739 -0.2368
   20MOL    C99 2417   4.581   6.311   6.744  0.2462 -0.4057  0.8244
   20MOL   H100 2418   4.499   6.112   6.817  1.3979 -1.4416  0.1818
   20MOL   H101 2419   4.639   6.102   6.729 -2.4029 -3.7508 -0.0679
   20MOL   H102 2420   4.623   6.360   6.657 -1.7569 -0.4880 -0.2260
   20MOL   H103 2421   4.489   6.367   6.761 -0.3389 -0.1838 -2.7781
   20MOL   C104 2422   4.679   6.327   6.855  0.1884  0.6124 -0.0782
   20MOL   C105 2423   4.688   6.470   6.915 -0.2827  0.1788 -0.1960
   20MOL   H106 2424   4.651   6.260   6.936  0.7240  0.1947 -0.2361
   20MOL   H107 2425   4.778   6.297   6.823 -0.2996 -0.7794 -0.3301
   20MOL   H108 2426   4.714   6.539   6.835  1.9826 -0.0665  0.2929
   20MOL   H109 2427   4.589   6.506   6.945 -0.9985 -1.1756 -0.8900
   20MOL   C110 2428   4.781   6.486   7.035 -0.4463  0.4906  0.0183
   20MOL   C111 2429   4.935   6.496   6.988 -0.3639 -0.1498  0.3112
   20MOL   H112 2430   4.756   6.571   7.098 -0.1186  1.9164 -1.7396
   20MOL   H113 2431   4.774   6.388   7.083  0.8830  0.3715 -0.0048
   20MOL   H114 2432   4.951   6.409   6.925 -0.2346  0.3694 -0.3899
   20MOL   H115 2433   4.945   6.584   6.923 -0.1979  0.0457  0.5998
   20MOL   C116 2434   5.035   6.498   7.102 -0.1324  0.1667  0.2116
   20MOL   C117 2435   5.040   6.636   7.162  0.0814 -0.3832 -0.0646
   20MOL   H118 2436   5.018   6.420   7.176  0.0287 -0.0918 -0.0236
   20MOL   H119 2437   5.134   6.474   7.063 -0.6022 -0.6261 -0.5209
   20MOL   H120 2438   4.948   6.657   7.217 -0.0682 -1.0774 -0.0439
   20MOL   H121 2439   5.132   6.643   7.220  0.5687  3.1969 -1.1295
   20MOL   H122 2440   5.044   6.714   7.085  3.1716 -0.9947 -0.6012
   21MOL     C1 2441   6.427   0.946   3.856  0.7148  0.0274 -0.1817
   21MOL     C2 2442   6.446   1.004   3.993  0.2397 -0.3190  0.4943
   21MOL     H3 2443   6.346   0.994   3.801 -0.5046  0.4243  1.9151
   21MOL     H4 2444   6.386   0.847   3.872  0.8222 -0.0347 -0.2882
   21MOL     H5 2445   6.499   0.939   4.063  0.4000 -0.1219  0.5578
   21MOL     H6 2446   6.526   1.079   3.985 -0.4727  0.3718 -0.3053
   21MOL     H7 2447   6.517   0.953   3.794  3.6182 -1.9645  3.6170
   21MOL     C8 2448   6.314   1.051   4.053  0.2514 -0.2321 -0.5589
   21MOL     C9 2449   6.199   0.949   4.061 -0.2306 -0.1857 -0.0965
   21MOL    H10 2450   6.330   1.063   4.160 -0.3694 -0.7871 -0.3932
   21MOL    H11 2451   6.290   1.148   4.010  3.5931  0.3981 -1.0860
   21MOL    H12 2452   6.099   0.989   4.079  0.1187  0.4564  0.4182
   21MOL    H13 2453   6.187   0.894   3.967  0.0994  0.9354 -0.7984
   21MOL    C14 2454   6.229   0.846   4.170 -0.2539 -0.0349 -0.0628
   21MOL    C15 2455   6.156   0.711   4.163 -0.3397  0.6614  0.2806
   21MOL    H16 2456   6.334   0.818   4.172 -0.2230  0.0611  2.8426
   21MOL    H17 2457   6.212   0.899   4.264  2.7586  0.8907  0.0129
   21MOL    H18 2458   6.187   0.654   4.251  0.6234  0.4935 -0.1568
   21MOL    H19 2459   6.050   0.728   4.145 -0.5573  0.0482  0.9461
   21MOL    C20 2460   6.205   0.617   4.050 -0.0014  0.0630  0.2715
   21MOL    C21 2461   6.157   0.466   4.072 -0.2772 -0.6259 -0.1710
   21MOL    H22 2462   6.187   0.659   3.951 -0.9242  1.7154  1.1288
   21MOL    H23 2463   6.314   0.611   4.060  0.0023 -0.6680 -0.1508
   21MOL    H24 2464   6.183   0.444   4.175 -1.2081  0.4003  0.2914
   21MOL    H25 2465   6.048   0.455   4.074 -0.3271 -0.5927 -2.0621
   21MOL    C26 2466   6.223   0.379   3.972  0.0768 -0.3445 -0.1654
   21MOL    C27 2467   6.222   0.231   4.010  0.0018  0.2731 -0.5372
   21MOL    H28 2468   6.193   0.404   3.870  0.7420 -0.0211 -0.2872
   21MOL    H29 2469   6.332   0.389   3.971  0.2054 -1.5197 -3.5740
   21MOL    H30 2470   6.278   0.216   4.102 -0.9647 -0.7040 -0.1033
   21MOL    H31 2471   6.122   0.194   4.032 -0.8523  1.4173 -2.3462
   21MOL    C32 2472   6.287   0.130   3.912 -0.5652 -0.2440 -0.5412
   21MOL    C33 2473   6.207   0.116   3.783  0.8360  0.0360  0.6725
   21MOL    H34 2474   6.389   0.161   3.893 -0.1218  0.4367  2.6004
   21MOL    H35 2475   6.289   0.028   3.950 -1.8641 -0.6048 -1.4190
   21MOL    H36 2476   6.101   0.102   3.802  0.9696 -1.4857  0.3477
   21MOL    H37 2477   6.215   0.214   3.736  0.9379 -0.1614  0.2746
   21MOL    C38 2478   6.247   7.689   3.689 -0.7084  0.1545  0.3818
   21MOL    C39 2479   6.155   7.684   3.562 -0.3657 -0.2524 -0.3298
   21MOL    H40 2480   6.355   7.690   3.676 -0.4836 -3.0505  1.5285
   21MOL    H41 2481   6.250   7.596   3.745  0.0041 -0.2498 -0.3114
   21MOL    H42 2482   6.054   0.019   3.594  0.1613  1.9047 -0.4225
   21MOL    H43 2483   6.189   0.080   3.509  4.5497 -2.1322 -0.5078
   21MOL    C44 2484   6.166   7.551   3.482  0.1774 -0.7899  0.0029
   21MOL    C45 2485   6.068   7.562   3.365 -0.6339  0.0798 -0.5433
   21MOL    H46 2486   6.271   7.533   3.459  0.2131 -1.3819  0.5941
   21MOL    H47 2487   6.143   7.467   3.548 -1.1403 -1.2505 -1.0311
   21MOL    H48 2488   5.970   7.537   3.405  0.0132  0.9299  1.6172
   21MOL    H49 2489   6.062   7.662   3.323 -2.6838  1.2053  2.2443
   21MOL    C50 2490   6.109   7.452   3.262 -0.1256  0.1445  0.3503
   21MOL    C51 2491   6.013   7.461   3.151 -0.3888  0.1047  0.9163
   21MOL    H52 2492   6.211   7.470   3.227  0.1683 -1.7579  0.1709
   21MOL    H53 2493   6.115   7.354   3.311 -1.8954  1.1501  2.6907
   21MOL    H54 2494   5.916   7.427   3.186  0.1491 -1.7906  0.5967
   21MOL    H55 2495   5.993   7.560   3.110 -1.6474 -0.3297  0.4615
   21MOL    C56 2496   6.053   7.375   3.029  0.1871  0.5632  0.0294
   21MOL    C57 2497   6.059   7.221   3.045 -0.2102 -1.0027 -0.1094
   21MOL    H58 2498   5.983   7.397   2.949 -0.3351 -1.1730 -0.0114
   21MOL    H59 2499   6.149   7.413   2.994  0.5784 -1.1106 -0.7798
   21MOL    H60 2500   6.104   7.204   3.143  0.3140 -0.6350 -0.2899
   21MOL    H61 2501   5.953   7.195   3.041 -0.0918 -1.4938 -0.0844
   21MOL    C62 2502   6.135   7.147   2.931 -0.7275  0.1245 -0.1070
   21MOL    C63 2503   6.070   7.163   2.792  0.1448 -1.3042 -0.0318
   21MOL    H64 2504   6.235   7.188   2.942 -1.3274  1.4435  0.5287
   21MOL    H65 2505   6.154   7.044   2.962  0.0387 -0.5136 -2.5754
   21MOL    H66 2506   5.970   7.123   2.809 -1.0240  1.9818  1.3271
   21MOL    H67 2507   6.080   7.266   2.760  2.6050 -1.3573  0.4896
   21MOL    C68 2508   6.142   7.066   2.698  0.3133 -0.2009 -0.2308
   21MOL    C69 2509   6.068   7.027   2.569  0.1728 -0.3025  0.4789
   21MOL    H70 2510   6.232   7.118   2.663  0.0397 -0.6098 -1.5488
   21MOL    H71 2511   6.181   6.975   2.744  1.0037 -0.2433 -0.8951
   21MOL    H72 2512   5.980   6.972   2.600 -1.2306  1.5054 -0.2338
   21MOL    H73 2513   6.040   7.118   2.516  0.1793 -1.1404 -0.9645
   21MOL    C74 2514   6.156   6.937   2.478  0.6041 -0.0276  0.0078
   21MOL    C75 2515   6.091   6.907   2.340  0.2201  0.2217  0.4215
   21MOL    H76 2516   6.253   6.985   2.469 -0.3258  2.1664  1.2346
   21MOL    H77 2517   6.177   6.842   2.525 -0.2022 -0.3082 -0.1817
   21MOL    H78 2518   5.995   6.859   2.361  0.0193 -1.0309 -3.0069
   21MOL    H79 2519   6.058   7.003   2.299  0.9020 -0.0543 -0.7831
   21MOL    C80 2520   6.179   6.829   2.245  0.9758  0.0752 -0.0382
   21MOL    C81 2521   6.122   6.825   2.105  0.5666 -0.5075  0.3957
   21MOL    H82 2522   6.284   6.859   2.252  1.3849 -1.6515  1.6349
   21MOL    H83 2523   6.178   6.724   2.275  0.9092 -0.4821 -1.9405
   21MOL    H84 2524   6.028   6.769   2.109  0.6681 -0.7227 -0.1877
   21MOL    H85 2525   6.105   6.920   2.055  2.9053 -0.5692 -0.5688
   21MOL    C86 2526   6.221   6.750   2.019 -0.6094  0.7032 -0.0548
   21MOL    C87 2527   6.164   6.709   1.876 -0.2428  0.4852  0.0551
   21MOL    H88 2528   6.315   6.803   2.003 -1.4767  2.2265 -0.1693
   21MOL    H89 2529   6.248   6.653   2.061  1.2839  1.6457  0.9440
   21MOL    H90 2530   6.075   6.647   1.888 -0.1958  0.2952 -0.5450
   21MOL    H91 2531   6.131   6.805   1.837 -0.4556  0.1374 -0.6294
   21MOL    C92 2532   6.254   6.630   1.779  0.1037  0.2340 -0.2565
   21MOL    C93 2533   6.195   6.590   1.646 -0.0107  0.3592 -0.3538
   21MOL    H94 2534   6.339   6.694   1.754  0.5754 -0.2864 -0.0139
   21MOL    H95 2535   6.283   6.538   1.830  1.3116  0.7715  0.0623
   21MOL    H96 2536   6.102   6.534   1.655  0.5717 -0.3592  1.4848
   21MOL    H97 2537   6.172   6.684   1.596  2.5992  1.0155 -0.3557
   21MOL    C98 2538   6.287   6.511   1.555 -0.5290 -0.4090  0.1154
   21MOL    C99 2539   6.246   6.494   1.409 -0.3388  0.4768  0.2385
   21MOL   H100 2540   6.380   6.566   1.564 -1.4200  0.9650  1.0962
   21MOL   H101 2541   6.302   6.411   1.597  3.2876 -0.0450 -0.2484
   21MOL   H102 2542   6.195   6.584   1.373  0.6391  0.3123 -1.6178
   21MOL   H103 2543   6.338   6.480   1.352  0.0080 -0.4463  1.0179
   21MOL   C104 2544   6.154   6.373   1.392 -0.1218  0.0046 -0.0653
   21MOL   C105 2545   6.115   6.350   1.252  0.5408  0.2558 -0.2560
   21MOL   H106 2546   6.201   6.286   1.438 -0.6676  0.4664  1.3994
   21MOL   H107 2547   6.062   6.392   1.447  0.8042  0.9241  1.1829
   21MOL   H108 2548   6.076   6.439   1.202 -0.3419 -0.5689 -1.0662
   21MOL   H109 2549   6.204   6.329   1.192 -1.8116  0.8207 -4.1208
   21MOL   C110 2550   6.019   6.226   1.222  0.0926  0.0362  0.0566
   21MOL   C111 2551   5.859   6.254   1.237  0.8329 -0.4258  0.2346
   21MOL   H112 2552   6.035   6.180   1.125  2.1516 -0.1090  0.4544
   21MOL   H113 2553   6.062   6.135   1.264 -0.7424 -0.5064 -0.2425
   21MOL   H114 2554   5.831   6.337   1.173  0.7456 -1.1059 -0.6129
   21MOL   H115 2555   5.799   6.169   1.204 -1.5184  1.1492  0.3804
   21MOL   C116 2556   5.807   6.289   1.379 -0.0334  0.6598  0.6350
   21MOL   C117 2557   5.837   6.174   1.474  0.3395  0.7779  0.5414
   21MOL   H118 2558   5.846   6.382   1.421  1.7578 -0.8993  2.4995
   21MOL   H119 2559   5.700   6.308   1.379 -0.3524 -1.0828  0.2761
   21MOL   H120 2560   5.761   6.097   1.465 -0.1281  1.5858 -3.2729
   21MOL   H121 2561   5.935   6.132   1.450  0.9630  1.4666  1.8107
   21MOL   H122 2562   5.861   6.205   1.576 -1.2851 -1.1695  1.5445
   22MOL     C1 2563   4.147   4.626   7.652 -0.9248 -0.7498 -0.4016
   22MOL     C2 2564   4.071   4.667   7.527  0.0223 -0.7844 -0.4434
   22MOL     H3 2565   4.247   4.605   7.615  0.0054 -0.9909  2.1185
   22MOL     H4 2566   4.106   4.547   0.024 -0.3573 -1.8942 -1.4361
   22MOL     H5 2567   4.117   4.758   7.488 -1.3084 -0.2896 -0.8963
   22MOL     H6 2568   4.086   4.593   7.448  1.1835  0.2112 -1.1801
   22MOL     H7 2569   4.147   4.715   0.023  2.9266 -0.9218 -0.0380
   22MOL     C8 2570   3.914   4.678   7.553  0.0594  0.5458 -0.4112
   22MOL     C9 2571   3.841   4.766   7.453 -0.3034  0.5577 -0.0529
   22MOL    H10 2572   3.876   4.578   7.532  0.5691  0.2860 -0.1144
   22MOL    H11 2573   3.877   4.700   7.653 -0.2140 -2.0275  0.0827
   22MOL    H12 2574   3.880   4.737   7.355  0.7078  0.4747  0.3706
   22MOL    H13 2575   3.735   4.739   7.459 -0.1262 -0.0081  0.6168
   22MOL    C14 2576   3.867   4.913   7.460  0.0347 -0.5651  0.2812
   22MOL    C15 2577   3.782   4.983   7.354 -0.0773 -0.4654  0.0768
   22MOL    H16 2578   3.842   4.948   7.560  2.9588  1.6002  0.3208
   22MOL    H17 2579   3.973   4.936   7.443  0.4453 -1.6006  1.3573
   22MOL    H18 2580   3.790   4.931   7.259  2.4072  1.0235 -0.5789
   22MOL    H19 2581   3.682   4.986   7.396  0.0870  1.5123  0.3942
   22MOL    C20 2582   3.816   5.128   7.332  0.7018  0.2654  0.1429
   22MOL    C21 2583   3.719   5.202   7.244  0.3792 -0.6322 -0.3126
   22MOL    H22 2584   3.817   5.170   7.433  0.5148  1.0976 -0.2001
   22MOL    H23 2585   3.918   5.136   7.295  1.5833 -1.3815  2.0949
   22MOL    H24 2586   3.725   5.180   7.138 -2.2205  2.4389 -1.1792
   22MOL    H25 2587   3.617   5.174   7.270  0.8322 -1.1595  0.9429
   22MOL    C26 2588   3.745   5.356   7.255 -0.0930  0.4817 -0.4876
   22MOL    C27 2589   3.668   5.446   7.157 -0.8074 -0.4466  0.4453
   22MOL    H28 2590   3.736   5.378   7.361  1.5651  0.6228 -0.3596
   22MOL    H29 2591   3.849   5.385   7.237  0.1436 -0.0769 -0.0504
   22MOL    H30 2592   3.721   5.541   7.161 -1.0816 -0.2852  0.3043
   22MOL    H31 2593   3.678   5.398   7.060 -1.1225 -2.4298  1.3698
   22MOL    C32 2594   3.522   5.468   7.191 -0.0886  0.0021  0.1944
   22MOL    C33 2595   3.461   5.578   7.105 -0.1062  0.2635 -0.2450
   22MOL    H34 2596   3.470   5.372   7.182 -2.5774  1.3019  0.4302
   22MOL    H35 2597   3.525   5.502   7.294  0.6149 -0.2242  0.2481
   22MOL    H36 2598   3.538   5.656   7.104 -0.2934  0.4772  1.0203
   22MOL    H37 2599   3.432   5.557   7.002 -0.2636  1.6486 -0.5039
   22MOL    C38 2600   3.332   5.638   7.155 -0.4216 -0.4305 -0.7565
   22MOL    C39 2601   3.286   5.752   7.059  0.1043 -0.6868  0.2445
   22MOL    H40 2602   3.256   5.560   7.166 -0.3860 -0.0288  2.9620
   22MOL    H41 2603   3.354   5.673   7.256 -0.2728  1.9087 -1.5613
   22MOL    H42 2604   3.363   5.829   7.055  0.5548 -1.2078 -1.2391
   22MOL    H43 2605   3.277   5.723   6.955 -0.9920 -0.2985  0.2252
   22MOL    C44 2606   3.152   5.808   7.107 -0.5193  0.2337  0.3091
   22MOL    C45 2607   3.129   5.941   7.039  0.3698  0.1917 -0.4594
   22MOL    H46 2608   3.079   5.733   7.073 -0.5783 -0.1407  1.2430
   22MOL    H47 2609   3.149   5.821   7.215 -1.3511  0.1515  0.3063
   22MOL    H48 2610   3.212   6.009   7.056  0.4183  0.7363 -2.7724
   22MOL    H49 2611   3.128   5.925   6.931  1.0511 -2.7065 -0.0912
   22MOL    C50 2612   3.006   6.023   7.087 -0.0007  0.2866  0.1173
   22MOL    C51 2613   3.012   6.164   7.022  0.7313 -0.0661 -0.4088
   22MOL    H52 2614   2.917   5.969   7.055 -0.6955  1.8560 -0.6577
   22MOL    H53 2615   3.021   6.035   7.195  0.1718  1.6706 -0.0469
   22MOL    H54 2616   3.090   6.224   7.069 -1.1600  2.0434  0.1031
   22MOL    H55 2617   3.038   6.149   6.918  1.4552 -1.8509  0.0050
   22MOL    C56 2618   2.880   6.228   7.049 -0.5755  0.0545 -0.1218
   22MOL    C57 2619   2.873   6.378   7.018  0.4279  0.0965  0.0844
   22MOL    H58 2620   2.813   6.175   6.982 -1.5404  0.1303  0.7817
   22MOL    H59 2621   2.847   6.224   7.152  1.0614 -0.9214  0.3775
   22MOL    H60 2622   2.916   6.444   7.093 -1.7706 -1.1032  2.4764
   22MOL    H61 2623   2.930   6.389   6.926 -0.4580 -2.1833 -0.7966
   22MOL    C62 2624   2.729   6.425   6.987  0.2702  0.4036  0.7505
   22MOL    C63 2625   2.633   6.408   7.108  0.2380  0.5573 -0.0031
   22MOL    H64 2626   2.734   6.528   6.952 -3.4686  0.3977  0.0499
   22MOL    H65 2627   2.674   6.386   6.901  0.2837  3.1574 -0.5617
   22MOL    H66 2628   2.617   6.306   7.140  0.1605  0.8143  0.7914
   22MOL    H67 2629   2.678   6.460   7.193  1.3398 -0.2581 -0.0853
   22MOL    C68 2630   2.493   6.465   7.080  0.0002  0.1358  0.1956
   22MOL    C69 2631   2.403   6.377   6.989  0.1393 -0.0051 -0.4441
   22MOL    H70 2632   2.447   6.490   7.175 -0.2153 -2.5092  0.8121
   22MOL    H71 2633   2.508   6.560   7.029  0.8737 -0.9524 -1.6218
   22MOL    H72 2634   2.445   6.377   6.889  0.1353  1.0513 -0.4576
   22MOL    H73 2635   2.418   6.275   7.023 -1.0162 -0.2133 -0.5571
   22MOL    C74 2636   2.257   6.432   6.990 -0.0044 -0.5701 -0.1580
   22MOL    C75 2637   2.155   6.337   6.919 -0.3823  0.6942  0.3751
   22MOL    H76 2638   2.218   6.461   7.087 -0.9527  2.2956 -1.3485
   22MOL    H77 2639   2.251   6.528   6.938  2.4128  0.0837  0.7048
   22MOL    H78 2640   2.193   6.325   6.818 -0.6674  2.0108  0.0998
   22MOL    H79 2641   2.137   6.240   6.966 -1.1624  0.8200  0.3368
   22MOL    C80 2642   2.015   6.395   6.903 -0.0285  0.4316  0.7356
   22MOL    C81 2643   1.920   6.285   6.856  0.4591  0.7791  0.1210
   22MOL    H82 2644   1.977   6.432   6.999  2.8973 -0.8196  2.4622
   22MOL    H83 2645   2.017   6.485   6.843  1.0156 -0.4075 -0.5087
   22MOL    H84 2646   1.950   6.245   6.760 -0.8249  1.5281 -0.6053
   22MOL    H85 2647   1.910   6.203   6.928 -1.2552  3.4803  3.0708
   22MOL    C86 2648   1.778   6.346   6.830  0.0888 -0.0776 -0.1971
   22MOL    C87 2649   1.690   6.241   6.756 -0.3278 -0.3490  0.2677
   22MOL    H88 2650   1.727   6.372   6.923  0.7842 -1.5877  0.6177
   22MOL    H89 2651   1.791   6.435   6.769  3.7879 -0.4692 -0.0921
   22MOL    H90 2652   1.730   6.245   6.655 -0.6693  0.8316  0.1714
   22MOL    H91 2653   1.701   6.143   6.802 -2.0324 -1.3543 -1.3847
   22MOL    C92 2654   1.539   6.285   6.749  0.0777  0.0280 -0.2420
   22MOL    C93 2655   1.458   6.184   6.676  0.2355  0.5118 -0.4502
   22MOL    H94 2656   1.505   6.310   6.849 -0.3810 -2.4455  0.2517
   22MOL    H95 2657   1.526   6.380   6.696 -0.7680  0.6941  1.1458
   22MOL    H96 2658   1.471   6.189   6.568 -0.6325  2.0769 -0.5033
   22MOL    H97 2659   1.480   6.083   6.708  0.4549  1.2792  1.8939
   22MOL    C98 2660   1.306   6.215   6.698  0.7897 -0.0225 -0.7280
   22MOL    C99 2661   1.217   6.092   6.684 -0.7819 -0.1103 -0.5731
   22MOL   H100 2662   1.291   6.249   6.800  1.5359 -0.8456 -0.3376
   22MOL   H101 2663   1.284   6.291   6.624  1.7669  0.4751 -0.5087
   22MOL   H102 2664   1.222   6.049   6.584 -0.8716  2.6103 -1.7806
   22MOL   H103 2665   1.257   6.018   6.753  0.0381  0.3659 -0.5357
   22MOL   C104 2666   1.070   6.117   6.725 -0.0382  0.2391 -0.1767
   22MOL   C105 2667   0.993   5.980   6.753  0.1998  0.8577 -0.3615
   22MOL   H106 2668   1.064   6.170   6.821 -2.1391  0.4858 -0.4119
   22MOL   H107 2669   1.017   6.180   6.653  2.0832  1.7524 -0.4686
   22MOL   H108 2670   1.014   5.914   6.668 -3.1654  0.7751 -1.2302
   22MOL   H109 2671   1.030   5.946   6.849 -0.5317 -2.0853 -1.0399
   22MOL   C110 2672   0.840   5.995   6.773 -0.1612 -0.8865 -0.2685
   22MOL   C111 2673   0.761   5.866   6.769  0.0172  0.1594 -0.8252
   22MOL   H112 2674   0.819   6.039   6.870  1.2709 -0.8158  0.0254
   22MOL   H113 2675   0.801   6.056   6.692 -0.9538 -0.0067  0.7676
   22MOL   H114 2676   0.784   5.797   6.688  0.4757 -1.2367  0.4633
   22MOL   H115 2677   0.786   5.820   6.865 -3.1977  1.1016  0.5350
   22MOL   C116 2678   0.608   5.889   6.773  0.7511  0.3740  0.1854
   22MOL   C117 2679   0.529   5.763   6.813 -0.3770  0.0938  0.4766
   22MOL   H118 2680   0.584   5.960   6.852 -0.3801 -0.5474  0.6731
   22MOL   H119 2681   0.575   5.921   6.674 -3.0817 -1.3449  0.8464
   22MOL   H120 2682   0.531   5.685   6.738  2.7909 -1.2485  1.8888
   22MOL   H121 2683   0.561   5.726   6.911  1.2026  0.3729  0.0729
   22MOL   H122 2684   0.421   5.777   6.816 -0.6782 -2.3492  1.9783
   23MOL     C1 2685   2.160   5.930   5.660  0.2594 -0.1216  0.6995
   23MOL     C2 2686   2.020   5.888   5.615  0.4452 -0.4646  0.1451
   23MOL     H3 2687   2.201   5.989   5.578 -3.0828  2.0222  0.4442
   23MOL     H4 2688   2.227   5.846   5.672  0.4406 -0.0772 -0.0083
   23MOL     H5 2689   2.025   5.848   5.514 -1.9822 -0.1344 -0.1318
   23MOL     H6 2690   1.966   5.824   5.685 -1.2169  2.9113  2.0479
   23MOL     H7 2691   2.166   5.983   5.755  0.9318 -0.7689  1.0188
   23MOL     C8 2692   1.919   6.004   5.610 -0.4031 -0.6024  0.0090
   23MOL     C9 2693   1.778   5.945   5.591  0.0455 -0.0882 -0.2276
   23MOL    H10 2694   1.929   6.071   5.695  0.6280 -0.8268  0.0758
   23MOL    H11 2695   1.933   6.063   5.519  1.0234  1.1048  1.2975
   23MOL    H12 2696   1.776   5.888   5.498 -0.0220 -0.9674  0.3152
   23MOL    H13 2697   1.752   5.873   5.667 -1.8380  1.5418  0.7264
   23MOL    C14 2698   1.666   6.051   5.582  0.6070 -0.6801 -0.8084
   23MOL    C15 2699   1.540   5.999   5.501  0.1780 -0.3086 -0.1253
   23MOL    H16 2700   1.644   6.069   5.687 -0.5205 -0.0639 -1.1333
   23MOL    H17 2701   1.712   6.140   5.537 -1.6408  0.9846  0.0587
   23MOL    H18 2702   1.579   5.951   5.411 -1.2206  0.2050 -1.0250
   23MOL    H19 2703   1.481   5.929   5.560  2.4423 -0.0518  2.5494
   23MOL    C20 2704   1.423   6.095   5.457  0.2920  0.1578  0.0220
   23MOL    C21 2705   1.339   6.024   5.335  0.4209  0.0076 -0.0040
   23MOL    H22 2706   1.359   6.119   5.541  0.0135 -1.1146  0.1927
   23MOL    H23 2707   1.473   6.187   5.426 -0.4832  1.3086  2.1266
   23MOL    H24 2708   1.400   6.048   5.249  1.1794  1.0799  0.8134
   23MOL    H25 2709   1.322   5.918   5.354 -0.7434  0.1867  0.0361
   23MOL    C26 2710   1.189   6.075   5.329  0.4438 -0.0538  0.2296
   23MOL    C27 2711   1.106   6.006   5.226  0.1977 -0.3833  0.3924
   23MOL    H28 2712   1.136   6.089   5.423  2.2656 -1.0526  1.4347
   23MOL    H29 2713   1.194   6.180   5.299 -0.9887  1.1953  4.1090
   23MOL    H30 2714   1.151   6.022   5.128  0.8521 -1.8476  0.4405
   23MOL    H31 2715   1.108   5.898   5.243 -0.1004 -0.8227 -2.1182
   23MOL    C32 2716   0.959   6.057   5.224  0.5807 -0.1355 -0.5132
   23MOL    C33 2717   0.877   5.978   5.120 -0.4296 -0.9319 -0.1672
   23MOL    H34 2718   0.908   6.039   5.318  0.0003  0.4679 -0.7088
   23MOL    H35 2719   0.946   6.164   5.206  3.4189  0.0795 -1.6689
   23MOL    H36 2720   0.913   6.013   5.024 -0.1657  0.6049  0.4723
   23MOL    H37 2721   0.881   5.869   5.112 -1.4110 -0.8819 -1.4673
   23MOL    C38 2722   0.722   6.017   5.114 -0.4004 -0.3827 -1.1108
   23MOL    C39 2723   0.660   5.992   4.979 -0.3652  0.1008 -0.2161
   23MOL    H40 2724   0.678   5.955   5.192  0.0824  1.4898  0.7132
   23MOL    H41 2725   0.706   6.121   5.146 -2.2075 -0.6110 -1.2039
   23MOL    H42 2726   0.713   6.053   4.906  1.2477  0.3614  1.1313
   23MOL    H43 2727   0.686   5.888   4.958  0.7821  0.4569 -0.6211
   23MOL    C44 2728   0.509   6.028   4.976 -0.3840 -0.1045  0.0404
   23MOL    C45 2729   0.431   5.996   4.850 -0.5154 -0.0976 -0.4309
   23MOL    H46 2730   0.465   5.992   5.068  2.1044  1.1803  1.7901
   23MOL    H47 2731   0.508   6.135   4.997  2.1736 -0.4008  1.7968
   23MOL    H48 2732   0.337   6.050   4.843 -1.0313 -0.8195  0.8411
   23MOL    H49 2733   0.490   6.027   4.763  0.7182 -0.5092  0.2438
   23MOL    C50 2734   0.400   5.848   4.836 -0.2528  0.6210  0.1069
   23MOL    C51 2735   0.306   5.819   4.720  0.6406  0.2044 -0.4302
   23MOL    H52 2736   0.493   5.791   4.843 -0.0212  1.0100  0.2320
   23MOL    H53 2737   0.338   5.818   4.921  1.2642 -0.3952  0.8774
   23MOL    H54 2738   0.212   5.865   4.752  0.6636  0.4299 -0.6864
   23MOL    H55 2739   0.350   5.865   4.632  2.3359  2.2647  1.4252
   23MOL    C56 2740   0.284   5.668   4.704 -0.2322  0.5282  0.1973
   23MOL    C57 2741   0.241   5.640   4.571  0.5437  0.8899  0.4828
   23MOL    H58 2742   0.377   5.612   4.714 -0.1356  0.4589 -1.0787
   23MOL    H59 2743   0.213   5.633   4.779 -1.2759 -0.7206 -1.3425
   23MOL    H60 2744   0.134   5.664   4.568  0.6029  1.3556  1.7263
   23MOL    H61 2745   0.288   5.710   4.502 -1.4738  2.1692  0.3573
   23MOL    C62 2746   0.238   5.484   4.543  0.1889  0.0037  0.2011
   23MOL    C63 2747   0.165   5.465   4.411  0.0905 -1.1248  0.1659
   23MOL    H64 2748   0.343   5.464   4.518  0.2100 -0.4852  0.6647
   23MOL    H65 2749   0.205   5.416   4.621  0.0927 -0.0921  0.0759
   23MOL    H66 2750   0.057   5.457   4.423 -0.0085  1.7640  1.4742
   23MOL    H67 2751   0.178   5.552   4.348  1.0826 -0.5127  1.2057
   23MOL    C68 2752   0.212   5.340   4.331 -0.0200  0.2342  0.0932
   23MOL    C69 2753   0.130   5.289   4.218 -0.3168 -0.0707  0.1346
   23MOL    H70 2754   0.307   5.373   4.288  0.4294 -0.9359  0.1552
   23MOL    H71 2755   0.244   5.265   4.404 -1.7957 -0.6332  0.0180
   23MOL    H72 2756   0.045   5.233   4.257  1.3978 -1.2631  2.2799
   23MOL    H73 2757   0.098   5.366   4.148  1.9338  0.7944 -0.0134
   23MOL    C74 2758   0.210   5.185   4.139  0.4370  0.1408  0.7094
   23MOL    C75 2759   0.109   5.085   4.069 -0.0933 -0.5261  0.4333
   23MOL    H76 2760   0.274   5.242   4.071  0.4303  1.4735  1.7897
   23MOL    H77 2761   0.277   5.126   4.202  2.2881  1.1220 -0.2812
   23MOL    H78 2762   0.092   5.002   4.138 -0.0874 -0.7581  0.1552
   23MOL    H79 2763   0.010   5.129   4.057 -0.9985 -2.2451  1.4779
   23MOL    C80 2764   0.170   5.026   3.941  0.3024  0.2286  0.7191
   23MOL    C81 2765   0.077   4.922   3.877 -0.3421  0.7895 -0.0106
   23MOL    H82 2766   0.193   5.106   3.871  1.3333  1.5581  2.5436
   23MOL    H83 2767   0.263   4.974   3.963  0.2735  0.0066  0.3207
   23MOL    H84 2768   0.053   4.843   3.947 -2.7375  0.3680 -1.2572
   23MOL    H85 2769   7.678   4.972   3.844  0.1031  2.0345  0.5984
   23MOL    C86 2770   0.158   4.858   3.759  0.2323  0.6699  0.2752
   23MOL    C87 2771   0.079   4.751   3.687  0.0793  0.1252 -0.4729
   23MOL    H88 2772   0.181   4.925   3.676 -0.8595 -1.4412 -1.7897
   23MOL    H89 2773   0.250   4.811   3.794 -0.9026 -2.1476 -0.3969
   23MOL    H90 2774   0.069   4.665   3.753 -0.2503  1.0871  0.7547
   23MOL    H91 2775   7.676   4.789   3.649 -1.1403 -2.8061 -0.4728
   23MOL    C92 2776   0.164   4.695   3.568 -0.4172 -0.1263 -0.3351
   23MOL    C93 2777   0.087   4.577   3.508  0.2250  1.0795  0.2523
   23MOL    H94 2778   0.171   4.766   3.485  0.4225 -2.3797 -2.2485
   23MOL    H95 2779   0.263   4.663   3.600  0.1046  1.9458  0.2329
   23MOL    H96 2780   0.068   4.493   3.574 -1.2343 -1.5370 -3.3186
   23MOL    H97 2781   7.681   4.605   3.468 -0.8338 -2.3574  0.2913
   23MOL    C98 2782   0.160   4.516   3.387 -0.8135  0.2441 -0.9912
   23MOL    C99 2783   0.106   4.371   3.356  0.3009 -0.1103  0.2789
   23MOL   H100 2784   0.150   4.575   3.296  0.6492  1.3840 -0.4304
   23MOL   H101 2785   0.264   4.498   3.415 -1.5210 -0.4786  1.3032
   23MOL   H102 2786   0.127   4.308   3.442  1.1082  2.0886  1.7464
   23MOL   H103 2787   0.000   4.360   3.334  0.1344  0.3423  0.8295
   23MOL   C104 2788   0.172   4.315   3.222 -0.0524  0.6311  0.4051
   23MOL   C105 2789   0.099   4.184   3.184 -0.3919  0.6262  0.0860
   23MOL   H106 2790   0.169   4.390   3.142  1.4614 -0.1878 -0.4357
   23MOL   H107 2791   0.274   4.282   3.239 -0.1404  0.0184 -0.2395
   23MOL   H108 2792   0.065   4.131   3.273  0.5864  0.6971  0.5027
   23MOL   H109 2793   0.014   4.208   3.120 -0.2471  0.0343 -0.3373
   23MOL   C110 2794   0.198   4.092   3.101 -0.5779 -0.2098  0.8639
   23MOL   C111 2795   0.140   3.953   3.072  0.4459  0.6915 -0.3065
   23MOL   H112 2796   0.238   4.153   3.021  2.1576  1.0854  3.1097
   23MOL   H113 2797   0.291   4.078   3.158 -0.6219  0.2308  1.0449
   23MOL   H114 2798   0.199   3.882   3.131 -1.7828 -1.4666 -0.5750
   23MOL   H115 2799   0.034   3.950   3.097  0.3010  0.7694 -0.9106
   23MOL   C116 2800   0.156   3.928   2.926 -0.1877  0.7302  0.5666
   23MOL   C117 2801   0.043   4.003   2.848  0.5062  0.0138  0.6589
   23MOL   H118 2802   0.260   3.950   2.902  0.0553 -2.2636 -1.4593
   23MOL   H119 2803   0.143   3.821   2.909 -0.4509  0.7927  0.3721
   23MOL   H120 2804   7.636   3.961   2.868  1.1971 -1.7901  0.3448
   23MOL   H121 2805   0.051   4.109   2.869  0.9670  0.0977  0.0506
   23MOL   H122 2806   0.052   3.994   2.740 -1.4880 -1.7120  0.6017
   24MOL     C1 2807   2.701   2.554   2.932 -0.2294 -0.4609  0.3664
   24MOL     C2 2808   2.830   2.480   2.901 -0.4304  0.3371 -0.0940
   24MOL     H3 2809   2.713   2.647   2.987 -0.3517 -0.0529 -0.2980
   24MOL     H4 2810   2.629   2.495   2.989  0.0027 -0.8839  0.2225
   24MOL     H5 2811   2.878   2.453   2.995 -1.7938  0.1014  0.5470
   24MOL     H6 2812   2.823   2.390   2.840  0.6714 -0.7039  1.2784
   24MOL     H7 2813   2.653   2.583   2.839 -2.7901 -1.9427  1.1351
   24MOL     C8 2814   2.934   2.557   2.819 -0.3354  0.7201 -0.1612
   24MOL     C9 2815   3.076   2.488   2.817 -0.8428  0.3033  0.1425
   24MOL    H10 2816   2.896   2.570   2.717  1.6763 -2.8658 -1.4283
   24MOL    H11 2817   2.938   2.660   2.855 -3.8574  0.7812  0.2451
   24MOL    H12 2818   3.112   2.476   2.919  1.5447 -1.0260 -0.8323
   24MOL    H13 2819   3.100   2.399   2.759 -0.5106 -0.1354  0.9521
   24MOL    C14 2820   3.174   2.572   2.741 -0.6343 -0.1742  0.3418
   24MOL    C15 2821   3.310   2.511   2.728 -0.3782  0.1625 -0.0158
   24MOL    H16 2822   3.141   2.578   2.637 -1.7189  1.7778  0.7711
   24MOL    H17 2823   3.179   2.674   2.779  1.9103 -0.9695  2.2258
   24MOL    H18 2824   3.345   2.481   2.827 -2.4083 -1.0419  0.3548
   24MOL    H19 2825   3.317   2.431   2.654 -2.0199 -0.5613  0.6060
   24MOL    C20 2826   3.414   2.613   2.670 -0.4069 -0.4614 -0.0204
   24MOL    C21 2827   3.561   2.565   2.660 -0.0463  0.1923 -0.0566
   24MOL    H22 2828   3.383   2.626   2.566 -1.5080 -0.1856  0.3292
   24MOL    H23 2829   3.416   2.706   2.725  1.1132 -0.1781 -0.5355
   24MOL    H24 2830   3.601   2.537   2.757 -1.3833 -0.9158  0.1974
   24MOL    H25 2831   3.565   2.475   2.598 -1.5672  1.1062 -1.5448
   24MOL    C26 2832   3.645   2.668   2.596 -0.5028 -0.2154 -0.0788
   24MOL    C27 2833   3.788   2.622   2.560 -0.1003  0.3821  0.1738
   24MOL    H28 2834   3.592   2.714   2.512 -0.4567  0.1348  0.0848
   24MOL    H29 2835   3.662   2.749   2.667 -0.7334  0.7247 -1.0763
   24MOL    H30 2836   3.829   2.567   2.644  0.7284 -1.0246 -1.1331
   24MOL    H31 2837   3.780   2.556   2.474 -2.8877 -1.1510  1.5369
   24MOL    C32 2838   3.881   2.738   2.511 -0.4368  0.4293  0.7636
   24MOL    C33 2839   4.019   2.692   2.467  0.6380 -0.0585 -0.0588
   24MOL    H34 2840   3.832   2.801   2.436  0.4662  1.2783  0.8732
   24MOL    H35 2841   3.894   2.807   2.595  3.0527 -0.1402  0.7345
   24MOL    H36 2842   4.070   2.636   2.544  0.1937 -1.2516 -0.6241
   24MOL    H37 2843   4.012   2.627   2.379  0.0516 -0.1991  0.0893
   24MOL    C38 2844   4.121   2.801   2.415  0.5167 -0.4051  0.0779
   24MOL    C39 2845   4.251   2.733   2.367 -0.3222 -0.1168 -0.1496
   24MOL    H40 2846   4.076   2.860   2.334  0.0088  1.1736  1.4769
   24MOL    H41 2847   4.141   2.871   2.496  1.1643 -0.8799  0.3302
   24MOL    H42 2848   4.289   2.682   2.455  3.9052  0.3963 -1.5754
   24MOL    H43 2849   4.225   2.648   2.303  1.0559 -1.5829  1.1751
   24MOL    C44 2850   4.361   2.827   2.315  0.1128  0.4736  0.3054
   24MOL    C45 2851   4.490   2.765   2.271  0.0708  0.6192  0.4097
   24MOL    H46 2852   4.317   2.878   2.229  1.1786  1.2927  0.2425
   24MOL    H47 2853   4.381   2.905   2.388  0.5988 -1.7064  2.5558
   24MOL    H48 2854   4.531   2.714   2.358  1.2709  1.5039  0.3793
   24MOL    H49 2855   4.461   2.701   2.188  0.3638  2.2717 -1.0124
   24MOL    C50 2856   4.585   2.866   2.229 -0.2049  0.6282 -0.0673
   24MOL    C51 2857   4.717   2.818   2.198 -0.1418  0.3630 -0.4184
   24MOL    H52 2858   4.551   2.924   2.144 -0.5926  1.4025  0.6118
   24MOL    H53 2859   4.597   2.944   2.305  0.7184 -0.6636  1.1452
   24MOL    H54 2860   4.769   2.760   2.274  0.0339 -2.2351 -2.4352
   24MOL    H55 2861   4.718   2.751   2.112 -0.1347  1.2614 -1.1338
   24MOL    C56 2862   4.823   2.920   2.162  0.1257  0.0499 -0.0028
   24MOL    C57 2863   4.938   2.855   2.093 -0.3881 -0.4222 -0.1133
   24MOL    H58 2864   4.773   2.982   2.089  0.5524 -0.7187 -0.9663
   24MOL    H59 2865   4.854   2.990   2.239  0.1591  0.6843 -0.5922
   24MOL    H60 2866   4.979   2.774   2.153 -1.6241 -0.4915  0.6652
   24MOL    H61 2867   4.906   2.805   2.001 -0.6477 -0.1805 -0.1547
   24MOL    C62 2868   5.042   2.964   2.046 -0.4241  0.4503  0.1638
   24MOL    C63 2869   5.163   2.898   1.975  0.4553  0.4462 -0.3401
   24MOL    H64 2870   4.994   3.038   1.981  0.0688 -0.1976 -0.9390
   24MOL    H65 2871   5.082   3.024   2.128  0.3362  1.1678 -0.7126
   24MOL    H66 2872   5.224   2.841   2.045 -1.7153 -1.4032  0.0968
   24MOL    H67 2873   5.131   2.838   1.889  4.3831 -1.8797 -0.2835
   24MOL    C68 2874   5.258   3.015   1.924 -0.0564 -0.0984 -0.3985
   24MOL    C69 2875   5.362   2.938   1.832 -0.2043  0.9904 -0.7315
   24MOL    H70 2876   5.196   3.091   1.876  1.9022  1.7966  0.0160
   24MOL    H71 2877   5.300   3.065   2.011 -1.1159  1.6801 -0.8782
   24MOL    H72 2878   5.460   2.984   1.847  0.7801 -0.8062 -1.4376
   24MOL    H73 2879   5.383   2.840   1.874 -2.5266  0.6456 -0.3406
   24MOL    C74 2880   5.314   2.932   1.687  0.3294  0.0789  0.1042
   24MOL    C75 2881   5.428   2.918   1.586 -0.1959 -0.4704  0.4364
   24MOL    H76 2882   5.249   2.845   1.677  0.6211 -0.1106 -0.1597
   24MOL    H77 2883   5.262   3.024   1.661 -0.4018 -0.5490 -0.6949
   24MOL    H78 2884   5.502   2.996   1.600  1.5603 -1.7609 -1.3670
   24MOL    H79 2885   5.475   2.821   1.604 -0.5023 -0.9529 -1.2519
   24MOL    C80 2886   5.387   2.936   1.440  0.2675 -0.4243  0.6666
   24MOL    C81 2887   5.490   2.890   1.342 -0.2165  0.1861  0.4346
   24MOL    H82 2888   5.289   2.892   1.419 -0.6527  1.2091  1.4198
   24MOL    H83 2889   5.374   3.043   1.423  1.9049  0.0413  2.2620
   24MOL    H84 2890   5.585   2.931   1.377 -0.4251  0.4547  0.6854
   24MOL    H85 2891   5.524   2.787   1.349 -0.5667  0.0153 -0.2669
   24MOL    C86 2892   5.471   2.933   1.198 -0.0785  0.5666  0.3596
   24MOL    C87 2893   5.600   2.943   1.121 -0.0078  0.3723 -0.3897
   24MOL    H88 2894   5.404   2.861   1.151  2.0085 -0.4311 -1.1687
   24MOL    H89 2895   5.425   3.032   1.194  0.6806  0.9111  0.1484
   24MOL    H90 2896   5.671   3.004   1.177 -0.5975  1.2517 -0.5956
   24MOL    H91 2897   5.642   2.843   1.119  2.9375  1.5833 -3.1869
   24MOL    C92 2898   5.581   2.997   0.983 -0.6040  0.3913 -0.8871
   24MOL    C93 2899   5.713   2.982   0.897 -0.1302 -0.2131  0.5551
   24MOL    H94 2900   5.515   2.940   0.918  0.7641 -0.5081 -1.5065
   24MOL    H95 2901   5.542   3.099   0.988  0.1472  0.6015  1.0685
   24MOL    H96 2902   5.801   3.009   0.955  1.3218 -0.0375 -1.6783
   24MOL    H97 2903   5.724   2.875   0.877  0.8016  0.2746 -1.7094
   24MOL    C98 2904   5.697   3.074   0.776 -0.4813  0.1934 -0.1118
   24MOL    C99 2905   5.822   3.086   0.689  0.4545  0.5615  0.6128
   24MOL   H100 2906   5.614   3.030   0.720 -0.2986 -0.4025  0.0837
   24MOL   H101 2907   5.667   3.173   0.809  0.8804  0.9855 -1.1537
   24MOL   H102 2908   5.902   3.114   0.758  1.4815  0.4708 -0.5476
   24MOL   H103 2909   5.862   2.991   0.655 -0.5456  1.1296 -2.2365
   24MOL   C104 2910   5.803   3.176   0.568  0.1833  0.1950  0.2926
   24MOL   C105 2911   5.708   3.123   0.465  0.8433 -0.1633  0.6115
   24MOL   H106 2912   5.771   3.276   0.599  1.5349  0.8599 -0.3941
   24MOL   H107 2913   5.898   3.180   0.515 -0.5524  0.1079 -1.0551
   24MOL   H108 2914   5.741   3.024   0.436 -2.1248 -0.9468 -0.2949
   24MOL   H109 2915   5.602   3.123   0.491  0.7826  2.5773  0.5386
   24MOL   C110 2916   5.714   3.203   0.336  0.7010 -0.0644  0.0417
   24MOL   C111 2917   5.648   3.142   0.211  0.9416  0.3721 -0.4602
   24MOL   H112 2918   5.661   3.295   0.362 -1.5191 -1.4262  0.4336
   24MOL   H113 2919   5.818   3.223   0.312  0.5775 -1.1373 -1.4480
   24MOL   H114 2920   5.721   3.064   0.188  2.1172  1.2986  0.0491
   24MOL   H115 2921   5.554   3.092   0.231  1.6376 -0.3164  1.2007
   24MOL   C116 2922   5.623   3.246   0.095 -0.6888 -0.0193 -0.9173
   24MOL   C117 2923   5.588   3.186   7.653  0.4311  0.2838  0.0646
   24MOL   H118 2924   5.550   3.320   0.126 -1.1272 -1.1703  0.8659
   24MOL   H119 2925   5.714   3.305   0.084 -0.9249  0.8761  1.7124
   24MOL   H120 2926   5.487   3.146   7.644  1.1385 -1.1500 -1.7538
   24MOL   H121 2927   5.599   3.262   7.575  1.6790 -0.9396 -0.9738
   24MOL   H122 2928   5.657   3.111   7.616 -0.0772 -0.8222  1.3466
   25MOL     C1 2929   6.831   7.686   6.230 -0.5299 -0.3548 -0.2384
   25MOL     C2 2930   6.790   7.614   6.364  0.3358  0.6124 -0.6830
   25MOL     H3 2931   6.919   0.058   6.240 -0.1118 -1.3217  3.2232
   25MOL     H4 2932   6.743   0.050   6.198  1.1565  1.7511 -1.2850
   25MOL     H5 2933   6.717   7.541   6.328 -0.5586  1.0200  0.2984
   25MOL     H6 2934   6.872   7.545   6.386  1.6081  1.4156 -2.7822
   25MOL     H7 2935   6.857   7.612   6.155  2.0159  0.0465  0.2154
   25MOL     C8 2936   6.743   0.012   6.481  0.1819  0.2949  0.3141
   25MOL     C9 2937   6.865   0.042   6.560 -0.0193  0.5589 -0.2950
   25MOL    H10 2938   6.715   0.109   6.439  1.8742  0.2807 -0.9549
   25MOL    H11 2939   6.664   7.662   6.542  1.5495 -0.5652  1.5249
   25MOL    H12 2940   6.929   7.646   6.567  0.8424  1.1155 -1.2011
   25MOL    H13 2941   6.926   0.110   6.501  0.9135 -0.6361 -0.7353
   25MOL    C14 2942   6.848   0.111   6.702 -0.3580 -0.3746  0.0625
   25MOL    C15 2943   6.799   0.026   6.818 -0.2874  0.0595 -0.0612
   25MOL    H16 2944   6.937   0.164   6.737  0.1984 -2.3611  1.7993
   25MOL    H17 2945   6.773   0.187   6.682 -0.8145 -1.0943 -1.0575
   25MOL    H18 2946   6.709   7.663   6.791 -1.2249  1.6599 -0.2935
   25MOL    H19 2947   6.874   7.640   6.828  0.5749  0.7709 -0.9450
   25MOL    C20 2948   6.782   0.084   6.955  0.4595 -0.3171 -0.5164
   25MOL    C21 2949   6.903   0.085   7.051  0.2408 -0.3490 -0.1801
   25MOL    H22 2950   6.717   0.172   6.956 -2.3323 -2.3281 -0.4157
   25MOL    H23 2951   6.715   0.016   7.008 -1.1919 -0.3158 -2.5231
   25MOL    H24 2952   6.938   7.680   7.085  2.7590  0.3434 -0.6389
   25MOL    H25 2953   6.989   0.125   6.998  0.5777 -0.2896  0.4081
   25MOL    C26 2954   6.886   0.165   7.184  0.0299 -0.8097  0.4461
   25MOL    C27 2955   7.017   0.204   7.252 -0.5589 -0.1902  0.6621
   25MOL    H28 2956   6.829   0.257   7.165 -0.8830 -1.5869 -0.6339
   25MOL    H29 2957   6.824   0.109   7.254  1.8966 -2.7034  0.5911
   25MOL    H30 2958   7.086   0.120   7.246 -0.7932 -0.1777 -5.1047
   25MOL    H31 2959   7.069   0.287   7.203 -0.0921  0.0132  1.4903
   25MOL    C32 2960   6.992   0.242   7.396 -0.0364  0.2976 -0.4342
   25MOL    C33 2961   7.132   0.270   7.464  0.6476 -0.0088  0.0684
   25MOL    H34 2962   6.923   0.326   7.405  0.3380  0.3838  2.0607
   25MOL    H35 2963   6.939   0.161   7.447  1.0889 -0.1949 -0.0290
   25MOL    H36 2964   7.197   0.188   7.433 -1.3322 -0.5459 -2.8570
   25MOL    H37 2965   7.178   0.363   7.432  1.4566 -0.6107 -0.5071
   25MOL    C38 2966   7.123   0.268   7.619  0.2365  0.4296  0.9762
   25MOL    C39 2967   7.256   0.273   0.003 -0.1084  0.7812  0.2084
   25MOL    H40 2968   7.046   0.337   7.654  0.3957  0.6385  0.9220
   25MOL    H41 2969   7.082   0.173   7.651 -0.0443 -0.4737 -1.9843
   25MOL    H42 2970   7.296   0.172   0.009 -0.6307  0.5278 -0.5079
   25MOL    H43 2971   7.340   0.322   7.645  0.1469 -0.7359 -0.8711
   25MOL    C44 2972   7.230   0.330   0.145 -0.0367  0.3319 -0.7706
   25MOL    C45 2973   7.357   0.344   0.236  0.3240  0.2902  0.2203
   25MOL    H46 2974   7.175   0.422   0.130 -2.5371 -1.2020 -1.3256
   25MOL    H47 2975   7.156   0.263   0.189  0.5039 -0.3006 -0.8071
   25MOL    H48 2976   7.396   0.247   0.269  3.5370  1.2674 -0.5194
   25MOL    H49 2977   7.438   0.400   0.188 -1.6187  0.9655 -2.3894
   25MOL    C50 2978   7.333   0.436   0.353 -0.2375  0.3722 -0.1690
   25MOL    C51 2979   7.423   0.423   0.489  0.1603 -0.0754  0.2146
   25MOL    H52 2980   7.330   0.540   0.320 -1.8200 -0.0210 -1.3463
   25MOL    H53 2981   7.228   0.422   0.381 -0.3621  1.0456 -0.2885
   25MOL    H54 2982   7.412   0.318   0.518  1.4152 -0.4457 -0.5729
   25MOL    H55 2983   7.530   0.437   0.478  0.4404 -1.7476  0.5687
   25MOL    C56 2984   7.382   0.506   0.609  0.1076 -0.5304 -0.4394
   25MOL    C57 2985   7.399   0.661   0.587  0.1483 -0.0336 -0.1180
   25MOL    H58 2986   7.278   0.482   0.630  0.0210  0.6770  0.5680
   25MOL    H59 2987   7.441   0.486   0.698 -1.6820  2.6211  1.5267
   25MOL    H60 2988   7.505   0.683   0.579  0.0906  0.1582 -0.3582
   25MOL    H61 2989   7.367   0.683   0.485 -0.9966  1.6174  0.5858
   25MOL    C62 2990   7.335   0.751   0.699 -0.6040 -0.0090 -0.0844
   25MOL    C63 2991   7.373   0.899   0.694  0.2758 -0.2835 -0.8953
   25MOL    H64 2992   7.228   0.744   0.679 -1.0327  0.8638  1.7361
   25MOL    H65 2993   7.357   0.707   0.797  2.2555 -0.0653 -0.7132
   25MOL    H66 2994   7.324   0.947   0.778 -1.7773 -0.8599 -1.7520
   25MOL    H67 2995   7.480   0.908   0.714  0.0372  1.6338 -0.3267
   25MOL    C68 2996   7.335   0.970   0.564 -0.1040  0.6659  0.3781
   25MOL    C69 2997   7.359   1.127   0.561  0.3597  0.2553  0.0202
   25MOL    H70 2998   7.367   0.914   0.476 -0.7370  2.7296 -1.2100
   25MOL    H71 2999   7.227   0.963   0.554  0.0100 -2.5558  0.7238
   25MOL    H72 3000   7.276   1.164   0.621 -0.0165 -1.0935  0.3577
   25MOL    H73 3001   7.443   1.153   0.624 -0.2081  1.6654  0.2227
   25MOL    C74 3002   7.366   1.173   0.417 -0.8941  0.0047 -0.3635
   25MOL    C75 3003   7.384   1.320   0.400  0.3094  0.4098  0.2252
   25MOL    H76 3004   7.443   1.116   0.364  0.0387  1.1730 -0.2858
   25MOL    H77 3005   7.269   1.145   0.375 -0.7696  1.5042 -1.6771
   25MOL    H78 3006   7.311   1.366   0.467 -1.1108 -0.6821 -0.5301
   25MOL    H79 3007   7.481   1.346   0.442  0.5399  3.1307 -1.8547
   25MOL    C80 3008   7.376   1.384   0.258 -0.0077  0.7614 -0.3411
   25MOL    C81 3009   7.379   1.533   0.280 -0.4972 -0.1776 -0.4010
   25MOL    H82 3010   7.460   1.356   0.194 -1.0823  1.3925 -2.0541
   25MOL    H83 3011   7.277   1.359   0.219 -0.9129  0.9339  1.7803
   25MOL    H84 3012   7.302   1.550   0.355  0.1238 -2.7290  0.8710
   25MOL    H85 3013   7.471   1.557   0.334 -1.4024 -0.4936  1.3074
   25MOL    C86 3014   7.376   1.625   0.151  0.5819  0.4311  0.8065
   25MOL    C87 3015   7.251   1.610   0.065  0.5858 -0.2047  0.9846
   25MOL    H88 3016   7.394   1.727   0.185 -1.4716  0.9507  0.3854
   25MOL    H89 3017   7.467   1.605   0.094 -0.2314 -0.0092 -0.3468
   25MOL    H90 3018   7.247   1.507   0.029  0.1435 -0.3003  1.3128
   25MOL    H91 3019   7.161   1.610   0.127  0.1197 -0.9732  0.3238
   25MOL    C92 3020   7.241   1.710   7.639 -0.0861  0.7123 -0.0739
   25MOL    C93 3021   7.336   1.673   7.523 -0.4957  0.1626 -0.7122
   25MOL    H94 3022   7.139   1.697   7.602 -0.7204  2.1264  1.1577
   25MOL    H95 3023   7.255   1.814   7.664 -0.6010  0.7503  0.0747
   25MOL    H96 3024   7.438   1.655   7.557 -0.1767 -0.1516 -1.7878
   25MOL    H97 3025   7.308   1.572   7.491  1.8045 -0.7803  0.1046
   25MOL    C98 3026   7.331   1.774   7.400 -0.1751 -0.0201 -0.3356
   25MOL    C99 3027   7.380   1.720   7.265 -0.1563 -0.8677 -0.1120
   25MOL   H100 3028   7.236   1.827   7.400  0.0570  0.4435 -2.7130
   25MOL   H101 3029   7.399   1.854   7.431 -0.1672  1.4816 -4.0476
   25MOL   H102 3030   7.471   1.661   7.275  0.5363  0.0188 -1.0068
   25MOL   H103 3031   7.308   1.659   7.210 -0.1207 -1.7899  0.8500
   25MOL   C104 3032   7.401   1.844   7.180  0.1858  0.1133  0.5833
   25MOL   C105 3033   7.450   1.805   7.036  0.1625  0.5088 -0.6096
   25MOL   H106 3034   7.308   1.900   7.171  1.8859  3.1778  1.1318
   25MOL   H107 3035   7.471   1.914   7.226  0.4784 -0.7418  1.4498
   25MOL   H108 3036   7.523   1.724   7.043 -0.3942 -0.1949 -2.5645
   25MOL   H109 3037   7.379   1.762   6.965  0.5394  1.5532 -1.6365
   25MOL   C110 3038   7.513   1.922   6.951  0.6014 -0.2981 -0.2690
   25MOL   C111 3039   7.557   1.871   6.815 -0.1868 -0.2313  0.3592
   25MOL   H112 3040   7.454   2.013   6.937  2.1860  0.7835  0.0410
   25MOL   H113 3041   7.596   1.962   7.009  2.5131 -2.8794 -1.1211
   25MOL   H114 3042   7.645   1.809   6.822  0.1125 -0.1161 -2.1350
   25MOL   H115 3043   7.492   1.798   6.767  1.6771 -0.1268 -2.4372
   25MOL   C116 3044   7.583   1.979   6.707 -0.2496  0.0172 -0.2278
   25MOL   C117 3045   7.595   1.923   6.563  0.8350 -0.3841  0.9855
   25MOL   H118 3046   7.507   2.056   6.715 -0.6848 -0.5805  1.4962
   25MOL   H119 3047   7.679   2.030   6.717  1.5013 -2.3486 -3.9550
   25MOL   H120 3048   7.623   2.009   6.503  0.2640 -1.0673 -0.2849
   25MOL   H121 3049   7.677   1.851   6.558  0.4187 -1.0108  2.6027
   25MOL   H122 3050   7.507   1.893   6.507  1.1125 -0.7832  0.7542
   26MOL     C1 3051   6.029   0.880   1.887 -0.7018 -0.0935 -0.7520
   26MOL     C2 3052   6.043   0.959   1.754  0.4481 -0.6021  0.2957
   26MOL     H3 3053   5.934   0.898   1.938 -0.3631  2.0325 -0.8467
   26MOL     H4 3054   6.108   0.907   1.957 -2.8089  2.5621  0.6814
   26MOL     H5 3055   6.011   1.062   1.767  0.1186 -0.8441  1.4537
   26MOL     H6 3056   6.148   0.961   1.726 -0.1923  1.4205 -2.1756
   26MOL     H7 3057   6.020   0.772   1.875 -0.4144 -0.0738 -1.1490
   26MOL     C8 3058   5.963   0.897   1.638 -0.2037  0.5784  0.1901
   26MOL     C9 3059   5.817   0.852   1.672 -0.1190 -0.4696  0.0344
   26MOL    H10 3060   5.955   0.967   1.555  0.1118  0.1783 -0.1794
   26MOL    H11 3061   6.018   0.812   1.596  3.3763  3.0002 -0.1653
   26MOL    H12 3062   5.812   0.766   1.739 -1.5621 -0.4504 -0.0164
   26MOL    H13 3063   5.754   0.929   1.717 -0.0151  0.5212 -1.4784
   26MOL    C14 3064   5.752   0.810   1.538 -0.0868 -0.6074 -0.0976
   26MOL    C15 3065   5.628   0.720   1.548 -0.5909  0.1707 -0.4524
   26MOL    H16 3066   5.729   0.910   1.502  0.0731 -0.8871 -0.9844
   26MOL    H17 3067   5.826   0.763   1.473  1.7551 -0.8979  2.1487
   26MOL    H18 3068   5.662   0.631   1.602 -1.4300  1.1838  1.8391
   26MOL    H19 3069   5.556   0.768   1.615 -1.4651  2.0106 -2.6515
   26MOL    C20 3070   5.567   0.676   1.412  1.0940 -0.1453  0.0946
   26MOL    C21 3071   5.509   0.792   1.327 -0.1449 -0.2211 -0.2094
   26MOL    H22 3072   5.643   0.620   1.358 -0.3154 -0.8929 -1.1727
   26MOL    H23 3073   5.485   0.606   1.435  1.0796 -0.3522 -0.5704
   26MOL    H24 3074   5.587   0.867   1.319  0.1076 -0.6423 -1.8662
   26MOL    H25 3075   5.489   0.760   1.225  0.3715  1.3706 -0.8181
   26MOL    C26 3076   5.385   0.857   1.390 -0.7646 -0.4701  0.0868
   26MOL    C27 3077   5.319   0.958   1.302 -0.0839  0.3273  0.7519
   26MOL    H28 3078   5.308   0.786   1.420 -0.4422 -1.2818 -0.9847
   26MOL    H29 3079   5.429   0.898   1.481  1.7940 -2.1384 -0.3374
   26MOL    H30 3080   5.391   1.036   1.276 -1.4844  0.9692 -1.3379
   26MOL    H31 3081   5.264   0.910   1.221 -0.7163  2.5733 -0.2116
   26MOL    C32 3082   5.207   1.028   1.382 -0.9241 -0.3262 -0.3250
   26MOL    C33 3083   5.128   1.136   1.308 -0.3089 -0.0642 -0.1711
   26MOL    H34 3084   5.144   0.950   1.425 -0.2159 -0.5159  0.3826
   26MOL    H35 3085   5.258   1.079   1.464 -1.7939  0.8867 -0.5231
   26MOL    H36 3086   5.206   1.209   1.283  1.2479 -2.5350 -2.7821
   26MOL    H37 3087   5.084   1.100   1.216 -0.6952  2.2310 -0.9266
   26MOL    C38 3088   5.018   1.211   1.390 -0.1694 -0.0759  0.1954
   26MOL    C39 3089   4.923   1.112   1.468  0.4391 -0.5869  0.4100
   26MOL    H40 3090   5.066   1.279   1.460  2.1707 -1.8435  0.3845
   26MOL    H41 3091   4.955   1.264   1.318 -1.0121 -1.0385  0.2061
   26MOL    H42 3092   4.886   1.051   1.385  0.3764  0.3046 -0.2339
   26MOL    H43 3093   4.981   1.057   1.542  2.5307  0.9383 -0.0278
   26MOL    C44 3094   4.794   1.184   1.515  0.3827  0.3817  0.2379
   26MOL    C45 3095   4.680   1.096   1.567  0.1995 -0.0188  0.7488
   26MOL    H46 3096   4.838   1.239   1.598  1.7890 -1.5108  0.7933
   26MOL    H47 3097   4.762   1.260   1.444  2.1971  0.4081 -0.5927
   26MOL    H48 3098   4.596   1.090   1.498  0.9365 -0.6927 -0.1082
   26MOL    H49 3099   4.714   0.996   1.590  1.2351  0.1958  0.1880
   26MOL    C50 3100   4.604   1.167   1.685 -0.8122  0.2887 -0.0290
   26MOL    C51 3101   4.485   1.073   1.728 -0.4438 -0.2506  0.0454
   26MOL    H52 3102   4.671   1.170   1.771  0.9841 -0.9923 -1.3670
   26MOL    H53 3103   4.571   1.269   1.663 -1.6349 -0.0294 -0.2859
   26MOL    H54 3104   4.423   1.036   1.646  2.2209 -0.4509 -1.9538
   26MOL    H55 3105   4.526   0.979   1.763  0.7870  0.2036 -0.1562
   26MOL    C56 3106   4.389   1.134   1.841 -0.3197 -0.1939  0.2059
   26MOL    C57 3107   4.281   1.042   1.904 -0.1873 -0.3943 -0.3076
   26MOL    H58 3108   4.441   1.195   1.915 -0.6752  1.0992 -0.5904
   26MOL    H59 3109   4.334   1.210   1.785 -0.4260 -1.6592 -1.7404
   26MOL    H60 3110   4.225   0.996   1.823 -1.5817 -0.3636  0.6199
   26MOL    H61 3111   4.337   0.970   1.964 -1.3686 -0.5895  0.5653
   26MOL    C62 3112   4.169   1.108   1.988 -0.5455 -0.0903  0.6102
   26MOL    C63 3113   4.074   1.005   2.044  0.1991  0.4546 -0.6190
   26MOL    H64 3114   4.212   1.174   2.063  0.0779 -1.1568  1.1936
   26MOL    H65 3115   4.125   1.174   1.913  1.6615  0.2629 -0.4124
   26MOL    H66 3116   4.035   0.937   1.968  0.6817 -0.4118 -0.1024
   26MOL    H67 3117   4.117   0.949   2.127 -0.7801  0.1570 -0.3060
   26MOL    C68 3118   3.948   1.079   2.100  0.4595 -0.2802  0.0253
   26MOL    C69 3119   3.831   0.986   2.145  0.3951 -0.7181 -0.4752
   26MOL    H70 3120   3.992   1.140   2.179  1.1159 -1.6717  0.7619
   26MOL    H71 3121   3.916   1.144   2.019  2.5606 -1.5603 -1.8990
   26MOL    H72 3122   3.797   0.933   2.056  1.4232  0.0187 -1.3109
   26MOL    H73 3123   3.865   0.909   2.215 -1.9592 -0.7782  0.6402
   26MOL    C74 3124   3.719   1.070   2.213  0.6353 -0.0589 -0.9401
   26MOL    C75 3125   3.602   0.977   2.256 -0.7526  1.2163  0.2035
   26MOL    H76 3126   3.755   1.114   2.306 -0.3449 -2.4012  0.5785
   26MOL    H77 3127   3.680   1.148   2.147  0.3003  0.3465 -0.2778
   26MOL    H78 3128   3.568   0.915   2.173 -1.7501  0.0173  1.5006
   26MOL    H79 3129   3.642   0.908   2.331 -2.5540 -0.6562 -0.5174
   26MOL    C80 3130   3.486   1.055   2.311  0.4682  0.1141  0.3322
   26MOL    C81 3131   3.360   0.960   2.340 -0.8211 -0.3503 -0.4385
   26MOL    H82 3132   3.510   1.100   2.407 -0.4154  1.3135  0.0027
   26MOL    H83 3133   3.461   1.139   2.245  0.9136  0.9316  1.1984
   26MOL    H84 3134   3.396   0.876   2.401  0.2506  0.5203  0.1434
   26MOL    H85 3135   3.289   1.020   2.397 -0.9025  0.1101 -1.0278
   26MOL    C86 3136   3.292   0.905   2.213 -0.6272 -0.2141 -0.3705
   26MOL    C87 3137   3.141   0.874   2.234 -0.0888 -0.3106 -0.2234
   26MOL    H88 3138   3.313   0.977   2.135  0.3512  0.9238  0.9348
   26MOL    H89 3139   3.348   0.814   2.191  1.2601  0.5987  0.9562
   26MOL    H90 3140   3.086   0.965   2.255  0.8630 -0.1593  1.7855
   26MOL    H91 3141   3.113   0.833   2.137  1.0490  1.9968 -1.5596
   26MOL    C92 3142   3.113   0.775   2.347  0.0510  0.6679 -0.0563
   26MOL    C93 3143   2.970   0.718   2.340 -0.5880  0.3786  0.2340
   26MOL    H94 3144   3.186   0.695   2.333  0.1370  0.8200 -0.4859
   26MOL    H95 3145   3.127   0.833   2.439  0.2510 -1.6929  1.4412
   26MOL    H96 3146   2.907   0.806   2.351 -0.3804  0.7068 -1.0516
   26MOL    H97 3147   2.939   0.672   2.245  0.6716 -0.9033  0.4281
   26MOL    C98 3148   2.945   0.604   2.441 -0.1090  0.6467 -0.4141
   26MOL    C99 3149   2.805   0.547   2.429 -0.4940  0.3784  0.1265
   26MOL   H100 3150   3.023   0.529   2.436  1.0014  1.7476  0.0843
   26MOL   H101 3151   2.953   0.641   2.543  0.2451 -0.6363  0.0254
   26MOL   H102 3152   2.742   0.636   2.438  0.4606  0.9634  1.1689
   26MOL   H103 3153   2.787   0.506   2.330 -1.0082  2.8892 -0.8727
   26MOL   C104 3154   2.770   0.449   2.544  0.5893  0.3858 -0.3020
   26MOL   C105 3155   2.624   0.429   2.574  0.5431  0.6995  0.1946
   26MOL   H106 3156   2.830   0.358   2.538 -0.7321 -0.6305  1.5274
   26MOL   H107 3157   2.819   0.486   2.634  1.4349 -0.8157 -0.2543
   26MOL   H108 3158   2.580   0.519   2.618 -2.1172  0.6952 -2.3303
   26MOL   H109 3159   2.572   0.427   2.478  0.8434 -3.8516 -0.0026
   26MOL   C110 3160   2.577   0.303   2.657 -0.8500  0.3087  0.2760
   26MOL   C111 3161   2.427   0.308   2.662 -0.3047 -0.3505  0.1996
   26MOL   H112 3162   2.595   0.211   2.602  1.1140  0.7588  0.1489
   26MOL   H113 3163   2.623   0.301   2.755  0.4576  2.1814 -0.2877
   26MOL   H114 3164   2.398   0.389   2.729 -0.0630 -0.1795  0.0998
   26MOL   H115 3165   2.393   0.339   2.563 -1.7831  2.3311  1.5134
   26MOL   C116 3166   2.346   0.184   2.695 -0.4185  0.3408  0.0991
   26MOL   C117 3167   2.365   0.060   2.605  0.1941  0.0679  0.3432
   26MOL   H118 3168   2.376   0.173   2.800  0.1179  1.5447  0.0827
   26MOL   H119 3169   2.238   0.200   2.705 -0.9414 -1.4404 -2.3877
   26MOL   H120 3170   2.469   0.027   2.613  0.6767  0.8342 -2.3984
   26MOL   H121 3171   2.308   7.665   2.637 -1.4869  0.8390 -0.4809
   26MOL   H122 3172   2.324   0.073   2.505  0.5601  0.7357  0.2759
   27MOL     C1 3173   4.679   3.874   0.086 -0.8223 -0.2414 -0.7638
   27MOL     C2 3174   4.813   3.931   0.030 -0.5447 -0.6949 -0.0388
   27MOL     H3 3175   4.693   3.789   0.152  2.5609  0.4191 -0.5509
   27MOL     H4 3176   4.624   3.833   0.001  1.9010 -0.4981 -2.4705
   27MOL     H5 3177   4.876   3.853   7.678 -1.1953 -0.3334 -1.6382
   27MOL     H6 3178   4.763   3.993   7.648  1.4476  0.7623 -0.2099
   27MOL     H7 3179   4.611   3.942   0.136 -1.3725 -1.8998  0.8070
   27MOL     C8 3180   4.891   4.018   0.131  0.4911  0.2681  0.4853
   27MOL     C9 3181   4.812   4.148   0.166 -0.5043  0.4455  0.1535
   27MOL    H10 3182   4.918   3.959   0.219  0.2409  0.2494  0.5493
   27MOL    H11 3183   4.988   4.051   0.094 -0.2851  0.6739 -1.2143
   27MOL    H12 3184   4.775   4.197   0.076 -1.1848  0.7742  0.6026
   27MOL    H13 3185   4.719   4.116   0.214 -0.6837 -1.0661 -1.1724
   27MOL    C14 3186   4.898   4.240   0.261 -0.2442 -0.3212  0.0488
   27MOL    C15 3187   4.971   4.164   0.372 -0.4463  0.4522  0.7611
   27MOL    H16 3188   4.967   4.313   0.218  0.5603  0.2078  2.2068
   27MOL    H17 3189   4.827   4.302   0.316 -1.1757 -0.9324 -0.4621
   27MOL    H18 3190   4.898   4.092   0.409  0.0771 -1.2141 -1.3575
   27MOL    H19 3191   5.057   4.107   0.338 -0.3717  0.1995  1.3730
   27MOL    C20 3192   5.014   4.253   0.487  0.3427  0.4014 -0.2462
   27MOL    C21 3193   5.086   4.170   0.596  0.1774  0.1553 -0.6207
   27MOL    H22 3194   5.083   4.328   0.451  1.1948 -0.5307 -0.5868
   27MOL    H23 3195   4.931   4.303   0.538 -1.9645 -2.3296 -1.1574
   27MOL    H24 3196   5.002   4.142   0.659  0.3485  0.0766 -0.4266
   27MOL    H25 3197   5.135   4.083   0.553  1.4636  0.3009  0.5061
   27MOL    C26 3198   5.179   4.251   0.685  0.6091  0.0629  0.6305
   27MOL    C27 3199   5.237   4.173   0.801 -0.8917 -0.4262  0.4301
   27MOL    H28 3200   5.270   4.291   0.638  1.3122 -0.4409  1.5448
   27MOL    H29 3201   5.128   4.340   0.720 -0.8950 -0.2799 -0.6498
   27MOL    H30 3202   5.233   4.068   0.773 -3.0886 -0.2625  0.0232
   27MOL    H31 3203   5.342   4.195   0.815 -1.0074  1.1699 -1.0694
   27MOL    C32 3204   5.160   4.199   0.933  0.6573 -0.0412  0.3717
   27MOL    C33 3205   5.228   4.121   1.047 -0.9660 -0.3070 -0.0335
   27MOL    H34 3206   5.169   4.305   0.958 -2.8683  0.4554 -0.2849
   27MOL    H35 3207   5.054   4.174   0.931  0.1579  1.7010  2.4852
   27MOL    H36 3208   5.264   4.027   1.006  0.0447  0.4815 -0.9766
   27MOL    H37 3209   5.320   4.172   1.076 -1.3621  0.4505 -0.0809
   27MOL    C38 3210   5.144   4.092   1.175 -0.3371  0.3611  0.6820
   27MOL    C39 3211   5.233   4.017   1.273 -0.3745 -0.0585 -0.2537
   27MOL    H40 3212   5.114   4.179   1.234 -0.1485  0.9920 -0.1418
   27MOL    H41 3213   5.055   4.041   1.140  0.6158 -0.6560 -0.2815
   27MOL    H42 3214   5.266   3.921   1.234 -0.0085  0.2196 -0.6404
   27MOL    H43 3215   5.323   4.070   1.305 -0.6115  0.4110 -0.3541
   27MOL    C44 3216   5.157   3.988   1.407 -0.6839  0.2298 -0.9018
   27MOL    C45 3217   5.236   3.894   1.494  0.7815  0.3552 -0.7090
   27MOL    H46 3218   5.144   4.082   1.461  0.5815 -0.5711  0.8443
   27MOL    H47 3219   5.055   3.960   1.380 -1.7459  1.4486  1.7680
   27MOL    H48 3220   5.250   3.798   1.443 -1.8896  0.4222 -1.6285
   27MOL    H49 3221   5.333   3.942   1.511 -0.8358  3.2221  0.8026
   27MOL    C50 3222   5.164   3.869   1.622 -1.2427  0.1583  0.7896
   27MOL    C51 3223   5.234   3.759   1.705 -0.5985  0.3915 -0.5378
   27MOL    H52 3224   5.163   3.965   1.672 -1.0558 -0.0709  1.2385
   27MOL    H53 3225   5.063   3.834   1.597 -0.3549 -1.2448 -1.0155
   27MOL    H54 3226   5.196   3.659   1.685  0.8521 -0.4347  0.7971
   27MOL    H55 3227   5.341   3.763   1.686 -0.2823 -1.7694  0.6764
   27MOL    C56 3228   5.216   3.793   1.855 -0.2700  0.4915  0.4894
   27MOL    C57 3229   5.308   3.706   1.953 -0.1417  0.1936  0.6255
   27MOL    H58 3230   5.245   3.896   1.874  0.4493 -0.0286  2.3711
   27MOL    H59 3231   5.112   3.778   1.884 -1.1988  1.8962 -2.0388
   27MOL    H60 3232   5.312   3.600   1.926 -0.2232  0.5850 -0.9515
   27MOL    H61 3233   5.413   3.734   1.946  0.4058 -1.6181  1.1927
   27MOL    C62 3234   5.279   3.714   2.103  0.3392  0.2243  0.3639
   27MOL    C63 3235   5.159   3.625   2.159  0.1929  0.4711 -0.3986
   27MOL    H64 3236   5.373   3.685   2.149  0.5966 -0.1990 -0.4199
   27MOL    H65 3237   5.260   3.819   2.125 -1.1219 -0.2710  1.6209
   27MOL    H66 3238   5.062   3.672   2.141 -1.7027 -2.7437  1.0020
   27MOL    H67 3239   5.159   3.536   2.097  0.3090  1.8680 -2.4609
   27MOL    C68 3240   5.180   3.589   2.303  0.1656  0.3074 -0.7129
   27MOL    C69 3241   5.092   3.467   2.343  0.0796 -0.0758 -0.2148
   27MOL    H70 3242   5.284   3.557   2.312 -0.1076 -0.4509 -0.1119
   27MOL    H71 3243   5.172   3.667   2.379  2.0002 -0.1386 -0.0428
   27MOL    H72 3244   5.110   3.379   2.282 -3.3490  0.2898 -1.8066
   27MOL    H73 3245   5.129   3.456   2.445 -1.1788 -0.8866  0.1554
   27MOL    C74 3246   4.943   3.509   2.356 -0.3032  0.4236 -0.6544
   27MOL    C75 3247   4.864   3.392   2.411 -0.2444  0.0447 -0.3450
   27MOL    H76 3248   4.933   3.598   2.417  1.1685  0.3544 -0.2765
   27MOL    H77 3249   4.902   3.541   2.261  1.3074 -0.7239 -1.7731
   27MOL    H78 3250   4.857   3.307   2.343 -0.0095 -1.6809  1.7460
   27MOL    H79 3251   4.919   3.351   2.496  2.2634  2.2870 -0.8008
   27MOL    C80 3252   4.725   3.442   2.444 -0.3141 -0.0518 -0.3238
   27MOL    C81 3253   4.631   3.339   2.523  0.3812 -0.4787 -0.0563
   27MOL    H82 3254   4.742   3.533   2.502 -1.4153 -0.0149 -0.0498
   27MOL    H83 3255   4.681   3.465   2.348 -0.2730 -0.5880 -0.4751
   27MOL    H84 3256   4.630   3.240   2.476 -0.3516 -0.7164  0.4570
   27MOL    H85 3257   4.681   3.330   2.620 -1.7941 -0.1414  1.1105
   27MOL    C86 3258   4.480   3.378   2.535  0.2555  1.2127  0.3328
   27MOL    C87 3259   4.383   3.267   2.573 -0.2205  0.5164  0.0250
   27MOL    H88 3260   4.470   3.458   2.608 -0.6062 -0.4189  2.0461
   27MOL    H89 3261   4.451   3.428   2.443 -0.5624  2.0232  1.0177
   27MOL    H90 3262   4.392   3.174   2.516 -1.9473  1.2458 -1.4860
   27MOL    H91 3263   4.413   3.243   2.675  0.3132 -1.2501 -0.5257
   27MOL    C92 3264   4.235   3.316   2.569 -0.0394 -0.5435  0.4432
   27MOL    C93 3265   4.136   3.195   2.598 -0.3573 -0.2978  0.0376
   27MOL    H94 3266   4.219   3.413   2.617  1.4213 -0.8707  1.6218
   27MOL    H95 3267   4.220   3.344   2.465 -0.0973  0.5092  0.7304
   27MOL    H96 3268   4.127   3.132   2.510  1.9502  0.2227 -0.5921
   27MOL    H97 3269   4.165   3.133   2.683  0.0616 -0.0013  0.1103
   27MOL    C98 3270   3.996   3.247   2.623  0.0123 -0.4392 -0.2725
   27MOL    C99 3271   3.886   3.145   2.671  0.1842  0.8589 -0.1987
   27MOL   H100 3272   4.014   3.330   2.691  1.6800  0.1462 -1.4125
   27MOL   H101 3273   3.955   3.285   2.530 -0.5553 -1.0941 -0.2995
   27MOL   H102 3274   3.877   3.068   2.594 -2.9669  1.5189 -0.5566
   27MOL   H103 3275   3.921   3.090   2.759  1.5818  2.7644  0.4654
   27MOL   C104 3276   3.748   3.212   2.699  0.3779  0.2956 -0.3803
   27MOL   C105 3277   3.649   3.102   2.755 -0.5111  0.1658 -0.3126
   27MOL   H106 3278   3.758   3.297   2.767  1.2623 -0.8507  0.9541
   27MOL   H107 3279   3.702   3.246   2.606  0.9075  1.3695 -0.2529
   27MOL   H108 3280   3.637   3.025   2.679  0.7939 -2.2571  1.8233
   27MOL   H109 3281   3.708   3.048   2.829  1.3577 -0.7585 -2.4034
   27MOL   C110 3282   3.514   3.148   2.814  0.1202 -0.2431  0.1904
   27MOL   C111 3283   3.444   3.036   2.893  0.2863 -0.3385 -0.5167
   27MOL   H112 3284   3.527   3.236   2.877  1.8889 -0.2283 -0.1804
   27MOL   H113 3285   3.444   3.180   2.736  1.0467 -1.1907 -1.0576
   27MOL   H114 3286   3.420   2.955   2.825  0.2668 -1.0327  0.3071
   27MOL   H115 3287   3.516   3.003   2.969  0.5742 -1.3231 -1.2167
   27MOL   C116 3288   3.315   3.096   2.959  0.0751  0.5007 -0.4894
   27MOL   C117 3289   3.239   3.003   3.052  0.1824 -0.1065  0.4422
   27MOL   H118 3290   3.353   3.176   3.022 -0.8756  0.9828 -0.5129
   27MOL   H119 3291   3.245   3.129   2.882  0.0448 -0.3795 -0.8521
   27MOL   H120 3292   3.311   2.959   3.121  0.4204 -0.3324  0.0522
   27MOL   H121 3293   3.163   3.060   3.107 -0.3418  0.2091 -0.5835
   27MOL   H122 3294   3.190   2.921   3.000  1.4807 -0.8273  0.3550
   28MOL     C1 3295   5.965   4.746   0.730  0.5581  0.1715 -0.2217
   28MOL     C2 3296   5.990   4.837   0.609  0.0510  0.3067  0.1601
   28MOL     H3 3297   5.965   4.643   0.693 -0.2740 -0.5908  1.8309
   28MOL     H4 3298   5.862   4.759   0.762  0.5677  0.9427 -0.4955
   28MOL     H5 3299   6.095   4.856   0.587 -0.1067 -1.4247 -2.3389
   28MOL     H6 3300   5.954   4.787   0.519 -1.2293  0.6722  0.4482
   28MOL     H7 3301   6.040   4.758   0.808  0.9281  1.7680 -0.8099
   28MOL     C8 3302   5.924   4.973   0.611  0.0408 -0.5284 -0.7623
   28MOL     C9 3303   5.932   5.026   0.469  0.5206 -0.5075 -0.8598
   28MOL    H10 3304   5.830   4.964   0.667 -0.3903 -1.3560 -1.6007
   28MOL    H11 3305   5.991   5.030   0.676 -1.8956  3.4264 -2.0179
   28MOL    H12 3306   6.036   5.037   0.437  0.0350  0.8248 -2.0362
   28MOL    H13 3307   5.889   4.949   0.405 -2.1815 -0.3984  0.7891
   28MOL    C14 3308   5.860   5.156   0.463  0.1750 -0.1201 -0.8011
   28MOL    C15 3309   5.911   5.247   0.342  0.3401 -0.0693  0.9654
   28MOL    H16 3310   5.753   5.138   0.449 -0.8471  1.4132  3.9389
   28MOL    H17 3311   5.861   5.210   0.558 -1.3886 -0.1232 -0.7708
   28MOL    H18 3312   6.019   5.244   0.329  0.1522  1.2253 -1.1270
   28MOL    H19 3313   5.861   5.213   0.251  3.4511  1.5022 -1.4123
   28MOL    C20 3314   5.871   5.396   0.361  0.1226  0.4392 -0.0092
   28MOL    C21 3315   5.726   5.439   0.336 -0.0855  0.0386  0.6654
   28MOL    H22 3316   5.907   5.424   0.460 -0.9008  0.7377  0.2833
   28MOL    H23 3317   5.927   5.468   0.302 -0.4905  0.8096 -0.1364
   28MOL    H24 3318   5.712   5.401   0.235  1.0762  2.9444 -0.6482
   28MOL    H25 3319   5.646   5.388   0.390 -0.9940  0.3345 -0.3863
   28MOL    C26 3320   5.711   5.591   0.334  0.6354  0.4927  0.1081
   28MOL    C27 3321   5.591   5.638   0.254  0.3438 -0.4118 -0.2238
   28MOL    H28 3322   5.703   5.632   0.435  1.9081  1.8414 -0.3321
   28MOL    H29 3323   5.799   5.645   0.299 -1.0237  2.4757 -1.1062
   28MOL    H30 3324   5.590   5.585   0.158 -1.3769 -0.8062 -0.0152
   28MOL    H31 3325   5.498   5.600   0.297 -0.0451  0.4502 -0.2845
   28MOL    C32 3326   5.575   5.787   0.225 -0.4261  0.7488  0.2899
   28MOL    C33 3327   5.428   5.838   0.191  0.5447  0.4772  0.0786
   28MOL    H34 3328   5.593   5.850   0.312 -2.1559 -1.6579  2.4594
   28MOL    H35 3329   5.636   5.816   0.139  0.0088 -2.4119 -0.5306
   28MOL    H36 3330   5.396   5.796   0.096 -0.0579 -0.4819  0.7039
   28MOL    H37 3331   5.360   5.792   0.262 -0.9686  0.5561 -1.2812
   28MOL    C38 3332   5.399   5.992   0.182 -0.5472 -0.0304  0.8898
   28MOL    C39 3333   5.251   6.012   0.133 -0.2627  0.0135  0.6546
   28MOL    H40 3334   5.427   6.038   0.277  1.8393 -1.5516  0.9730
   28MOL    H41 3335   5.467   6.033   0.108 -1.5767  0.0115 -0.0512
   28MOL    H42 3336   5.242   5.977   0.030 -2.7636 -0.7174  1.0972
   28MOL    H43 3337   5.186   5.961   0.204 -1.8296 -0.1177 -0.8373
   28MOL    C44 3338   5.230   6.167   0.126  0.5055  0.1251 -0.3776
   28MOL    C45 3339   5.087   6.202   0.085  0.3755  0.0454  0.4053
   28MOL    H46 3340   5.263   6.215   0.218 -1.3199 -2.8550  1.9508
   28MOL    H47 3341   5.291   6.205   0.044  0.9210  3.3539  1.3438
   28MOL    H48 3342   5.055   6.155   7.684 -0.5395 -0.8587  1.1638
   28MOL    H49 3343   5.019   6.160   0.159  0.4278 -1.0343 -0.1406
   28MOL    C50 3344   5.076   6.357   0.069 -0.4013  0.3024 -0.4813
   28MOL    C51 3345   4.952   6.417   0.016  0.4689  0.0654  0.1346
   28MOL    H52 3346   5.099   6.412   0.161 -1.7255  1.0001 -0.5495
   28MOL    H53 3347   5.160   6.385   0.006 -0.4175 -0.3911 -0.8087
   28MOL    H54 3348   4.944   6.373   7.609  1.0199 -0.1092  0.1649
   28MOL    H55 3349   4.872   6.370   0.072  0.8266 -3.2725 -2.0555
   28MOL    C56 3350   4.954   6.571   0.028  0.3241 -0.8979 -0.6217
   28MOL    C57 3351   4.821   6.635   7.679  0.1251  0.3820  0.1031
   28MOL    H58 3352   4.977   6.587   0.133  0.3536 -3.5414 -0.1839
   28MOL    H59 3353   5.031   6.613   7.654  1.5960 -0.7071  0.9525
   28MOL    H60 3354   4.795   6.627   7.574  0.2201 -1.3960  0.1888
   28MOL    H61 3355   4.748   6.575   0.043 -0.1133 -0.9837 -1.6298
   28MOL    C62 3356   4.805   6.775   0.042 -0.6157  0.3796 -0.2143
   28MOL    C63 3357   4.713   6.851   7.646  0.4736  0.2798  0.5676
   28MOL    H64 3358   4.791   6.772   0.150  0.7896 -1.5975 -0.0672
   28MOL    H65 3359   4.901   6.826   0.029 -1.5063  2.4423  1.0459
   28MOL    H66 3360   4.765   6.858   7.550  1.0217 -0.9738  0.7630
   28MOL    H67 3361   4.612   6.812   7.631  0.7003  0.1412 -0.6573
   28MOL    C68 3362   4.696   6.996   0.001 -0.1084 -0.3343 -0.1920
   28MOL    C69 3363   4.627   7.081   7.589  0.0333  0.6903 -0.6584
   28MOL    H70 3364   4.659   6.996   0.103  0.4271  1.6130  0.0175
   28MOL    H71 3365   4.793   7.039   0.023 -1.1321  2.0750 -0.2475
   28MOL    H72 3366   4.681   7.073   7.495 -0.2983  1.7042 -0.9398
   28MOL    H73 3367   4.522   7.051   7.579  0.2719 -2.5198  4.5538
   28MOL    C74 3368   4.622   7.233   7.633  0.2707  0.0830  0.0219
   28MOL    C75 3369   4.504   7.311   7.562  0.4941 -0.4559 -0.5427
   28MOL    H76 3370   4.605   7.247   0.047  0.8273  1.7290 -0.0966
   28MOL    H77 3371   4.710   7.290   7.603  0.1065  0.3481  0.0396
   28MOL    H78 3372   4.413   7.263   7.597  1.0023 -3.1776 -2.7495
   28MOL    H79 3373   4.499   7.412   7.603 -2.1227 -0.8880  0.2861
   28MOL    C80 3374   4.513   7.340   7.418  0.1742  0.5601 -0.0363
   28MOL    C81 3375   4.389   7.413   7.365 -0.5201 -0.1032  0.0407
   28MOL    H82 3376   4.608   7.391   7.401  0.4252  0.7925  1.8741
   28MOL    H83 3377   4.526   7.246   7.364 -1.7987 -1.3420  2.6239
   28MOL    H84 3378   4.398   7.411   7.257  0.7508  0.4533  0.1155
   28MOL    H85 3379   4.299   7.353   7.378 -0.1821 -0.9574 -1.4975
   28MOL    C86 3380   4.375   7.564   7.395  0.1757 -1.1439 -0.2354
   28MOL    C87 3381   4.274   7.631   7.302 -0.8262  0.9353  0.4109
   28MOL    H88 3382   4.346   7.565   7.500  0.3840  0.4978 -0.1833
   28MOL    H89 3383   4.476   7.604   7.385  0.1350 -0.8007  0.6860
   28MOL    H90 3384   4.303   7.596   7.202 -0.5884  0.2338  0.7234
   28MOL    H91 3385   4.179   7.592   7.338 -0.6791 -0.2665 -0.4487
   28MOL    C92 3386   4.273   0.095   7.308  0.5303  0.2133 -0.3328
   28MOL    C93 3387   4.167   0.161   7.213 -0.1386  0.1706 -0.7055
   28MOL    H94 3388   4.254   0.117   7.413  0.1344 -1.8057  0.0353
   28MOL    H95 3389   4.367   0.137   7.273 -0.0085  0.8499 -1.0426
   28MOL    H96 3390   4.197   0.130   7.113  0.8736 -0.6414 -0.1694
   28MOL    H97 3391   4.068   0.119   7.232  0.1705 -1.0248 -1.6785
   28MOL    C98 3392   4.169   0.313   7.230  0.6227  0.4645  0.0526
   28MOL    C99 3393   4.071   0.391   7.136 -0.4802 -0.1357  0.2476
   28MOL   H100 3394   4.145   0.338   7.333  1.2192 -0.4926  0.4317
   28MOL   H101 3395   4.270   0.352   7.215  1.1955 -0.7842  0.6333
   28MOL   H102 3396   4.108   0.385   7.034  0.6363  0.4436  0.6110
   28MOL   H103 3397   3.977   0.336   7.134 -1.5576  1.7284 -1.3754
   28MOL   C104 3398   4.041   0.539   7.174 -0.0082  0.3201  0.4015
   28MOL   C105 3399   3.945   0.600   7.070  0.1841  0.9364 -0.4380
   28MOL   H106 3400   4.003   0.540   7.276  0.9263  1.6523  0.7607
   28MOL   H107 3401   4.139   0.586   7.164  0.6535 -1.3904 -1.3398
   28MOL   H108 3402   3.979   0.598   6.966 -1.4171  0.4845 -0.9567
   28MOL   H109 3403   3.851   0.545   7.079  1.3326 -0.7622  1.7034
   28MOL   C110 3404   3.932   0.753   7.097 -0.8090  0.3167 -0.1743
   28MOL   C111 3405   3.845   0.835   7.003 -0.3453  0.4562  0.1075
   28MOL   H112 3406   3.902   0.764   7.201  1.4437  0.8532  0.4356
   28MOL   H113 3407   4.032   0.795   7.088  0.2871 -1.7119  1.8060
   28MOL   H114 3408   3.882   0.819   6.902 -0.3195  1.4756 -0.0506
   28MOL   H115 3409   3.745   0.791   7.004  0.2499 -0.9300  0.5554
   28MOL   C116 3410   3.830   0.981   7.046 -0.3179 -0.9787  0.5973
   28MOL   C117 3411   3.791   0.999   7.192 -0.3194 -0.2701  0.1920
   28MOL   H118 3412   3.921   1.035   7.019 -1.1805  1.4788  2.3687
   28MOL   H119 3413   3.749   1.024   6.986 -1.2738  0.4326  2.8280
   28MOL   H120 3414   3.767   1.100   7.223  0.1482 -0.3193  0.7334
   28MOL   H121 3415   3.704   0.940   7.221  0.7744 -3.0019 -1.8983
   28MOL   H122 3416   3.873   0.989   7.263  0.0508  0.9274 -0.0645
   29MOL     C1 3417   1.640   7.623   5.253  0.8982 -0.5385  0.1933
   29MOL     C2 3418   1.645   0.080   5.229 -0.7395  0.0916  0.2776
   29MOL     H3 3419   1.609   7.574   5.160  0.7230  0.3962 -0.2483
   29MOL     H4 3420   1.564   7.603   5.328 -1.6532  0.3585 -2.0389
   29MOL     H5 3421   1.550   0.120   5.194 -0.3605  0.4868 -0.3146
   29MOL     H6 3422   1.660   0.126   5.326  1.9460  0.6507 -0.3612
   29MOL     H7 3423   1.739   7.591   5.286  0.9436  1.4651  2.1277
   29MOL     C8 3424   1.763   0.131   5.136 -0.0425 -0.0401 -0.6124
   29MOL     C9 3425   1.771   0.282   5.130 -0.3169  0.4486 -0.2926
   29MOL    H10 3426   1.859   0.095   5.174 -0.3212 -0.4315 -0.2748
   29MOL    H11 3427   1.751   0.095   5.034  0.4595 -0.3015 -0.5835
   29MOL    H12 3428   1.681   0.334   5.097 -1.4066 -1.1129  0.1486
   29MOL    H13 3429   1.778   0.314   5.234  0.9303 -0.3767 -0.1116
   29MOL    C14 3430   1.900   0.346   5.064  0.4148 -0.5174 -0.2569
   29MOL    C15 3431   1.860   0.487   5.001 -0.3936  0.2519 -0.4910
   29MOL    H16 3432   1.967   0.362   5.149  1.1982  0.4445 -1.0506
   29MOL    H17 3433   1.945   0.280   4.991  0.1552 -1.0660  0.0754
   29MOL    H18 3434   1.795   0.468   4.916 -0.5581 -1.8246  0.0764
   29MOL    H19 3435   1.806   0.557   5.064  0.7819 -1.3308  2.3610
   29MOL    C20 3436   1.989   0.555   4.947 -0.2319 -0.4416 -0.0622
   29MOL    C21 3437   1.978   0.703   4.906  0.1145 -0.6663  0.4048
   29MOL    H22 3438   2.064   0.544   5.025 -2.2356 -2.3969  1.6468
   29MOL    H23 3439   2.036   0.498   4.867  0.1181  0.5443 -0.5772
   29MOL    H24 3440   1.913   0.716   4.819  0.6704 -0.5226  0.0045
   29MOL    H25 3441   1.934   0.761   4.987  0.0789  1.7872 -1.2870
   29MOL    C26 3442   2.112   0.758   4.852  0.0245 -0.3223 -0.5922
   29MOL    C27 3443   2.220   0.776   4.962  0.3567 -0.4243 -0.3858
   29MOL    H28 3444   2.148   0.700   4.766  0.7461  0.7228 -1.0101
   29MOL    H29 3445   2.092   0.860   4.818 -0.0473 -0.6841 -1.6807
   29MOL    H30 3446   2.185   0.854   5.031  0.3051  0.8720 -1.8536
   29MOL    H31 3447   2.229   0.690   5.028 -0.9760  1.2947  2.1800
   29MOL    C32 3448   2.360   0.816   4.921 -0.1716 -0.6428 -0.1430
   29MOL    C33 3449   2.464   0.856   5.026  0.0920  0.0827 -0.0498
   29MOL    H34 3450   2.388   0.724   4.869  1.0855 -0.2771 -0.1140
   29MOL    H35 3451   2.351   0.899   4.852  2.1339  0.4043  0.7946
   29MOL    H36 3452   2.420   0.914   5.107 -1.3010 -3.0548  1.5184
   29MOL    H37 3453   2.485   0.764   5.080  3.4980  0.6530 -0.2928
   29MOL    C38 3454   2.602   0.901   4.975  0.6761 -0.1439  0.9498
   29MOL    C39 3455   2.707   0.877   5.083  0.6932  0.0917 -0.7899
   29MOL    H40 3456   2.614   0.844   4.883 -1.4478  0.1010  0.4945
   29MOL    H41 3457   2.594   1.007   4.950  3.6184  0.3259  1.8482
   29MOL    H42 3458   2.670   0.909   5.180  0.4923  0.5402 -1.0158
   29MOL    H43 3459   2.706   0.769   5.094 -3.1997  0.3056  1.7382
   29MOL    C44 3460   2.842   0.933   5.040  0.3865 -0.4098 -0.6403
   29MOL    C45 3461   2.953   0.917   5.149 -0.0558 -0.0378 -0.3081
   29MOL    H46 3462   2.880   0.880   4.953  1.6937 -1.6676  0.6678
   29MOL    H47 3463   2.833   1.040   5.023  1.5929 -0.2118 -0.0539
   29MOL    H48 3464   2.918   0.966   5.240 -1.1410  0.4050 -0.9650
   29MOL    H49 3465   2.968   0.814   5.180  1.0409  1.0300  2.9449
   29MOL    C50 3466   3.083   0.992   5.109 -0.0350 -0.2886 -0.6732
   29MOL    C51 3467   3.196   0.949   5.202  0.4795  0.7052  0.5869
   29MOL    H52 3468   3.102   0.961   5.007 -0.5720 -0.3268 -0.7602
   29MOL    H53 3469   3.071   1.100   5.115  0.3768 -0.2926  0.4245
   29MOL    H54 3470   3.183   0.998   5.298  0.1181 -0.9502  1.4069
   29MOL    H55 3471   3.197   0.842   5.222  2.1528  0.4130 -0.9209
   29MOL    C56 3472   3.327   0.996   5.139 -0.4569  0.4640  0.2396
   29MOL    C57 3473   3.449   0.921   5.202 -0.2502 -0.2434 -0.0158
   29MOL    H58 3474   3.330   0.982   5.030 -0.6957 -0.5217  0.3549
   29MOL    H59 3475   3.340   1.102   5.162 -0.9115  0.7023 -0.5554
   29MOL    H60 3476   3.538   0.981   5.185 -0.0865 -0.4516  0.0952
   29MOL    H61 3477   3.432   0.912   5.310 -1.6170  2.0700 -0.0087
   29MOL    C62 3478   3.465   0.774   5.151  0.2737  0.7053  0.4447
   29MOL    C63 3479   3.604   0.706   5.181 -0.2663 -0.4755  0.1929
   29MOL    H64 3480   3.391   0.709   5.197 -0.4896  0.2195 -1.4134
   29MOL    H65 3481   3.450   0.772   5.043  1.0685 -0.0868  0.3474
   29MOL    H66 3482   3.682   0.773   5.145 -2.0486  0.1930 -2.5517
   29MOL    H67 3483   3.616   0.695   5.289 -0.6474  2.4140  0.5857
   29MOL    C68 3484   3.614   0.571   5.111 -0.3274 -0.7044  0.0297
   29MOL    C69 3485   3.755   0.505   5.108 -0.0982 -0.2394 -0.7501
   29MOL    H70 3486   3.543   0.495   5.146 -0.8284 -0.4146 -0.3476
   29MOL    H71 3487   3.592   0.591   5.006 -0.6062 -2.0600 -0.1847
   29MOL    H72 3488   3.828   0.581   5.078 -0.1332 -0.1463 -0.5994
   29MOL    H73 3489   3.781   0.483   5.211 -2.6276  2.4111  0.5152
   29MOL    C74 3490   3.764   0.376   5.035 -0.1841 -0.2686 -0.2749
   29MOL    C75 3491   3.883   0.285   5.070 -0.7255  0.8326  0.7625
   29MOL    H76 3492   3.670   0.324   5.052 -0.0875 -0.5735 -0.6649
   29MOL    H77 3493   3.763   0.396   4.928  1.6887  0.9612 -0.0764
   29MOL    H78 3494   3.974   0.346   5.064 -0.1252 -0.1014  0.1188
   29MOL    H79 3495   3.883   0.255   5.175 -0.4804  0.4150  0.6439
   29MOL    C80 3496   3.897   0.166   4.982 -0.0926 -0.1168 -0.0800
   29MOL    C81 3497   3.999   0.072   5.050 -0.4008 -0.2350 -0.0165
   29MOL    H82 3498   3.802   0.115   4.968 -0.3240  0.6933 -1.5973
   29MOL    H83 3499   3.936   0.191   4.883  0.3093 -0.4615 -0.0167
   29MOL    H84 3500   4.097   0.120   5.053 -0.6226  0.1225  1.6864
   29MOL    H85 3501   3.979   0.046   5.154 -1.3712  0.8970  0.0912
   29MOL    C86 3502   4.016   7.635   4.961 -0.1518  1.1606 -0.1995
   29MOL    C87 3503   4.137   7.543   4.991 -0.1884 -0.3198 -0.2072
   29MOL    H88 3504   3.927   7.573   4.975 -0.6078  2.1600  1.4430
   29MOL    H89 3505   4.030   7.664   4.857 -0.4903  0.3200 -0.4888
   29MOL    H90 3506   4.229   7.595   4.967 -1.3368  3.0424  2.4438
   29MOL    H91 3507   4.133   7.527   5.098 -2.2196  0.2469 -0.1734
   29MOL    C92 3508   4.147   7.408   4.901  0.0190  0.4282  0.5825
   29MOL    C93 3509   4.279   7.324   4.924  0.0164 -0.5786 -0.0223
   29MOL    H94 3510   4.069   7.339   4.932  0.5163 -0.3864  0.0426
   29MOL    H95 3511   4.133   7.420   4.793  2.6485 -0.2486  0.1404
   29MOL    H96 3512   4.364   7.377   4.882 -0.9656  1.4664  0.4929
   29MOL    H97 3513   4.287   7.330   5.033  4.0047 -1.4353 -0.2048
   29MOL    C98 3514   4.273   7.194   4.841  0.6225  0.8944 -0.1696
   29MOL    C99 3515   4.400   7.106   4.825  0.2842  0.1779  0.1692
   29MOL   H100 3516   4.184   7.139   4.875  0.5964  1.6322  0.9760
   29MOL   H101 3517   4.245   7.220   4.739 -2.5428 -0.0805  0.3728
   29MOL   H102 3518   4.469   7.165   4.765  0.5557 -1.7933 -1.5175
   29MOL   H103 3519   4.435   7.075   4.924 -0.9015 -1.7048  0.0306
   29MOL   C104 3520   4.369   6.979   4.748 -0.3165  0.8872 -0.4718
   29MOL   C105 3521   4.499   6.889   4.738  0.1976  0.0130 -0.5208
   29MOL   H106 3522   4.292   6.929   4.807  0.8268 -0.5881 -0.1824
   29MOL   H107 3523   4.327   7.000   4.650  0.3666 -0.7559 -1.1424
   29MOL   H108 3524   4.574   6.940   4.679  1.1319 -0.1554  0.5012
   29MOL   H109 3525   4.528   6.874   4.842 -0.6140 -0.3665 -0.3397
   29MOL   C110 3526   4.476   6.753   4.666 -0.2610 -0.3111  0.9318
   29MOL   C111 3527   4.587   6.649   4.690  0.2140 -0.6773 -0.4324
   29MOL   H112 3528   4.380   6.717   4.702 -2.8285  3.8041 -1.3673
   29MOL   H113 3529   4.474   6.767   4.558 -0.2066 -0.1155  0.9569
   29MOL   H114 3530   4.685   6.691   4.667  0.0679  0.8229  1.5101
   29MOL   H115 3531   4.600   6.630   4.797  1.4909 -0.4703 -0.5458
   29MOL   C116 3532   4.571   6.518   4.609 -0.3042 -0.1931  0.4386
   29MOL   C117 3533   4.690   6.421   4.647 -0.6491  0.2561 -0.1902
   29MOL   H118 3534   4.469   6.484   4.626  0.4897 -3.4923 -1.0796
   29MOL   H119 3535   4.573   6.555   4.507  0.4286 -1.8126 -0.1395
   29MOL   H120 3536   4.670   6.327   4.596 -2.7739 -0.2992  1.5520
   29MOL   H121 3537   4.791   6.461   4.645 -0.0678 -1.2431 -1.2550
   29MOL   H122 3538   4.680   6.390   4.752 -0.0369  1.2400  0.1654
   30MOL     C1 3539   3.748   4.538   2.626 -0.0067 -0.8028  0.2105
   30MOL     C2 3540   3.819   4.608   2.511 -0.3888 -0.0765 -0.2162
   30MOL     H3 3541   3.679   4.597   2.686  0.4916 -0.5725  0.5587
   30MOL     H4 3542   3.824   4.494   2.690  1.4528  0.8130 -0.3865
   30MOL     H5 3543   3.760   4.685   2.463  1.0875 -0.0578 -2.0581
   30MOL     H6 3544   3.900   4.664   2.559  1.5668 -0.1821 -3.2730
   30MOL     H7 3545   3.696   4.448   2.593  1.4165 -2.8605  3.3455
   30MOL     C8 3546   3.887   4.522   2.406  0.0926  0.3115 -0.4632
   30MOL     C9 3547   3.945   4.611   2.289  0.6772 -0.2842  0.3398
   30MOL    H10 3548   3.963   4.457   2.449 -0.0443  1.1223  1.0379
   30MOL    H11 3549   3.813   4.455   2.363 -0.8396 -0.2088  1.8784
   30MOL    H12 3550   3.867   4.663   2.233  0.7760 -2.2629 -1.7035
   30MOL    H13 3551   4.015   4.683   2.330  0.1505  1.1715 -1.2343
   30MOL    C14 3552   4.008   4.521   2.191  0.0601 -0.2620 -0.2008
   30MOL    C15 3553   4.056   4.589   2.057  0.6762  0.3618 -0.0348
   30MOL    H16 3554   4.089   4.467   2.241  0.6930  0.0074 -0.9386
   30MOL    H17 3555   3.932   4.443   2.180 -1.0475  1.0249 -1.8023
   30MOL    H18 3556   3.965   4.612   2.003  0.2153 -2.3383 -0.4595
   30MOL    H19 3557   4.100   4.685   2.085 -0.8580  1.2813 -0.7677
   30MOL    C20 3558   4.163   4.510   1.975  0.0628 -0.4177 -0.4227
   30MOL    C21 3559   4.223   4.593   1.863  0.1508  0.3982  0.0699
   30MOL    H22 3560   4.238   4.467   2.042 -0.4270 -1.5136 -0.5694
   30MOL    H23 3561   4.118   4.416   1.943  0.2247  0.1526 -2.3838
   30MOL    H24 3562   4.141   4.622   1.798 -0.2631 -0.4457  0.2094
   30MOL    H25 3563   4.267   4.676   1.917 -0.7061  0.0243  1.3559
   30MOL    C26 3564   4.326   4.516   1.776 -0.5990 -0.1558 -0.6005
   30MOL    C27 3565   4.472   4.509   1.843 -0.5319  1.0893  0.6086
   30MOL    H28 3566   4.295   4.414   1.752  1.0825 -1.1341  1.2061
   30MOL    H29 3567   4.323   4.571   1.683 -0.7056  0.5885 -0.1599
   30MOL    H30 3568   4.515   4.607   1.868 -1.4629  1.8873 -0.8662
   30MOL    H31 3569   4.479   4.451   1.935 -0.8641 -0.8343 -0.5537
   30MOL    C32 3570   4.577   4.446   1.755 -0.2890 -0.1247  0.6643
   30MOL    C33 3571   4.594   4.296   1.778  0.2096 -0.0093 -0.4883
   30MOL    H34 3572   4.557   4.466   1.650  4.1745 -0.7835 -0.3946
   30MOL    H35 3573   4.674   4.494   1.762  0.4360 -1.1553 -1.8159
   30MOL    H36 3574   4.655   4.296   1.869  0.7243  1.5187 -0.8188
   30MOL    H37 3575   4.499   4.248   1.799  0.0483  0.3089 -0.4883
   30MOL    C38 3576   4.670   4.241   1.656 -0.0866  0.0705  0.1015
   30MOL    C39 3577   4.753   4.117   1.689 -0.1825  0.0991  0.3229
   30MOL    H40 3578   4.609   4.229   1.567  0.8531  1.2470 -0.7081
   30MOL    H41 3579   4.743   4.317   1.627 -0.4173  0.8707  1.3037
   30MOL    H42 3580   4.811   4.096   1.600 -0.5987 -0.9392  0.2911
   30MOL    H43 3581   4.823   4.141   1.770 -1.3620  0.3634  1.2778
   30MOL    C44 3582   4.664   3.997   1.726 -0.0091  0.3804  0.7117
   30MOL    C45 3583   4.723   3.857   1.699  0.1235  0.1649 -0.1891
   30MOL    H46 3584   4.644   4.008   1.832 -2.5742 -0.8261  0.3774
   30MOL    H47 3585   4.569   4.001   1.673 -0.4850 -3.5750  1.0980
   30MOL    H48 3586   4.768   3.847   1.600  0.1880  1.8711 -0.3487
   30MOL    H49 3587   4.816   3.858   1.756  0.7259  3.8290 -1.1289
   30MOL    C50 3588   4.639   3.734   1.730 -0.0153  0.0326 -0.6776
   30MOL    C51 3589   4.503   3.727   1.662  0.4332 -0.2771 -0.1222
   30MOL    H52 3590   4.701   3.650   1.698 -1.3717 -1.0702 -0.4493
   30MOL    H53 3591   4.635   3.712   1.837  3.6029  0.5360 -0.3678
   30MOL    H54 3592   4.447   3.789   1.732  0.8371 -0.3615  0.2784
   30MOL    H55 3593   4.502   3.773   1.563 -2.2539 -0.4772 -0.2274
   30MOL    C56 3594   4.443   3.586   1.650 -0.1115  0.3200  0.0118
   30MOL    C57 3595   4.318   3.568   1.561  0.8552  0.1517 -0.7081
   30MOL    H58 3596   4.515   3.519   1.604 -1.1062 -1.3797  0.8711
   30MOL    H59 3597   4.432   3.557   1.754  1.9430 -0.5404  0.0050
   30MOL    H60 3598   4.263   3.477   1.588  1.4022 -0.4360 -1.5295
   30MOL    H61 3599   4.255   3.654   1.583 -1.7560 -1.7405 -0.5834
   30MOL    C62 3600   4.354   3.559   1.410 -0.5857 -0.0198 -0.0745
   30MOL    C63 3601   4.247   3.581   1.313 -0.0295  0.3582  0.5216
   30MOL    H64 3602   4.435   3.631   1.397 -0.3746  0.3231  2.7452
   30MOL    H65 3603   4.389   3.457   1.391 -1.6139  0.0264 -2.3206
   30MOL    H66 3604   4.160   3.521   1.338 -0.2950  0.3138 -0.4668
   30MOL    H67 3605   4.224   3.687   1.323  3.8072  1.5912 -2.3816
   30MOL    C68 3606   4.293   3.556   1.167  0.5102 -0.7415 -0.4702
   30MOL    C69 3607   4.351   3.675   1.092  0.0875  0.0795  0.7526
   30MOL    H70 3608   4.368   3.477   1.169  1.4206  0.0842 -1.0498
   30MOL    H71 3609   4.223   3.507   1.099 -1.1320  0.0842  0.6029
   30MOL    H72 3610   4.281   3.758   1.088  1.3761  1.1205 -1.4639
   30MOL    H73 3611   4.438   3.716   1.144  0.9247  0.2391 -0.7252
   30MOL    C74 3612   4.408   3.643   0.951  0.4771  0.1875 -0.1572
   30MOL    C75 3613   4.542   3.569   0.957 -0.6376  0.1557 -0.0762
   30MOL    H76 3614   4.339   3.591   0.884 -1.6195  1.1662  1.1805
   30MOL    H77 3615   4.429   3.740   0.905  3.7437 -1.2432 -1.8593
   30MOL    H78 3616   4.611   3.631   1.013 -0.8202 -1.6025  2.1408
   30MOL    H79 3617   4.527   3.472   1.004 -1.2679  0.6288  0.7124
   30MOL    C80 3618   4.594   3.552   0.812  0.7219 -0.8510  0.2903
   30MOL    C81 3619   4.719   3.455   0.811 -0.6971 -0.6898  0.0664
   30MOL    H82 3620   4.514   3.516   0.747 -1.9662  2.7076  1.4548
   30MOL    H83 3621   4.631   3.647   0.774  1.6532 -0.4855  2.0679
   30MOL    H84 3622   4.806   3.495   0.863 -0.3154  0.8413 -1.6817
   30MOL    H85 3623   4.701   3.364   0.868 -1.1189 -0.8827 -0.3659
   30MOL    C86 3624   4.759   3.422   0.678 -0.4084  0.4248 -0.4427
   30MOL    C87 3625   4.890   3.341   0.678  0.1528 -0.0348  0.5249
   30MOL    H88 3626   4.673   3.378   0.628 -1.0229 -0.5600  1.4566
   30MOL    H89 3627   4.786   3.516   0.629 -0.5963  1.1277  0.7808
   30MOL    H90 3628   4.930   3.351   0.577 -0.0193  3.5205  0.7330
   30MOL    H91 3629   4.961   3.399   0.738 -0.0910 -0.0489  0.8254
   30MOL    C92 3630   4.889   3.199   0.726 -0.2533 -0.3566 -0.5325
   30MOL    C93 3631   4.796   3.109   0.648  0.5774 -0.1208 -0.1524
   30MOL    H94 3632   4.990   3.158   0.729 -0.8063 -1.9330 -2.5158
   30MOL    H95 3633   4.859   3.192   0.831  1.1538 -1.8315 -0.2116
   30MOL    H96 3634   4.700   3.159   0.661  1.3126  1.0155  1.1595
   30MOL    H97 3635   4.832   3.120   0.545  1.6091  1.4991  0.3479
   30MOL    C98 3636   4.789   2.961   0.701  0.5557 -0.5885 -0.4876
   30MOL    C99 3637   4.711   2.868   0.599 -0.6540  0.3597  0.5758
   30MOL   H100 3638   4.894   2.934   0.707  0.9286  0.8095 -0.5560
   30MOL   H101 3639   4.740   2.944   0.797  1.8152  2.6022  0.7845
   30MOL   H102 3640   4.603   2.877   0.604 -0.6908 -0.8175  1.9232
   30MOL   H103 3641   4.724   2.910   0.499 -0.2813 -0.2269  0.3778
   30MOL   C104 3642   4.766   2.723   0.607  0.2576 -0.4326  0.1829
   30MOL   C105 3643   4.713   2.635   0.495 -0.0274 -0.4825  0.4446
   30MOL   H106 3644   4.874   2.722   0.594 -0.0936 -0.1466 -3.1396
   30MOL   H107 3645   4.751   2.689   0.709  2.0780 -0.7434  0.3511
   30MOL   H108 3646   4.605   2.651   0.488  0.2625  0.9011 -1.3122
   30MOL   H109 3647   4.761   2.663   0.402 -0.9332  0.0910  0.1391
   30MOL   C110 3648   4.741   2.488   0.511 -0.4921  0.1406 -0.2692
   30MOL   C111 3649   4.691   2.397   0.396 -0.3454  0.3692 -0.7509
   30MOL   H112 3650   4.850   2.484   0.512 -0.5518 -2.6614 -1.3983
   30MOL   H113 3651   4.701   2.453   0.606  0.4337  0.2817  0.1878
   30MOL   H114 3652   4.733   2.429   0.301 -1.3683  1.5949 -0.7939
   30MOL   H115 3653   4.716   2.294   0.422 -0.1183  0.0691 -2.1236
   30MOL   C116 3654   4.539   2.411   0.379  0.1576  0.2033  0.3677
   30MOL   C117 3655   4.476   2.294   0.300 -0.2747 -0.0918  0.2094
   30MOL   H118 3656   4.494   2.418   0.478  1.4351 -1.5458  1.0842
   30MOL   H119 3657   4.521   2.504   0.325  1.1316 -0.5941 -1.3519
   30MOL   H120 3658   4.384   2.321   0.247 -0.4285 -0.7193  0.1530
   30MOL   H121 3659   4.542   2.256   0.222  0.1583  0.5743  0.2427
   30MOL   H122 3660   4.439   2.215   0.364  0.8808  0.4901  1.6177
   31MOL     C1 3661   1.689   7.152   2.000 -0.0294 -0.2263 -0.1760
   31MOL     C2 3662   1.757   7.287   1.962  0.6252  0.1935 -0.1562
   31MOL     H3 3663   1.603   7.150   1.934 -0.1405  1.4492 -0.1036
   31MOL     H4 3664   1.653   7.160   2.103  0.6045  0.7759 -0.0218
   31MOL     H5 3665   1.766   7.296   1.853 -0.4435 -1.0346 -0.3696
   31MOL     H6 3666   1.686   7.364   1.992 -0.1216 -0.1902 -0.8879
   31MOL     H7 3667   1.749   7.062   1.989  0.7582  0.2473  0.1845
   31MOL     C8 3668   1.895   7.321   2.027  0.1231 -0.1644 -0.4482
   31MOL     C9 3669   1.945   7.460   1.976 -0.5866  0.5702 -0.1886
   31MOL    H10 3670   1.895   7.321   2.136 -0.1690 -0.1485 -0.4457
   31MOL    H11 3671   1.974   7.249   2.006 -2.0446 -3.1061  1.0850
   31MOL    H12 3672   1.960   7.471   1.868 -2.0882  0.8780 -0.3775
   31MOL    H13 3673   1.864   7.530   1.993  0.7721  1.9446  0.7299
   31MOL    C14 3674   2.065   7.527   2.039 -1.3050 -0.4878 -0.0181
   31MOL    C15 3675   2.197   7.469   2.004  0.3198  0.1818 -0.5541
   31MOL    H16 3676   2.063   7.634   2.017  2.6775 -0.3708 -0.1599
   31MOL    H17 3677   2.051   7.520   2.147 -1.6290 -1.4855 -0.1248
   31MOL    H18 3678   2.268   7.524   2.067 -1.0437 -1.6598  2.6683
   31MOL    H19 3679   2.196   7.367   2.043 -0.5905  1.5551  3.2792
   31MOL    C20 3680   2.249   7.484   1.865  0.4472 -0.0532  0.2642
   31MOL    C21 3681   2.389   7.429   1.847  1.4849  0.3409 -0.0877
   31MOL    H22 3682   2.179   7.450   1.788  0.4106 -0.8579  0.6463
   31MOL    H23 3683   2.254   7.592   1.855  1.2383 -0.0627  0.5061
   31MOL    H24 3684   2.442   7.431   1.942  0.1122 -0.2375  0.7015
   31MOL    H25 3685   2.382   7.321   1.832  0.1539  0.2164  1.1913
   31MOL    C26 3686   2.470   7.517   1.747  0.5867  0.1420  0.0164
   31MOL    C27 3687   2.617   7.467   1.752  0.6532 -0.0067  0.3204
   31MOL    H28 3688   2.426   7.502   1.648  1.1315 -0.3071 -0.1607
   31MOL    H29 3689   2.458   7.620   1.778 -0.8458 -0.3619  1.1976
   31MOL    H30 3690   2.650   7.471   1.856  0.5910 -3.1066  0.5240
   31MOL    H31 3691   2.618   7.363   1.717 -0.9021 -0.6032  1.9653
   31MOL    C32 3692   2.697   7.560   1.665  0.5092 -0.4637  0.0194
   31MOL    C33 3693   2.835   7.577   1.722 -0.0620 -0.6545 -0.1268
   31MOL    H34 3694   2.707   7.531   1.560  2.0147 -0.9046  0.2806
   31MOL    H35 3695   2.640   7.652   1.649 -0.9100 -1.2778  0.2518
   31MOL    H36 3696   2.833   7.555   1.829 -2.0108  0.7398  0.1664
   31MOL    H37 3697   2.893   7.498   1.676 -0.3454 -0.4614 -0.8149
   31MOL    C38 3698   2.903   0.020   1.684 -0.0744  0.1606 -0.8021
   31MOL    C39 3699   2.853   0.141   1.782  0.2410 -0.0007  0.1459
   31MOL    H40 3700   3.010   0.021   1.702  0.1981 -1.4446 -2.1591
   31MOL    H41 3701   2.891   0.046   1.579  1.0015  1.3395 -0.6438
   31MOL    H42 3702   2.749   0.160   1.755  0.0461  2.0961  2.2421
   31MOL    H43 3703   2.859   0.098   1.882  1.2292  0.9249  0.4877
   31MOL    C44 3704   2.933   0.269   1.761  0.1195  0.0475  0.2079
   31MOL    C45 3705   2.865   0.386   1.840 -0.4966  0.1832  0.1237
   31MOL    H46 3706   3.040   0.261   1.781  0.1287 -0.4949 -0.0563
   31MOL    H47 3707   2.919   0.298   1.657 -1.8008  1.2583  0.7822
   31MOL    H48 3708   2.757   0.369   1.837 -0.1260 -2.3803  0.2473
   31MOL    H49 3709   2.896   0.395   1.944  0.4743  0.9117 -0.2194
   31MOL    C50 3710   2.895   0.518   1.773  0.5416  0.1894  0.3505
   31MOL    C51 3711   2.869   0.637   1.861 -0.4245  0.3710  0.2742
   31MOL    H52 3712   3.001   0.521   1.750  0.3418 -3.3230 -1.3695
   31MOL    H53 3713   2.845   0.532   1.677  1.3496 -1.3225 -0.3001
   31MOL    H54 3714   2.936   0.640   1.947  0.0143 -0.9780 -0.0140
   31MOL    H55 3715   2.899   0.730   1.813  0.4709  0.0665  0.2443
   31MOL    C56 3716   2.732   0.657   1.921 -0.1906 -0.4949 -0.4911
   31MOL    C57 3717   2.712   0.795   1.993  0.7256  0.2780  0.2333
   31MOL    H58 3718   2.655   0.657   1.844 -0.6068 -0.9010 -0.0797
   31MOL    H59 3719   2.710   0.575   1.989  1.4960 -1.9817 -1.6924
   31MOL    H60 3720   2.798   0.812   2.058 -0.9085 -1.0932  2.8125
   31MOL    H61 3721   2.707   0.876   1.920  2.7537  1.8518  1.7687
   31MOL    C62 3722   2.581   0.794   2.080 -0.0106 -0.0178  0.2031
   31MOL    C63 3723   2.556   0.928   2.158 -0.2263  0.0181  0.3268
   31MOL    H64 3724   2.504   0.771   2.006  0.4764  2.0003 -0.9802
   31MOL    H65 3725   2.588   0.700   2.135  1.2132 -0.2073 -0.2666
   31MOL    H66 3726   2.622   1.003   2.114 -1.1362 -0.0479 -1.1942
   31MOL    H67 3727   2.455   0.960   2.134 -0.4933 -2.2147 -1.7257
   31MOL    C68 3728   2.573   0.912   2.307 -0.6585  0.0684  0.5872
   31MOL    C69 3729   2.468   0.815   2.359 -0.0640  0.1313 -0.0758
   31MOL    H70 3730   2.671   0.867   2.320  0.7362  2.6671 -0.4303
   31MOL    H71 3731   2.561   1.015   2.341  2.5476  0.6048  0.1980
   31MOL    H72 3732   2.372   0.857   2.328  0.7118  1.4375 -0.7190
   31MOL    H73 3733   2.471   0.713   2.319 -1.1454  0.0646 -0.0133
   31MOL    C74 3734   2.464   0.806   2.514  0.4611 -0.0066 -0.4840
   31MOL    C75 3735   2.337   0.726   2.569  0.6463  0.0036  0.0600
   31MOL    H76 3736   2.563   0.778   2.552  0.3381 -0.7418 -0.7050
   31MOL    H77 3737   2.451   0.906   2.555 -3.2075 -0.4473 -0.4484
   31MOL    H78 3738   2.249   0.784   2.541 -0.1323 -0.6697  1.0467
   31MOL    H79 3739   2.330   0.626   2.527 -0.8396  0.1177  0.0101
   31MOL    C80 3740   2.356   0.696   2.712 -0.0206  1.1024  0.7044
   31MOL    C81 3741   2.226   0.645   2.775 -0.1269 -0.3170  0.9958
   31MOL    H82 3742   2.436   0.622   2.718 -1.0059 -0.1299 -1.0869
   31MOL    H83 3743   2.389   0.787   2.763  0.2191  1.2905  0.2154
   31MOL    H84 3744   2.192   0.557   2.721 -0.6451  0.7128 -0.3980
   31MOL    H85 3745   2.255   0.608   2.874 -0.3672 -0.2998  1.0722
   31MOL    C86 3746   2.113   0.745   2.778  0.0603 -0.0202 -0.2419
   31MOL    C87 3747   1.994   0.689   2.871  0.8292  0.2327 -0.8817
   31MOL    H88 3748   2.158   0.837   2.814  1.5195 -0.3182 -1.2671
   31MOL    H89 3749   2.075   0.763   2.677  1.4611 -2.2014 -1.1922
   31MOL    H90 3750   1.956   0.598   2.825 -0.9342  0.5533 -0.0896
   31MOL    H91 3751   2.031   0.662   2.970 -1.1668  0.6036 -0.0079
   31MOL    C92 3752   1.891   0.799   2.880  0.3562  0.2602  0.9240
   31MOL    C93 3753   1.784   0.745   2.981 -0.2862 -0.3452 -0.1887
   31MOL    H94 3754   1.951   0.878   2.926 -1.0175  2.4583 -0.9464
   31MOL    H95 3755   1.849   0.832   2.785  0.9660  0.7641  0.8231
   31MOL    H96 3756   1.735   0.660   2.934 -2.2791  0.8537 -0.3297
   31MOL    H97 3757   1.832   0.701   3.068  0.6208  1.8096  0.4239
   31MOL    C98 3758   1.678   0.854   3.016 -0.2261  0.1991 -0.2047
   31MOL    C99 3759   1.588   0.783   3.113 -0.1301  0.7017 -0.2117
   31MOL   H100 3760   1.720   0.940   3.068 -2.7980  0.3890  1.6519
   31MOL   H101 3761   1.628   0.885   2.924 -2.1721  0.3485  0.8787
   31MOL   H102 3762   1.561   0.686   3.071  1.6525  0.5671 -1.0891
   31MOL   H103 3763   1.625   0.757   3.212  1.3729 -1.3345 -1.2921
   31MOL   C104 3764   1.453   0.857   3.133  0.4045  0.1349  0.6720
   31MOL   C105 3765   1.342   0.765   3.180  0.1553 -0.3962 -0.3210
   31MOL   H106 3766   1.472   0.937   3.205  1.2206  0.5710 -0.0263
   31MOL   H107 3767   1.419   0.906   3.042  2.2020  1.8607  0.9007
   31MOL   H108 3768   1.323   0.695   3.098 -0.9121 -2.0156  1.2784
   31MOL   H109 3769   1.371   0.710   3.270  1.0985  0.1292 -0.3091
   31MOL   C110 3770   1.210   0.839   3.214  0.2391  0.8294  0.4538
   31MOL   C111 3771   1.100   0.731   3.217 -0.1039  0.2497  0.2862
   31MOL   H112 3772   1.220   0.897   3.305 -1.8792  1.5667  0.2491
   31MOL   H113 3773   1.178   0.917   3.146 -0.5973 -1.4289 -1.8359
   31MOL   H114 3774   1.095   0.681   3.120  1.1830 -1.0742  0.8774
   31MOL   H115 3775   1.128   0.642   3.274 -1.3061 -0.4701 -0.2309
   31MOL   C116 3776   0.978   0.800   3.273  0.0856  0.3411  0.1366
   31MOL   C117 3777   0.846   0.731   3.252 -0.2791  0.0550  0.3115
   31MOL   H118 3778   0.989   0.812   3.380  0.2869  1.2635  0.0156
   31MOL   H119 3779   0.967   0.902   3.236 -0.1297  1.5524  3.3834
   31MOL   H120 3780   0.858   0.633   3.300 -1.0013 -0.4750 -0.5763
   31MOL   H121 3781   0.754   0.780   3.282 -0.9649 -1.7411  1.2497
   31MOL   H122 3782   0.840   0.712   3.144  0.7737 -0.6158  0.3557
   32MOL     C1 3783   0.585   3.950   3.967  0.1974 -0.8106  0.1946
   32MOL     C2 3784   0.471   3.994   4.064  0.0300 -0.2810 -0.0149
   32MOL     H3 3785   0.623   4.013   3.888 -0.1648 -1.2176 -0.3053
   32MOL     H4 3786   0.547   3.860   3.919  1.0964 -0.9833 -0.2005
   32MOL     H5 3787   0.380   4.026   4.013  1.1005  0.5771 -1.4216
   32MOL     H6 3788   0.446   3.912   4.132  1.4479 -1.6791 -1.1463
   32MOL     H7 3789   0.670   3.915   4.026 -0.4151 -2.3171  0.2112
   32MOL     C8 3790   0.508   4.124   4.138 -0.5276 -0.0349 -0.2787
   32MOL     C9 3791   0.409   4.163   4.247 -0.1466  0.1430  0.2881
   32MOL    H10 3792   0.605   4.126   4.187 -0.8624 -0.0408  0.3860
   32MOL    H11 3793   0.507   4.206   4.067 -3.3410 -0.0072 -0.2688
   32MOL    H12 3794   0.308   4.155   4.208  0.0683 -2.7764  0.2273
   32MOL    H13 3795   0.404   4.101   4.336 -0.7506 -0.8939 -0.4469
   32MOL    C14 3796   0.428   4.312   4.298  0.1365  0.2653  0.4017
   32MOL    C15 3797   0.535   4.335   4.401 -0.7825  0.4717  0.3899
   32MOL    H16 3798   0.430   4.377   4.211 -0.2105  1.1626  1.0541
   32MOL    H17 3799   0.333   4.326   4.350 -0.9944 -2.0804 -0.9442
   32MOL    H18 3800   0.541   4.246   4.463 -2.3611  0.5935  0.7342
   32MOL    H19 3801   0.626   4.345   4.341  0.6754 -1.3692  2.2281
   32MOL    C20 3802   0.520   4.458   4.501  0.6861  0.3790  0.4269
   32MOL    C21 3803   0.407   4.431   4.608  0.0493  0.1784 -0.1450
   32MOL    H22 3804   0.613   4.476   4.555  2.3564  1.8807 -2.8159
   32MOL    H23 3805   0.508   4.544   4.435 -0.7723  0.3120  0.6052
   32MOL    H24 3806   0.310   4.408   4.562  1.3048 -0.2575 -2.6700
   32MOL    H25 3807   0.436   4.341   4.661 -2.2129 -0.9733 -0.7995
   32MOL    C26 3808   0.384   4.550   4.704  0.6717  0.1074 -0.1514
   32MOL    C27 3809   0.304   4.506   4.832 -0.6416 -0.0261  0.0907
   32MOL    H28 3810   0.468   4.612   4.737  0.7974 -1.3814  2.4818
   32MOL    H29 3811   0.313   4.615   4.653  1.3353  1.2601  0.3518
   32MOL    H30 3812   0.220   4.437   4.818 -0.7238 -0.2257  1.4323
   32MOL    H31 3813   0.375   4.455   4.897  0.1003  0.2224 -0.5300
   32MOL    C32 3814   0.248   4.626   4.914 -0.3012 -0.3367  0.2873
   32MOL    C33 3815   0.209   4.579   5.061  0.3913 -0.9905  0.0765
   32MOL    H34 3816   0.325   4.702   4.924 -1.3926  0.8200  0.0164
   32MOL    H35 3817   0.166   4.678   4.864  1.1032  2.9265  1.2779
   32MOL    H36 3818   0.160   4.482   5.061  0.0622 -0.8285  0.6315
   32MOL    H37 3819   0.299   4.583   5.122  0.3324  0.8337  0.0778
   32MOL    C38 3820   0.109   4.676   5.126 -0.1085 -0.2491  0.1407
   32MOL    C39 3821   0.072   4.633   5.277 -0.3639 -0.0550 -0.1888
   32MOL    H40 3822   0.139   4.780   5.117 -0.9235 -0.0706 -0.6221
   32MOL    H41 3823   0.014   4.686   5.073  1.0681  3.6760 -1.4158
   32MOL    H42 3824   0.162   4.592   5.323  1.2681  2.6091 -0.9418
   32MOL    H43 3825   0.048   4.717   5.343  0.5655  1.7136 -2.0610
   32MOL    C44 3826   7.657   4.521   5.289 -0.0505  0.4166  0.0589
   32MOL    C45 3827   7.662   4.470   5.438  0.2334  0.4970 -0.0116
   32MOL    H46 3828   7.559   4.558   5.261 -0.0143  0.5765  0.1454
   32MOL    H47 3829   7.676   4.445   5.213 -0.0709  0.4201  0.0503
   32MOL    H48 3830   0.068   4.428   5.463  0.5987  1.7156  0.6352
   32MOL    H49 3831   7.640   4.557   5.500 -0.1399 -1.2158  2.3584
   32MOL    C50 3832   7.552   4.373   5.482  0.2864 -0.3837 -0.4360
   32MOL    C51 3833   7.555   4.347   5.633 -0.3883 -0.1133 -0.0213
   32MOL    H52 3834   7.461   4.420   5.444 -0.5328 -0.9173  0.8084
   32MOL    H53 3835   7.556   4.277   5.432 -2.9534 -1.1252  0.6024
   32MOL    H54 3836   7.651   4.300   5.652 -0.2142 -0.2262 -1.1364
   32MOL    H55 3837   7.551   4.439   5.693  2.1745  1.0179 -1.5077
   32MOL    C56 3838   7.429   4.264   5.680  0.0273  0.4261 -0.4464
   32MOL    C57 3839   7.422   4.232   5.832  0.1943 -0.4010  0.2348
   32MOL    H58 3840   7.332   4.302   5.648 -0.4394 -0.5450 -0.2244
   32MOL    H59 3841   7.435   4.171   5.624  1.3171  1.2653 -1.7116
   32MOL    H60 3842   7.517   4.193   5.869 -0.8618 -1.3013  2.0907
   32MOL    H61 3843   7.413   4.322   5.892  1.9625  0.8411 -1.3347
   32MOL    C62 3844   7.301   4.139   5.872  0.2745 -0.2328  0.2377
   32MOL    C63 3845   7.165   4.201   5.849  0.4814  0.3398 -0.7436
   32MOL    H64 3846   7.301   4.038   5.830 -0.0038 -0.2073  0.1738
   32MOL    H65 3847   7.312   4.130   5.980 -1.4142  0.1957  0.4667
   32MOL    H66 3848   7.162   4.306   5.881  0.9988 -0.0467  0.6244
   32MOL    H67 3849   7.146   4.201   5.742 -1.0795  0.9361 -0.4760
   32MOL    C68 3850   7.056   4.123   5.917  0.2516 -0.1213 -0.4903
   32MOL    C69 3851   6.914   4.186   5.909  0.1328  0.8419  0.3351
   32MOL    H70 3852   7.057   4.027   5.865 -0.2778  0.3836 -1.4520
   32MOL    H71 3853   7.085   4.111   6.021  0.9577  0.5159 -0.6148
   32MOL    H72 3854   6.912   4.272   5.976 -1.4865  1.0740  0.0062
   32MOL    H73 3855   6.890   4.225   5.810  0.7189  1.0526  0.2755
   32MOL    C74 3856   6.808   4.080   5.931  0.0246 -0.0678 -0.1447
   32MOL    C75 3857   6.667   4.142   5.973  0.3960  0.2260 -0.7283
   32MOL    H76 3858   6.792   4.022   5.840 -2.2697  1.3017 -0.6524
   32MOL    H77 3859   6.819   4.016   6.019 -1.4541  0.7477  0.6459
   32MOL    H78 3860   6.670   4.180   6.075 -0.2805  0.6796 -0.8740
   32MOL    H79 3861   6.636   4.217   5.900 -0.6063  0.7625  0.2411
   32MOL    C80 3862   6.554   4.038   5.995  0.1447  0.3774  0.3336
   32MOL    C81 3863   6.419   4.100   6.039 -0.7352 -0.3584 -0.6681
   32MOL    H82 3864   6.539   3.986   5.900 -0.9932 -0.9088  1.1926
   32MOL    H83 3865   6.585   3.960   6.065  0.0924 -2.1073 -2.2746
   32MOL    H84 3866   6.428   4.108   6.147  1.1887 -1.1633 -0.7412
   32MOL    H85 3867   6.429   4.199   5.993  0.7301 -0.6038 -0.9177
   32MOL    C86 3868   6.293   4.012   6.005  0.3058 -0.2336  0.0671
   32MOL    C87 3869   6.159   4.086   6.013  0.2500 -0.3982 -0.2718
   32MOL    H88 3870   6.301   3.978   5.901  1.2331  2.0391 -0.6405
   32MOL    H89 3871   6.296   3.925   6.071  0.2585 -0.0868  0.2630
   32MOL    H90 3872   6.145   4.152   5.927 -0.9730  0.5091  0.6147
   32MOL    H91 3873   6.081   4.010   6.021  0.2839 -0.4216 -0.1640
   32MOL    C92 3874   6.141   4.174   6.139  0.2286  0.5746 -0.1474
   32MOL    C93 3875   6.002   4.239   6.142 -1.3725  0.3030 -0.1015
   32MOL    H94 3876   6.156   4.117   6.231  1.4551  1.2668  0.0919
   32MOL    H95 3877   6.206   4.262   6.141  0.4391  0.4089  0.4549
   32MOL    H96 3878   5.999   4.330   6.202  2.8734 -0.5048  1.5468
   32MOL    H97 3879   5.972   4.277   6.044 -1.7603  2.7221  0.9239
   32MOL    C98 3880   5.892   4.144   6.186  0.2990  0.0730  0.4050
   32MOL    C99 3881   5.753   4.219   6.192 -1.1023 -0.3057  0.0211
   32MOL   H100 3882   5.895   4.060   6.117 -0.2888  0.9659 -0.7417
   32MOL   H101 3883   5.915   4.102   6.284  0.4357 -0.3573  0.1884
   32MOL   H102 3884   5.699   4.186   6.281 -1.2845  1.5108  0.5996
   32MOL   H103 3885   5.769   4.323   6.221 -2.3486  0.1287 -0.7793
   32MOL   C104 3886   5.668   4.206   6.071  0.0343  0.8016  0.3185
   32MOL   C105 3887   5.523   4.262   6.077 -0.6777  0.3012  0.2750
   32MOL   H106 3888   5.724   4.239   5.984  1.7104  2.0752  1.8321
   32MOL   H107 3889   5.666   4.099   6.051 -1.8978  0.4821  2.0882
   32MOL   H108 3890   5.469   4.207   6.155 -0.3392 -0.9901 -0.3890
   32MOL   H109 3891   5.522   4.368   6.101 -1.5989  1.0694 -2.9289
   32MOL   C110 3892   5.440   4.261   5.937  0.0542 -0.4163  0.2746
   32MOL   C111 3893   5.300   4.327   5.938  0.1567  0.2637 -0.6280
   32MOL   H112 3894   5.501   4.310   5.861  3.6649 -2.3359  1.7955
   32MOL   H113 3895   5.429   4.162   5.893  1.2057 -0.7644  0.7394
   32MOL   H114 3896   5.318   4.430   5.908 -0.8753  0.1619 -1.6198
   32MOL   H115 3897   5.239   4.277   5.862 -0.2523 -0.5974  0.2445
   32MOL   C116 3898   5.227   4.334   6.078 -0.1495  0.0810  0.2138
   32MOL   C117 3899   5.102   4.424   6.081  0.0901 -0.4794 -0.7119
   32MOL   H118 3900   5.190   4.235   6.106 -1.3382  0.1922 -0.8867
   32MOL   H119 3901   5.292   4.366   6.159  0.8224  0.2338 -0.6303
   32MOL   H120 3902   5.063   4.441   6.182  0.9428 -0.0180 -0.4531
   32MOL   H121 3903   5.126   4.518   6.032 -1.6285 -0.2320 -1.1143
   32MOL   H122 3904   5.017   4.377   6.033  1.5094 -0.5878 -3.2028
   33MOL     C1 3905   6.677   7.671   2.505  0.7979  0.9034 -0.7228
   33MOL     C2 3906   6.694   7.570   2.389  0.1681 -1.0645 -0.1328
   33MOL     H3 3907   6.573   0.012   2.509  0.6261  0.2793  0.0419
   33MOL     H4 3908   6.724   0.075   2.482 -0.1501  0.8853 -2.8540
   33MOL     H5 3909   6.796   7.532   2.381  0.6394  0.3268 -0.8590
   33MOL     H6 3910   6.630   7.488   2.423 -0.0438 -0.6419  0.4854
   33MOL     H7 3911   6.719   7.641   2.601  0.6275 -1.5993 -1.4105
   33MOL     C8 3912   6.660   7.610   2.246  0.6513  0.2728  0.0841
   33MOL     C9 3913   6.621   7.485   2.168  0.1489 -0.2430 -0.3011
   33MOL    H10 3914   6.573   7.675   2.245 -0.2806 -0.9425  0.5961
   33MOL    H11 3915   6.749   7.657   2.203 -0.6331  1.3360 -1.4666
   33MOL    H12 3916   6.697   7.408   2.174  0.1946 -0.2101 -0.4384
   33MOL    H13 3917   6.537   7.443   2.224 -0.0849  1.5155  0.7331
   33MOL    C14 3918   6.588   7.515   2.022 -0.2575  0.0823  0.1191
   33MOL    C15 3919   6.519   7.404   1.950 -0.0729  0.8723 -0.1355
   33MOL    H16 3920   6.526   7.602   2.000 -0.2664 -0.0040 -0.1940
   33MOL    H17 3921   6.678   7.551   1.973  0.5511  0.9334  2.1589
   33MOL    H18 3922   6.568   7.312   1.982  1.9684  1.2084 -2.1607
   33MOL    H19 3923   6.415   7.396   1.982 -0.1658  2.4525 -0.0170
   33MOL    C20 3924   6.516   7.408   1.798 -0.0639 -0.0523  0.2742
   33MOL    C21 3925   6.405   7.320   1.739  0.6088 -0.4174 -0.0281
   33MOL    H22 3926   6.506   7.514   1.773  1.4183 -0.0811 -0.5576
   33MOL    H23 3927   6.615   7.381   1.761  0.0975  0.0276  0.6485
   33MOL    H24 3928   6.384   7.234   1.803 -0.0303 -0.9103 -0.8958
   33MOL    H25 3929   6.312   7.376   1.749  1.9175  1.5583  1.5880
   33MOL    C26 3930   6.407   7.269   1.587 -0.3033 -0.9195  0.9407
   33MOL    C27 3931   6.298   7.173   1.543 -0.4593 -0.0249 -0.1429
   33MOL    H28 3932   6.386   7.349   1.516  0.5807 -3.1044 -1.8953
   33MOL    H29 3933   6.502   7.226   1.555 -0.2521  0.0289 -0.2312
   33MOL    H30 3934   6.321   7.150   1.439 -3.8351 -2.3157 -0.4597
   33MOL    H31 3935   6.295   7.086   1.609  1.4907  0.7768  1.0592
   33MOL    C32 3936   6.160   7.241   1.546  0.0857  0.3103 -0.5306
   33MOL    C33 3937   6.047   7.145   1.490  0.2186 -0.0939 -0.4202
   33MOL    H34 3938   6.130   7.261   1.648 -1.3320 -1.2380 -0.6245
   33MOL    H35 3939   6.163   7.334   1.489 -0.5794  0.8115  0.2443
   33MOL    H36 3940   6.081   7.118   1.390  3.0279  3.0095 -0.3991
   33MOL    H37 3941   6.031   7.058   1.554  0.1997 -0.9064 -1.5037
   33MOL    C38 3942   5.911   7.209   1.482 -0.0281 -0.8289 -0.2426
   33MOL    C39 3943   5.904   7.316   1.373 -0.1447 -0.4916  0.0180
   33MOL    H40 3944   5.831   7.142   1.451 -0.1452 -0.3179 -1.0652
   33MOL    H41 3945   5.885   7.243   1.583  0.6666 -0.8254 -0.0627
   33MOL    H42 3946   5.985   7.389   1.369  1.7267 -2.6259 -3.6968
   33MOL    H43 3947   5.930   7.266   1.280 -0.6635 -0.2149 -0.2732
   33MOL    C44 3948   5.778   7.403   1.375  0.2925  0.0385  0.1037
   33MOL    C45 3949   5.783   7.526   1.280 -0.1232 -0.5573 -0.3106
   33MOL    H46 3950   5.679   7.360   1.360  0.4660 -0.0077 -0.9824
   33MOL    H47 3951   5.775   7.433   1.480  2.6658  1.3002 -0.1360
   33MOL    H48 3952   5.876   7.578   1.306 -0.8873  1.8474 -2.1925
   33MOL    H49 3953   5.792   7.491   1.178  0.9997 -1.0128 -0.0605
   33MOL    C50 3954   5.666   7.621   1.306  0.2518 -0.5415  0.4012
   33MOL    C51 3955   5.668   0.057   1.218 -0.0827  0.1043 -0.1470
   33MOL    H52 3956   5.580   7.559   1.282 -0.5985  0.5791  0.4887
   33MOL    H53 3957   5.661   7.652   1.411 -1.8905  0.7130 -0.0406
   33MOL    H54 3958   5.628   0.026   1.122  1.7481 -0.0990 -0.8615
   33MOL    H55 3959   5.607   0.139   1.256  0.4552 -0.0284  1.0380
   33MOL    C56 3960   5.800   0.113   1.179 -0.1992  0.0861 -0.1500
   33MOL    C57 3961   5.854   0.209   1.289  0.4423  0.4594  0.5137
   33MOL    H58 3962   5.871   0.039   1.140 -2.8088 -1.1172 -2.8349
   33MOL    H59 3963   5.803   0.169   1.086  1.4617 -0.5307 -0.4926
   33MOL    H60 3964   5.775   0.255   1.348 -0.0668 -0.3192  0.4423
   33MOL    H61 3965   5.908   0.151   1.364  1.4399 -1.5258 -1.6472
   33MOL    C62 3966   5.939   0.325   1.236  0.0390  0.5638 -0.8816
   33MOL    C63 3967   6.017   0.389   1.352 -0.8793  0.7660  0.2691
   33MOL    H64 3968   6.016   0.277   1.175 -0.7928 -2.4041  0.3379
   33MOL    H65 3969   5.877   0.394   1.179  0.7763  1.3539 -0.7359
   33MOL    H66 3970   5.961   0.379   1.445  1.1564 -0.1624  1.4337
   33MOL    H67 3971   6.104   0.325   1.368 -1.1016 -1.0526 -4.8756
   33MOL    C68 3972   6.043   0.531   1.335  0.2967 -0.1649 -0.6977
   33MOL    C69 3973   6.147   0.587   1.443  0.1640 -0.1504 -0.8733
   33MOL    H70 3974   6.086   0.552   1.237  2.0373  1.1884  0.3153
   33MOL    H71 3975   5.950   0.588   1.335  0.8542  0.7743  0.8421
   33MOL    H72 3976   6.251   0.564   1.419 -0.3023  0.6662 -3.8573
   33MOL    H73 3977   6.139   0.695   1.436 -1.2834 -0.0215  1.9898
   33MOL    C74 3978   6.129   0.547   1.590 -0.9351 -0.1599  0.0141
   33MOL    C75 3979   6.229   0.617   1.687 -0.0399  0.2121  1.0919
   33MOL    H76 3980   6.026   0.564   1.620 -1.4887 -2.2365 -0.6784
   33MOL    H77 3981   6.156   0.442   1.597 -2.9535 -0.6048  1.2674
   33MOL    H78 3982   6.334   0.608   1.661  0.0560 -2.8459  2.4347
   33MOL    H79 3983   6.210   0.724   1.678  0.5642  0.2167 -0.3159
   33MOL    C80 3984   6.211   0.572   1.832 -0.7621  0.5010  0.1653
   33MOL    C81 3985   6.304   0.649   1.928  0.2164 -0.4384 -0.4799
   33MOL    H82 3986   6.105   0.566   1.854 -0.6869  0.0696  0.4254
   33MOL    H83 3987   6.238   0.467   1.845 -1.1072  0.4662  0.6142
   33MOL    H84 3988   6.406   0.621   1.906  0.9857  1.9627 -0.1235
   33MOL    H85 3989   6.290   0.754   1.900 -0.4241 -0.4017 -0.0394
   33MOL    C86 3990   6.270   0.635   2.079  0.2261  0.2548 -0.0547
   33MOL    C87 3991   6.361   0.712   2.172 -0.5120 -0.0950  0.3055
   33MOL    H88 3992   6.168   0.670   2.093 -0.1384  0.2749 -2.4297
   33MOL    H89 3993   6.273   0.533   2.115 -0.8063 -0.3056 -1.4979
   33MOL    H90 3994   6.463   0.688   2.143 -0.7302  0.1919 -0.7233
   33MOL    H91 3995   6.365   0.817   2.142  1.3269 -0.3281 -0.2640
   33MOL    C92 3996   6.317   0.688   2.323 -0.6541  0.2920  0.4730
   33MOL    C93 3997   6.405   0.750   2.431  0.3856 -0.9893  0.3941
   33MOL    H94 3998   6.215   0.721   2.339 -0.0680  2.3300  0.1502
   33MOL    H95 3999   6.310   0.581   2.342 -0.6779  0.3688  0.9125
   33MOL    H96 4000   6.503   0.704   2.425 -0.3401 -2.5488  0.4281
   33MOL    H97 4001   6.414   0.856   2.406  1.5191 -0.9858  0.8253
   33MOL    C98 4002   6.349   0.731   2.571  0.5387 -0.1504 -0.7899
   33MOL    C99 4003   6.448   0.790   2.677 -0.4759  0.3159  0.0249
   33MOL   H100 4004   6.261   0.795   2.581  2.2927  1.9454  2.0625
   33MOL   H101 4005   6.309   0.633   2.596 -1.2297  0.6808 -0.2567
   33MOL   H102 4006   6.519   0.712   2.704 -0.1088  1.2744  1.9287
   33MOL   H103 4007   6.499   0.879   2.639  0.4400  1.4457  3.7365
   33MOL   C104 4008   6.379   0.843   2.802  0.2788 -0.1189 -0.5477
   33MOL   C105 4009   6.466   0.911   2.908 -0.6024  0.4948  0.4176
   33MOL   H106 4010   6.296   0.908   2.774 -0.0638 -0.0077  0.6919
   33MOL   H107 4011   6.326   0.757   2.843 -2.5102  2.4209  1.3947
   33MOL   H108 4012   6.555   0.853   2.933 -0.7347 -0.1201 -0.5388
   33MOL   H109 4013   6.497   1.008   2.869  1.4260 -0.2115  0.1858
   33MOL   C110 4014   6.389   0.933   3.043  0.6534 -1.0499 -0.1590
   33MOL   C111 4015   6.489   0.978   3.152  0.1046  0.1509 -0.1260
   33MOL   H112 4016   6.296   0.991   3.048  1.9156  1.1903 -1.7737
   33MOL   H113 4017   6.344   0.837   3.070 -1.0662 -0.3405 -0.4381
   33MOL   H114 4018   6.565   0.900   3.159 -0.5085 -0.5069 -0.6497
   33MOL   H115 4019   6.533   1.075   3.132 -2.8619  1.8042  0.9994
   33MOL   C116 4020   6.413   0.984   3.285  0.4963 -0.1498  0.5640
   33MOL   C117 4021   6.498   1.021   3.415  0.1999  0.0498  0.0902
   33MOL   H118 4022   6.333   1.057   3.274  1.1104  0.4315 -0.1322
   33MOL   H119 4023   6.364   0.887   3.294  0.9717 -0.4150  0.3287
   33MOL   H120 4024   6.557   0.941   3.461 -1.4196 -1.0755  0.2488
   33MOL   H121 4025   6.564   1.106   3.401  0.0725  0.0351 -0.5997
   33MOL   H122 4026   6.427   1.060   3.487  1.6792  2.5037  0.2668
   34MOL     C1 4027   2.956   5.119   0.664  0.5577  0.1905  0.8602
   34MOL     C2 4028   2.942   5.255   0.729  0.1256 -0.6896 -0.0035
   34MOL     H3 4029   3.027   5.127   0.582  0.1703 -2.7420  0.1549
   34MOL     H4 4030   2.864   5.091   0.613 -0.5794  1.1861  2.3467
   34MOL     H5 4031   2.927   5.245   0.837 -0.1720  1.7468  0.2227
   34MOL     H6 4032   3.041   5.299   0.738 -0.4932  0.5944  0.7909
   34MOL     H7 4033   3.002   5.042   0.726  2.2445  0.0534 -0.4974
   34MOL     C8 4034   2.861   5.366   0.653  0.4707  0.4135  0.0819
   34MOL     C9 4035   2.867   5.514   0.704  0.2091 -0.2418 -0.5011
   34MOL    H10 4036   2.886   5.369   0.547  1.6852 -1.1468  0.3190
   34MOL    H11 4037   2.759   5.328   0.647  1.2626 -1.6895 -0.1883
   34MOL    H12 4038   2.832   5.494   0.806 -0.1564  1.5812 -0.2646
   34MOL    H13 4039   2.973   5.542   0.705  1.0284 -3.1536  0.8989
   34MOL    C14 4040   2.787   5.619   0.632  0.5069 -0.0144 -0.0336
   34MOL    C15 4041   2.799   5.758   0.703  0.3901  0.0398  0.5380
   34MOL    H16 4042   2.805   5.608   0.525 -1.8870  1.3022 -0.6173
   34MOL    H17 4043   2.684   5.585   0.641  0.7240 -0.4741  0.7510
   34MOL    H18 4044   2.754   5.740   0.801 -0.1116 -0.9576  0.1307
   34MOL    H19 4045   2.905   5.784   0.710  0.5981 -0.2040 -1.4631
   34MOL    C20 4046   2.716   5.876   0.649 -0.6731 -0.3083 -0.4030
   34MOL    C21 4047   2.731   6.001   0.748  0.8719 -0.2183 -0.0628
   34MOL    H22 4048   2.740   5.910   0.548 -0.9568  1.3056  0.0495
   34MOL    H23 4049   2.610   5.848   0.646 -1.2947  1.6222  1.5527
   34MOL    H24 4050   2.727   5.984   0.856 -0.1079  0.4385  0.0144
   34MOL    H25 4051   2.835   6.032   0.744  0.0961  2.3669 -2.1610
   34MOL    C26 4052   2.647   6.123   0.697  0.2948  0.2579 -1.1495
   34MOL    C27 4053   2.673   6.248   0.781  0.3427  0.5830  0.1157
   34MOL    H28 4054   2.671   6.130   0.591  3.0641 -1.6231 -0.7071
   34MOL    H29 4055   2.541   6.097   0.701  0.4999 -0.6886 -1.6718
   34MOL    H30 4056   2.680   6.211   0.883 -1.7007  1.3031  0.5403
   34MOL    H31 4057   2.769   6.281   0.741  0.2324 -1.7554 -2.2640
   34MOL    C32 4058   2.573   6.367   0.757  0.1844 -0.2783 -0.6074
   34MOL    C33 4059   2.607   6.479   0.862 -0.2558 -0.1755 -0.4910
   34MOL    H34 4060   2.596   6.406   0.658 -0.8057 -1.5751 -1.3747
   34MOL    H35 4061   2.469   6.335   0.763 -0.4696  2.0589  1.1133
   34MOL    H36 4062   2.600   6.443   0.965  1.6937 -2.0144 -0.9632
   34MOL    H37 4063   2.709   6.517   0.860 -0.5470  0.5614 -1.1258
   34MOL    C38 4064   2.512   6.597   0.841 -0.0064 -0.6865 -0.0757
   34MOL    C39 4065   2.523   6.710   0.947 -0.7766  0.3571 -0.2632
   34MOL    H40 4066   2.534   6.654   0.750  2.3713  0.9558  1.4687
   34MOL    H41 4067   2.412   6.561   0.817 -0.1500 -0.3977  0.0813
   34MOL    H42 4068   2.497   6.656   1.038  0.2741 -1.3632 -0.9751
   34MOL    H43 4069   2.630   6.727   0.950 -0.2447 -2.7884 -0.3797
   34MOL    C44 4070   2.439   6.838   0.925  0.2578 -0.4827  0.0438
   34MOL    C45 4071   2.476   6.964   1.020  0.3344  0.7130  0.2117
   34MOL    H46 4072   2.462   6.868   0.822  0.6430  0.6982  0.4596
   34MOL    H47 4073   2.332   6.819   0.927  0.2245 -0.4595 -1.0395
   34MOL    H48 4074   2.421   6.946   1.113  0.0510  1.1657  0.1368
   34MOL    H49 4075   2.580   6.967   1.053  0.3037  1.9156  0.2436
   34MOL    C50 4076   2.432   7.102   0.970  0.3516 -0.1733  0.0780
   34MOL    C51 4077   2.414   7.204   1.079  0.2140  0.3499 -0.4814
   34MOL    H52 4078   2.493   7.131   0.885  0.5517  0.5796  0.4718
   34MOL    H53 4079   2.335   7.095   0.921 -0.4688  0.8024  1.5144
   34MOL    H54 4080   2.500   7.223   1.144  0.1221 -0.9685  0.0284
   34MOL    H55 4081   2.399   7.297   1.023 -0.5317 -0.7970 -2.2539
   34MOL    C56 4082   2.296   7.186   1.179  0.3126 -0.3093 -0.0124
   34MOL    C57 4083   2.291   7.288   1.288  0.2915  0.4175 -0.2436
   34MOL    H58 4084   2.205   7.186   1.120 -0.6883  0.4320  1.5005
   34MOL    H59 4085   2.293   7.087   1.226  0.0140 -1.1463 -1.7796
   34MOL    H60 4086   2.382   7.281   1.348  0.2490  2.7734  0.1543
   34MOL    H61 4087   2.302   7.387   1.244  1.1039  1.0749  1.3856
   34MOL    C62 4088   2.161   7.273   1.375 -0.0488  0.3212 -0.8088
   34MOL    C63 4089   2.171   7.353   1.503 -0.2039 -0.1257  1.2455
   34MOL    H64 4090   2.069   7.287   1.318 -1.1224 -1.3794  0.4318
   34MOL    H65 4091   2.153   7.170   1.411 -1.5338  0.4234 -0.8248
   34MOL    H66 4092   2.256   7.318   1.561  0.8281  0.5713  0.1804
   34MOL    H67 4093   2.190   7.459   1.485  1.8909 -0.6922 -0.0240
   34MOL    C68 4094   2.045   7.350   1.587 -0.0720 -0.5526  0.1999
   34MOL    C69 4095   2.044   7.244   1.698 -0.3110  0.1078  0.4376
   34MOL    H70 4096   2.033   7.443   1.642  0.5406  0.5166 -1.4369
   34MOL    H71 4097   1.961   7.344   1.518 -0.7521  0.7884  0.8896
   34MOL    H72 4098   2.143   7.225   1.740 -0.8698 -2.7307  0.6114
   34MOL    H73 4099   1.971   7.278   1.771 -2.7085 -0.5896 -1.5532
   34MOL    C74 4100   2.013   7.102   1.642 -0.5610  0.6939  0.3566
   34MOL    C75 4101   1.987   7.010   1.764  0.0239  0.7177  0.1397
   34MOL    H76 4102   1.919   7.104   1.586 -1.6671 -0.4130  2.1027
   34MOL    H77 4103   2.095   7.058   1.586 -2.7111  1.1059 -3.2535
   34MOL    H78 4104   2.066   7.018   1.839  0.9232  0.0127 -0.7242
   34MOL    H79 4105   1.891   7.038   1.808  0.1334  1.2812  0.0239
   34MOL    C80 4106   1.972   6.862   1.726 -0.9506  0.3246 -0.2255
   34MOL    C81 4107   1.999   6.758   1.833  0.0002  0.3199  0.2057
   34MOL    H82 4108   1.877   6.832   1.681 -0.9156  1.2984 -0.9754
   34MOL    H83 4109   2.054   6.839   1.658 -0.0865 -0.1577  0.9624
   34MOL    H84 4110   2.075   6.787   1.905 -0.1456 -1.7803  1.2413
   34MOL    H85 4111   1.907   6.752   1.891 -1.4288  4.1592 -1.5130
   34MOL    C86 4112   2.022   6.616   1.770  0.1252  0.0830 -0.1083
   34MOL    C87 4113   2.024   6.501   1.863 -0.6363 -0.6455  0.4751
   34MOL    H88 4114   1.947   6.586   1.696  0.9409  0.0269 -0.9295
   34MOL    H89 4115   2.123   6.620   1.729  0.5289  1.2965  0.9896
   34MOL    H90 4116   2.094   6.522   1.944 -0.0865 -0.9213  0.0827
   34MOL    H91 4117   1.925   6.482   1.905 -0.4363 -2.1114  0.3238
   34MOL    C92 4118   2.075   6.371   1.804  0.7828  0.9549 -0.2618
   34MOL    C93 4119   2.056   6.250   1.898 -0.2170 -0.2450  0.0121
   34MOL    H94 4120   2.023   6.343   1.712 -0.3121  0.4304  0.5053
   34MOL    H95 4121   2.182   6.386   1.797  1.0194 -0.3418  0.4249
   34MOL    H96 4122   2.105   6.167   1.848  0.0358  0.7459 -1.4411
   34MOL    H97 4123   2.118   6.271   1.985 -0.5184 -3.6634  1.0992
   34MOL    C98 4124   1.918   6.199   1.933  0.4983 -0.0204 -0.7801
   34MOL    C99 4125   1.904   6.090   2.043 -0.2740  0.1014  1.1012
   34MOL   H100 4126   1.858   6.282   1.970  0.0292 -1.0063  0.7063
   34MOL   H101 4127   1.879   6.164   1.838  0.7003 -0.7008 -0.6166
   34MOL   H102 4128   1.798   6.065   2.037 -0.4183  0.2760  2.6097
   34MOL   H103 4129   1.969   6.005   2.027  1.3444  1.7264 -1.3708
   34MOL   C104 4130   1.924   6.131   2.195  0.8905 -0.1851 -0.9149
   34MOL   C105 4131   1.899   6.017   2.296  0.2561  0.1058 -0.4365
   34MOL   H106 4132   2.009   6.197   2.211 -0.4357  1.6763 -1.2685
   34MOL   H107 4133   1.836   6.194   2.212 -0.5223 -2.8410  1.9922
   34MOL   H108 4134   1.832   6.049   2.376 -0.3563  2.4728 -1.8793
   34MOL   H109 4135   1.856   5.930   2.245 -0.4483  0.4098 -0.3704
   34MOL   C110 4136   2.022   5.973   2.379  0.4638 -0.1367  0.4642
   34MOL   C111 4137   2.107   5.868   2.305 -0.1545  0.2612 -1.0931
   34MOL   H112 4138   2.086   6.055   2.410 -0.5204  0.4661  0.9028
   34MOL   H113 4139   1.985   5.932   2.473 -2.4834  1.1314 -0.0883
   34MOL   H114 4140   2.142   5.892   2.205  0.3062  0.7191 -0.8243
   34MOL   H115 4141   2.199   5.856   2.362  0.7496  0.1142 -2.5542
   34MOL   C116 4142   2.044   5.730   2.295  0.2686 -0.0805 -0.5597
   34MOL   C117 4143   2.133   5.634   2.213  0.1005 -0.1597  0.1563
   34MOL   H118 4144   2.037   5.689   2.395  0.9163  0.5309 -0.2550
   34MOL   H119 4145   1.945   5.728   2.251  1.5855 -0.5872 -3.6784
   34MOL   H120 4146   2.171   5.660   2.114  0.3129  0.5186  0.4156
   34MOL   H121 4147   2.219   5.603   2.273  0.8805 -0.3923 -1.0691
   34MOL   H122 4148   2.075   5.541   2.208  1.3431 -1.0449  1.5436
   35MOL     C1 4149   4.251   5.855   0.899  0.9269  0.1847  0.2771
   35MOL     C2 4150   4.117   5.824   0.823  0.0821 -0.1510  0.1334
   35MOL     H3 4151   4.234   5.911   0.991  1.9216  1.0987 -0.0891
   35MOL     H4 4152   4.322   5.909   0.837  1.8730 -0.9290  0.3644
   35MOL     H5 4153   4.078   5.925   0.812  2.4376  1.0343  2.1495
   35MOL     H6 4154   4.148   5.768   0.734  0.8850  1.4086 -0.5955
   35MOL     H7 4155   4.306   5.762   0.915 -0.1412 -0.6447 -0.7707
   35MOL     C8 4156   4.025   5.732   0.904 -0.4020  0.0275  0.0357
   35MOL     C9 4157   3.914   5.662   0.814 -0.9621  0.6645 -0.0374
   35MOL    H10 4158   4.086   5.651   0.943 -2.8874 -2.1122 -0.3697
   35MOL    H11 4159   3.989   5.796   0.985 -0.1079 -0.5226  0.6056
   35MOL    H12 4160   3.964   5.596   0.744 -1.5369  1.4845 -1.2305
   35MOL    H13 4161   3.861   5.593   0.880 -0.2138  1.1638  1.1146
   35MOL    C14 4162   3.813   5.751   0.741 -0.3027 -0.5110  0.7141
   35MOL    C15 4163   3.721   5.676   0.647  0.2663  0.2477 -0.2532
   35MOL    H16 4164   3.754   5.806   0.814  1.7430  2.0902  0.4777
   35MOL    H17 4165   3.875   5.818   0.681 -1.4727 -0.0801 -0.0469
   35MOL    H18 4166   3.773   5.628   0.564  0.7086  1.9298 -0.9601
   35MOL    H19 4167   3.664   5.603   0.705 -0.1822  1.0523  0.3238
   35MOL    C20 4168   3.629   5.759   0.558  0.2902  0.3411  0.6170
   35MOL    C21 4169   3.542   5.660   0.473 -0.1131 -0.0496 -0.1930
   35MOL    H22 4170   3.570   5.820   0.627 -0.9572  0.5662 -0.6307
   35MOL    H23 4171   3.679   5.826   0.488  2.4155 -1.6657  0.1338
   35MOL    H24 4172   3.602   5.614   0.394 -0.7917 -0.3730 -0.5161
   35MOL    H25 4173   3.503   5.577   0.530 -0.2127  0.1679  0.0541
   35MOL    C26 4174   3.420   5.723   0.409 -0.1623  0.4005 -0.0533
   35MOL    C27 4175   3.352   5.621   0.325 -0.1054  0.9108  0.0335
   35MOL    H28 4176   3.352   5.756   0.488  0.3469  1.5873 -0.1136
   35MOL    H29 4177   3.442   5.813   0.353  0.7817  1.3486  1.7924
   35MOL    H30 4178   3.418   5.567   0.258 -1.2845  1.0944 -1.2849
   35MOL    H31 4179   3.311   5.550   0.397  1.5740 -1.1868 -1.0438
   35MOL    C32 4180   3.238   5.667   0.238  0.1812 -0.4429 -0.0487
   35MOL    C33 4181   3.125   5.740   0.317  0.0651  0.2761  0.3418
   35MOL    H34 4182   3.284   5.738   0.169  0.1676 -0.2525  0.1391
   35MOL    H35 4183   3.199   5.586   0.176  0.2036  0.5204 -1.3604
   35MOL    H36 4184   3.093   5.684   0.405 -2.0211 -0.4357 -0.8551
   35MOL    H37 4185   3.168   5.836   0.346  0.8033 -0.5908  2.2024
   35MOL    C38 4186   3.009   5.769   0.227  0.0547  0.3413 -0.1701
   35MOL    C39 4187   2.867   5.803   0.283 -0.5443 -0.0050  0.6166
   35MOL    H40 4188   3.036   5.837   0.146  0.8571  0.0045 -0.1829
   35MOL    H41 4189   2.986   5.673   0.181  2.3082 -0.4763  0.3619
   35MOL    H42 4190   2.825   5.712   0.324 -0.7456 -0.7025 -1.0684
   35MOL    H43 4191   2.873   5.871   0.368 -0.5111 -0.1475  0.7289
   35MOL    C44 4192   2.775   5.858   0.172 -0.2297  0.2926  0.1348
   35MOL    C45 4193   2.641   5.902   0.231 -0.5110  0.7533 -0.4019
   35MOL    H46 4194   2.825   5.941   0.122 -0.7887  0.8005  0.4109
   35MOL    H47 4195   2.759   5.778   0.100 -1.7420  0.0000  0.7814
   35MOL    H48 4196   2.584   5.823   0.280  1.0830  0.3999  0.9629
   35MOL    H49 4197   2.668   5.979   0.303  0.8293 -2.3557  2.6169
   35MOL    C50 4198   2.555   5.964   0.129 -1.1359  0.7071  0.1506
   35MOL    C51 4199   2.422   6.015   0.186 -0.0693  0.0105 -0.0550
   35MOL    H52 4200   2.599   6.050   0.080 -3.1334  1.6870  0.0037
   35MOL    H53 4201   2.535   5.881   0.061  1.3144 -0.3026  0.5956
   35MOL    H54 4202   2.370   5.931   0.234 -2.4804  2.1756  1.2248
   35MOL    H55 4203   2.428   6.086   0.269  0.5145  0.1847 -0.2496
   35MOL    C56 4204   2.342   6.092   0.076  0.3655 -0.2220  0.6173
   35MOL    C57 4205   2.201   6.121   0.111 -0.2981 -0.2864  0.1153
   35MOL    H58 4206   2.387   6.188   0.051  1.3638 -0.7397  0.3991
   35MOL    H59 4207   2.340   6.036   7.674  0.0751  0.4496  0.2235
   35MOL    H60 4208   2.141   6.031   0.128  0.2860 -0.8680 -0.8584
   35MOL    H61 4209   2.214   6.162   0.211  2.1056 -0.8211  0.0502
   35MOL    C62 4210   2.123   6.227   0.031  0.5203  0.0118  0.3685
   35MOL    C63 4211   1.992   6.258   0.101 -0.1303 -0.2101 -0.3227
   35MOL    H64 4212   2.188   6.313   0.015 -0.0963  0.6866  1.4345
   35MOL    H65 4213   2.097   6.192   7.624 -1.1225 -0.6316  1.0172
   35MOL    H66 4214   1.943   6.165   0.129  0.7862 -1.4110 -2.6260
   35MOL    H67 4215   2.009   6.312   0.195  1.7404  0.0028 -0.7607
   35MOL    C68 4216   1.905   6.343   0.017 -1.1328 -0.0962  0.4381
   35MOL    C69 4217   1.776   6.384   0.083  0.6366 -0.0704  0.3940
   35MOL    H70 4218   1.954   6.438   7.690 -1.7984  0.5709  1.9384
   35MOL    H71 4219   1.885   6.295   7.613 -0.5636 -0.1631  0.3512
   35MOL    H72 4220   1.715   6.299   0.114 -0.7063  0.7126 -0.0692
   35MOL    H73 4221   1.793   6.432   0.179  1.4554  0.5863 -0.0794
   35MOL    C74 4222   1.691   6.475   0.000  0.0204 -0.2226  0.0894
   35MOL    C75 4223   1.538   6.463   0.014  0.5829  0.2806 -0.2341
   35MOL    H76 4224   1.710   6.579   0.028  1.3919 -0.4115 -0.1336
   35MOL    H77 4225   1.723   6.470   7.588 -3.7140  0.0003 -1.1570
   35MOL    H78 4226   1.512   6.483   0.118  0.2385 -0.4547 -0.1711
   35MOL    H79 4227   1.504   6.539   7.636  1.3531  0.1449 -0.7649
   35MOL    C80 4228   1.470   6.339   7.655  0.8309 -0.1157  0.5364
   35MOL    C81 4229   1.321   6.368   7.625  0.4446  0.1608 -0.5821
   35MOL    H82 4230   1.519   6.306   7.563  2.1152 -0.1673  1.2321
   35MOL    H83 4231   1.483   6.255   0.031  0.5879 -0.4509  0.1731
   35MOL    H84 4232   1.272   6.417   0.018 -1.5323 -0.3921 -1.3654
   35MOL    H85 4233   1.307   6.435   7.540 -0.3904 -1.2843 -1.6022
   35MOL    C86 4234   1.240   6.235   7.609 -0.1133 -0.0405 -0.4145
   35MOL    C87 4235   1.090   6.244   7.594  0.4806  0.0826 -0.4521
   35MOL    H88 4236   1.278   6.188   7.518 -0.8891 -0.0722 -0.7177
   35MOL    H89 4237   1.268   6.167   7.690  0.9226  1.4279  0.4820
   35MOL    H90 4238   1.044   6.311   7.666 -0.0879 -1.8482  1.0182
   35MOL    H91 4239   1.066   6.285   7.496  0.5279  1.4472  0.1013
   35MOL    C92 4240   1.026   6.105   7.617 -0.4531  0.4954 -0.0858
   35MOL    C93 4241   0.869   6.114   7.606 -0.5954  0.2005 -0.0070
   35MOL    H94 4242   1.071   6.023   7.560 -0.1197 -0.7901  1.9947
   35MOL    H95 4243   1.030   6.070   0.028  0.1528  1.7918  0.3440
   35MOL    H96 4244   0.843   6.202   7.665  0.4875  0.9357 -0.6163
   35MOL    H97 4245   0.836   6.136   7.504 -2.5990  1.7923  0.9417
   35MOL    C98 4246   0.802   5.985   7.646  0.2881 -0.1453  0.4369
   35MOL    C99 4247   0.648   5.974   7.615 -0.1295 -0.4629  0.6347
   35MOL   H100 4248   0.862   5.907   7.599  0.9088  1.3345 -1.3261
   35MOL   H101 4249   0.810   5.966   0.061  1.0824 -1.1249  0.2060
   35MOL   H102 4250   0.602   6.039   7.689 -0.4100 -2.1374  1.9378
   35MOL   H103 4251   0.618   6.021   7.521 -1.7893  0.7018  1.7259
   35MOL   C104 4252   0.591   5.835   7.617  0.3916  0.0211 -0.6093
   35MOL   C105 4253   0.438   5.842   7.616  0.2184  0.8354 -0.3319
   35MOL   H106 4254   0.629   5.774   7.535 -1.0440 -1.1668 -0.4181
   35MOL   H107 4255   0.623   5.793   0.021  1.9279  3.9614  0.7056
   35MOL   H108 4256   0.406   5.910   0.004  1.3649 -1.3044  1.9883
   35MOL   H109 4257   0.401   5.900   7.531  1.6269  0.6357 -1.0987
   35MOL   C110 4258   0.364   5.705   7.625  0.2222 -0.0168  0.0925
   35MOL   C111 4259   0.210   5.710   7.611  0.1373 -0.1938 -0.5653
   35MOL   H112 4260   0.400   5.629   7.556 -0.9221 -1.6957  1.2702
   35MOL   H113 4261   0.376   5.656   0.030  0.5093 -0.6066 -0.2357
   35MOL   H114 4262   0.159   5.778   7.679 -0.8773 -0.1078 -1.4005
   35MOL   H115 4263   0.174   5.753   7.518 -2.7295 -0.9459  0.1473
   35MOL   C116 4264   0.152   5.567   7.627  0.3452  0.1427  0.0551
   35MOL   C117 4265   0.005   5.554   7.670  0.1592  0.4717  0.3923
   35MOL   H118 4266   0.153   5.519   7.529 -0.3656 -1.7365  0.9490
   35MOL   H119 4267   0.219   5.507   7.689  1.9627  1.3501 -0.5023
   35MOL   H120 4268   7.676   5.607   0.071  0.8428  2.3912 -0.5223
   35MOL   H121 4269   7.639   5.592   7.586  0.1722 -2.2481 -0.8846
   35MOL   H122 4270   7.666   5.450   7.675  1.8342 -0.1040 -0.9129
   36MOL     C1 4271   5.275   3.630   3.097 -0.2102  0.4901 -0.2165
   36MOL     C2 4272   5.350   3.538   3.190  0.6016 -0.1421  0.5199
   36MOL     H3 4273   5.178   3.588   3.070  0.4405 -0.9671 -0.3454
   36MOL     H4 4274   5.333   3.645   3.005  2.3737  0.3877  1.3500
   36MOL     H5 4275   5.380   3.448   3.136  0.9106 -0.0847  0.5961
   36MOL     H6 4276   5.434   3.595   3.231  2.0528 -1.3739 -0.6693
   36MOL     H7 4277   5.262   3.722   3.154  1.1793  0.0521  0.8245
   36MOL     C8 4278   5.261   3.505   3.311  0.2839  0.5242 -0.7468
   36MOL     C9 4279   5.143   3.403   3.280  0.1076 -1.3080 -0.5583
   36MOL    H10 4280   5.313   3.445   3.385 -0.9670 -0.2519 -0.4698
   36MOL    H11 4281   5.222   3.594   3.360 -0.9845  0.1443 -1.0502
   36MOL    H12 4282   5.091   3.452   3.198 -0.0317 -0.2575  0.1392
   36MOL    H13 4283   5.189   3.312   3.244  0.5343 -1.3017 -0.0227
   36MOL    C14 4284   5.068   3.363   3.412  0.6880 -0.0140 -0.0893
   36MOL    C15 4285   4.965   3.254   3.392 -0.1660  0.4851  0.4103
   36MOL    H16 4286   5.136   3.306   3.475 -2.3609 -2.9819  0.6504
   36MOL    H17 4287   5.038   3.451   3.469 -0.2609 -1.5581  1.8252
   36MOL    H18 4288   4.897   3.286   3.313  0.4303 -0.9004 -0.7044
   36MOL    H19 4289   5.017   3.171   3.344 -0.2080  1.2098 -0.9243
   36MOL    C20 4290   4.886   3.199   3.519  0.3445 -0.0194 -0.2615
   36MOL    C21 4291   4.797   3.077   3.493  0.0596  0.6291  1.1110
   36MOL    H22 4292   4.956   3.171   3.597 -1.1105 -0.6432  0.8313
   36MOL    H23 4293   4.831   3.284   3.559 -1.2682 -0.9807 -0.4185
   36MOL    H24 4294   4.728   3.093   3.411 -0.0329 -0.8513  0.8935
   36MOL    H25 4295   4.859   2.995   3.457 -1.3006  0.3398 -0.5917
   36MOL    C26 4296   4.722   3.044   3.619  0.3397  0.5690 -0.4265
   36MOL    C27 4297   4.663   2.902   3.618 -0.0937 -0.0014 -0.2357
   36MOL    H28 4298   4.795   3.053   3.700  0.2194 -0.3863 -0.2038
   36MOL    H29 4299   4.651   3.121   3.649 -0.5769 -0.3963 -0.1002
   36MOL    H30 4300   4.608   2.874   3.528 -1.4388  0.5570  0.3960
   36MOL    H31 4301   4.748   2.834   3.621 -0.8261 -0.9010  0.3198
   36MOL    C32 4302   4.576   2.878   3.740 -0.3003  0.0033 -0.0031
   36MOL    C33 4303   4.539   2.730   3.752 -0.4571 -0.7420 -0.2078
   36MOL    H34 4304   4.618   2.907   3.836  0.2407  1.2193 -0.6049
   36MOL    H35 4305   4.489   2.943   3.732 -0.0109  0.2915 -0.7870
   36MOL    H36 4306   4.491   2.703   3.657 -0.9185  3.3066 -1.2300
   36MOL    H37 4307   4.637   2.683   3.761 -0.2805 -0.5265 -0.9800
   36MOL    C38 4308   4.444   2.688   3.863  0.8885 -0.5099 -0.7123
   36MOL    C39 4309   4.430   2.540   3.908 -0.0476 -0.0851  0.1564
   36MOL    H40 4310   4.474   2.739   3.954  1.0030 -0.6204 -0.6866
   36MOL    H41 4311   4.344   2.725   3.842  0.9840  1.4013  1.9843
   36MOL    H42 4312   4.427   2.486   3.813  1.6262  0.7879 -0.4195
   36MOL    H43 4313   4.514   2.515   3.972  0.3595 -0.8899 -0.6693
   36MOL    C44 4314   4.295   2.515   3.984 -0.0010 -0.1035 -0.0621
   36MOL    C45 4315   4.275   2.593   4.113 -0.5727  0.1246  0.2270
   36MOL    H46 4316   4.204   2.512   3.924 -2.3368 -5.4777  3.3505
   36MOL    H47 4317   4.295   2.409   4.009 -0.8609 -0.0993 -0.0282
   36MOL    H48 4318   4.368   2.581   4.168 -0.1948  0.0324 -0.4342
   36MOL    H49 4319   4.277   2.697   4.083  2.0332  0.0942  0.1940
   36MOL    C50 4320   4.146   2.557   4.197  0.0621  0.1375 -0.1274
   36MOL    C51 4321   4.186   2.460   4.306 -0.2440 -0.4404 -0.3468
   36MOL    H52 4322   4.094   2.649   4.225 -2.2573 -1.6296  1.4354
   36MOL    H53 4323   4.065   2.510   4.142  0.0997 -1.2969  1.0224
   36MOL    H54 4324   4.208   2.359   4.271  1.3040  0.4421 -2.0598
   36MOL    H55 4325   4.273   2.504   4.354 -0.9472 -0.2964  0.8064
   36MOL    C56 4326   4.093   2.462   4.422 -0.0404  0.2685  0.0702
   36MOL    C57 4327   3.944   2.427   4.409  0.7396  0.3802 -0.3871
   36MOL    H58 4328   4.141   2.393   4.492 -0.2505  2.0000  1.9643
   36MOL    H59 4329   4.095   2.559   4.472  2.3809  0.4996 -0.4558
   36MOL    H60 4330   3.898   2.471   4.321 -0.7825 -1.1206 -0.3659
   36MOL    H61 4331   3.956   2.321   4.385 -1.0091 -0.0581  0.6793
   36MOL    C62 4332   3.871   2.463   4.543  0.1198 -0.3514  0.6286
   36MOL    C63 4333   3.724   2.446   4.539  0.0484 -0.3135  0.0973
   36MOL    H64 4334   3.914   2.408   4.627 -1.3042 -1.4682  0.6420
   36MOL    H65 4335   3.887   2.563   4.583 -0.7002 -0.8316  2.1920
   36MOL    H66 4336   3.686   2.518   4.467 -0.3224  0.7535  1.3376
   36MOL    H67 4337   3.699   2.343   4.514 -0.8011 -0.5877  1.9886
   36MOL    C68 4338   3.669   2.475   4.675 -0.4275 -0.7169  0.2371
   36MOL    C69 4339   3.517   2.493   4.673 -0.7497 -0.2887  0.2832
   36MOL    H70 4340   3.697   2.388   4.735  1.5517 -0.8657 -0.8630
   36MOL    H71 4341   3.713   2.564   4.720 -0.3113 -1.4520  1.6208
   36MOL    H72 4342   3.497   2.587   4.622  1.3869  0.1017  0.0800
   36MOL    H73 4343   3.469   2.415   4.614  1.0648 -1.8352  0.7969
   36MOL    C74 4344   3.463   2.482   4.819 -0.0309 -0.4543 -0.5426
   36MOL    C75 4345   3.317   2.497   4.839  0.2631 -0.1249  0.6016
   36MOL    H76 4346   3.510   2.395   4.866  0.5134 -0.0844 -0.4015
   36MOL    H77 4347   3.505   2.566   4.873  1.5468 -0.1222 -2.2279
   36MOL    H78 4348   3.292   2.515   4.944 -2.0868  0.8603 -0.0856
   36MOL    H79 4349   3.274   2.588   4.797  3.4753  1.7890  1.3290
   36MOL    C80 4350   3.242   2.371   4.806 -0.0291 -0.0019  0.6557
   36MOL    C81 4351   3.101   2.398   4.746 -0.5125  0.6709 -0.0002
   36MOL    H82 4352   3.295   2.320   4.726 -0.0905  1.3814 -0.2907
   36MOL    H83 4353   3.240   2.314   4.899 -1.3849 -2.8786 -1.0695
   36MOL    H84 4354   3.113   2.476   4.670 -1.7791 -1.5793 -2.6130
   36MOL    H85 4355   3.055   2.318   4.688  0.6933 -0.2599  0.3197
   36MOL    C86 4356   3.002   2.436   4.861  0.2856  0.0406 -0.1081
   36MOL    C87 4357   2.950   2.300   4.933 -0.1812  0.6119 -0.2823
   36MOL    H88 4358   3.046   2.508   4.930 -0.5903  0.8271 -0.3734
   36MOL    H89 4359   2.922   2.484   4.806 -2.4645 -0.6126  3.1186
   36MOL    H90 4360   2.930   2.227   4.854  0.0616 -1.3802  1.4745
   36MOL    H91 4361   3.029   2.264   4.999  1.3231  2.4340 -1.0375
   36MOL    C92 4362   2.830   2.325   5.012 -0.7321  0.0122  0.6641
   36MOL    C93 4363   2.770   2.199   5.080 -0.3442  0.2834  0.0947
   36MOL    H94 4364   2.859   2.407   5.078  1.8839  0.6984 -1.2496
   36MOL    H95 4365   2.758   2.369   4.943  0.1793 -1.6392 -1.3972
   36MOL    H96 4366   2.752   2.122   5.005 -1.3311  0.8428 -0.2564
   36MOL    H97 4367   2.845   2.156   5.146  0.2834  0.1531 -0.6898
   36MOL    C98 4368   2.642   2.230   5.155 -0.6745 -0.1831 -0.2937
   36MOL    C99 4369   2.565   2.108   5.188  0.3993 -0.6572 -0.0687
   36MOL   H100 4370   2.656   2.309   5.229 -2.5769 -1.6842  1.7420
   36MOL   H101 4371   2.573   2.279   5.086 -1.3105  1.1632  1.2680
   36MOL   H102 4372   2.550   2.053   5.095 -3.2512  0.6889 -0.3735
   36MOL   H103 4373   2.622   2.037   5.247  1.3102 -0.1847 -0.3830
   36MOL   C104 4374   2.431   2.134   5.253  0.7184 -0.3820  0.3602
   36MOL   C105 4375   2.337   2.013   5.267 -0.0748 -0.4954 -0.5874
   36MOL   H106 4376   2.445   2.192   5.345  2.2679 -0.0893 -0.0454
   36MOL   H107 4377   2.384   2.202   5.182  0.7495 -0.8465 -0.1044
   36MOL   H108 4378   2.301   1.982   5.169  1.1823 -0.7980 -0.9682
   36MOL   H109 4379   2.400   1.935   5.310  0.7313 -0.7260 -2.1375
   36MOL   C110 4380   2.209   2.037   5.354  0.6607 -0.2245 -0.8304
   36MOL   C111 4381   2.132   1.910   5.385 -0.3001 -0.4263  0.7143
   36MOL   H112 4382   2.229   2.089   5.448 -0.7505 -1.2782  0.0801
   36MOL   H113 4383   2.150   2.109   5.298 -0.1280 -0.8903 -0.8727
   36MOL   H114 4384   2.120   1.852   5.293 -0.8463  0.7610  0.0240
   36MOL   H115 4385   2.191   1.847   5.452  0.1059 -1.6925 -0.7856
   36MOL   C116 4386   2.006   1.939   5.459 -0.0024  0.4245 -0.1009
   36MOL   C117 4387   1.934   1.820   5.527  0.0837  1.3571  0.2120
   36MOL   H118 4388   2.030   2.004   5.543  0.4326 -1.0102  0.9023
   36MOL   H119 4389   1.934   1.994   5.398  0.1239  1.2598  0.4834
   36MOL   H120 4390   1.868   1.775   5.453  1.1689 -2.0163  1.2177
   36MOL   H121 4391   2.006   1.739   5.541 -2.7696 -1.3040 -0.1540
   36MOL   H122 4392   1.891   1.848   5.623 -0.0504  1.6536  0.0672
   37MOL     C1 4393   6.691   7.239   5.002 -0.8001  0.0292  0.1128
   37MOL     C2 4394   6.603   7.204   5.124  0.1378  0.2517  0.0257
   37MOL     H3 4395   6.722   7.344   4.998 -0.5786 -0.1181 -2.6229
   37MOL     H4 4396   6.645   7.209   4.908  0.0878  1.6162 -0.8522
   37MOL     H5 4397   6.504   7.247   5.109 -0.6975 -1.5667  0.3133
   37MOL     H6 4398   6.573   7.100   5.120  0.2892  0.1914  0.4954
   37MOL     H7 4399   6.789   7.191   4.999  0.1295  1.9122 -0.9644
   37MOL     C8 4400   6.669   7.257   5.251 -0.5108 -1.4167 -0.5311
   37MOL     C9 4401   6.581   7.255   5.376 -0.1672 -0.4699  0.6508
   37MOL    H10 4402   6.759   7.203   5.282  0.2070  0.1059  0.1207
   37MOL    H11 4403   6.682   7.364   5.238  0.2207 -1.2493  1.3646
   37MOL    H12 4404   6.479   7.287   5.357  0.3173  1.3667  1.0139
   37MOL    H13 4405   6.568   7.157   5.421  1.9096 -0.5121  1.2016
   37MOL    C14 4406   6.645   7.341   5.483 -0.3085  0.4293  0.3985
   37MOL    C15 4407   6.549   7.366   5.602 -0.1466  0.1767 -0.5484
   37MOL    H16 4408   6.730   7.281   5.516  1.5947  1.1177 -3.0434
   37MOL    H17 4409   6.685   7.434   5.444 -2.9647  1.2537 -0.4959
   37MOL    H18 4410   6.474   7.437   5.566 -0.3614  0.1101 -0.2313
   37MOL    H19 4411   6.489   7.277   5.620  2.1705 -1.1211  0.9801
   37MOL    C20 4412   6.612   7.430   5.728 -1.2251  0.3705  0.2239
   37MOL    C21 4413   6.664   7.331   5.836  0.4323  0.1164 -0.7440
   37MOL    H22 4414   6.700   7.483   5.690 -2.0934  0.8224 -1.1628
   37MOL    H23 4415   6.551   7.508   5.773 -1.7916 -1.2205  2.2844
   37MOL    H24 4416   6.577   7.289   5.886 -1.0299  3.2440 -0.5456
   37MOL    H25 4417   6.710   7.242   5.791 -0.7831 -0.8323 -0.1264
   37MOL    C26 4418   6.756   7.391   5.942 -0.3506  0.1560 -0.5704
   37MOL    C27 4419   6.822   7.307   6.052  0.3418  0.1166 -0.1905
   37MOL    H28 4420   6.838   7.416   5.876  0.2772 -2.2132 -0.7371
   37MOL    H29 4421   6.705   7.471   5.996 -0.4705 -1.5688  1.9777
   37MOL    H30 4422   6.859   7.218   6.002  5.6904  1.3531  1.2004
   37MOL    H31 4423   6.910   7.350   6.099  0.5751 -0.4677 -0.0894
   37MOL    C32 4424   6.721   7.270   6.155 -0.5591  0.5143  0.5432
   37MOL    C33 4425   6.783   7.193   6.265  0.6711  0.1421 -0.6642
   37MOL    H34 4426   6.670   7.361   6.186  0.5109  0.9448  1.0622
   37MOL    H35 4427   6.640   7.217   6.104  0.2692 -1.3376  1.0963
   37MOL    H36 4428   6.892   7.194   6.262  0.6488  0.4404 -1.7539
   37MOL    H37 4429   6.745   7.249   6.351  0.3393  0.0544 -0.7549
   37MOL    C38 4430   6.724   7.055   6.281 -0.2269  0.3215 -0.0032
   37MOL    C39 4431   6.757   6.991   6.417  1.0809 -0.5096 -0.0031
   37MOL    H40 4432   6.615   7.052   6.276 -0.2757  1.5453  0.3016
   37MOL    H41 4433   6.758   6.985   6.204 -2.6875 -0.3621 -0.5137
   37MOL    H42 4434   6.742   7.077   6.483  0.0080 -1.3849  0.9252
   37MOL    H43 4435   6.678   6.921   6.443 -0.3569  1.6728  1.7694
   37MOL    C44 4436   6.905   6.944   6.436 -0.2222  0.0850  0.2379
   37MOL    C45 4437   6.960   6.892   6.574  0.6434  0.4387 -0.5259
   37MOL    H46 4438   6.932   6.876   6.355  0.5903  1.0645 -0.3272
   37MOL    H47 4439   6.971   7.026   6.407  1.0679  0.0955  3.0922
   37MOL    H48 4440   6.963   6.985   6.631 -0.0749  1.0126 -1.4131
   37MOL    H49 4441   6.897   6.824   6.632  0.7918  1.2891  0.6486
   37MOL    C50 4442   7.099   6.830   6.576 -0.3673 -0.3351  0.1141
   37MOL    C51 4443   7.224   6.927   6.568 -0.0611  0.1628 -0.1012
   37MOL    H52 4444   7.097   6.770   6.667 -0.8856  0.8123  0.8631
   37MOL    H53 4445   7.100   6.757   6.495 -0.7546 -2.3780  1.9081
   37MOL    H54 4446   7.230   6.966   6.466 -0.6392  1.1826  0.2435
   37MOL    H55 4447   7.208   7.023   6.617  0.7811  0.2015  0.1011
   37MOL    C56 4448   7.347   6.869   6.616 -0.9072 -0.0563 -0.0736
   37MOL    C57 4449   7.461   6.974   6.618 -0.1062  0.2116 -0.1119
   37MOL    H58 4450   7.324   6.835   6.717  0.0949  0.8354  0.4583
   37MOL    H59 4451   7.369   6.779   6.557  0.5099  0.1872  0.0656
   37MOL    H60 4452   7.479   7.020   6.521 -1.7063  0.5431 -0.2666
   37MOL    H61 4453   7.435   7.049   6.692  0.8990 -0.1388  0.6080
   37MOL    C62 4454   7.602   6.917   6.653 -0.3876  0.1150  0.1847
   37MOL    C63 4455   0.015   7.027   6.655  0.1798 -0.0863 -0.0129
   37MOL    H64 4456   7.593   6.874   6.752 -0.9262  0.9584  0.5073
   37MOL    H65 4457   7.635   6.837   6.587 -3.2510 -2.0532  1.2974
   37MOL    H66 4458   0.033   7.079   6.561 -2.4914 -0.3937 -0.7113
   37MOL    H67 4459   7.658   7.105   6.714 -0.4001  0.9004 -1.7783
   37MOL    C68 4460   0.149   6.977   6.712 -0.0165 -0.3408  0.2923
   37MOL    C69 4461   0.252   7.083   6.741  0.5685  0.4341  0.5081
   37MOL    H70 4462   0.134   6.916   6.801 -4.0433  1.0344  0.6512
   37MOL    H71 4463   0.204   6.920   6.637  0.3127 -1.6752  1.5406
   37MOL    H72 4464   0.286   7.126   6.647 -0.1987  1.4778  0.6948
   37MOL    H73 4465   0.202   7.163   6.797 -0.0748 -0.1454  0.7734
   37MOL    C74 4466   0.378   7.035   6.820  0.7006  0.6366 -0.4192
   37MOL    C75 4467   0.487   7.143   6.831  0.3440 -0.3355 -0.1195
   37MOL    H76 4468   0.348   7.010   6.922  1.1590 -1.3318 -0.7534
   37MOL    H77 4469   0.420   6.954   6.761 -1.1316  0.5466 -1.6562
   37MOL    H78 4470   0.525   7.160   6.731 -0.8781 -1.5802 -0.8076
   37MOL    H79 4471   0.449   7.236   6.875  0.5001  0.0361 -0.7684
   37MOL    C80 4472   0.602   7.119   6.925 -0.2216  0.3104  0.2127
   37MOL    C81 4473   0.683   7.000   6.880 -0.2443  0.2555 -0.4288
   37MOL    H82 4474   0.673   7.201   6.913 -0.8937  0.7650 -0.7042
   37MOL    H83 4475   0.561   7.110   7.025  0.8776  1.9335  0.8194
   37MOL    H84 4476   0.612   6.918   6.891 -1.4686  1.2925 -0.3996
   37MOL    H85 4477   0.714   7.013   6.777 -0.3693 -0.6430 -0.5811
   37MOL    C86 4478   0.798   6.978   6.976  0.4863  0.3545  0.5654
   37MOL    C87 4479   0.872   6.853   6.942  0.0757 -0.4432 -0.2035
   37MOL    H88 4480   0.866   7.064   6.971  1.8808 -0.7737 -0.1568
   37MOL    H89 4481   0.759   6.969   7.078 -2.1580  0.1173 -0.4251
   37MOL    H90 4482   0.796   6.780   6.912 -1.5140  1.0382  0.1249
   37MOL    H91 4483   0.935   6.862   6.853 -0.0161  0.5608 -0.1652
   37MOL    C92 4484   0.948   6.796   7.051  0.5077  0.2936 -0.1816
   37MOL    C93 4485   1.025   6.664   7.026 -0.3239 -1.1800  0.1358
   37MOL    H94 4486   1.018   6.874   7.080  1.8317 -1.1883  0.7469
   37MOL    H95 4487   0.877   6.779   7.132  1.5012 -1.6433  0.3297
   37MOL    H96 4488   1.106   6.685   6.956 -1.4384  1.6229 -0.3756
   37MOL    H97 4489   1.090   6.646   7.112  1.2254  0.3182 -0.6924
   37MOL    C98 4490   0.936   6.546   6.987 -0.3187 -0.1308 -0.3011
   37MOL    C99 4491   0.825   6.501   7.095  0.4124  0.6582 -0.0712
   37MOL   H100 4492   0.877   6.573   6.900 -3.5678 -0.2611  1.7550
   37MOL   H101 4493   1.001   6.465   6.955  0.1944  0.4386 -0.7147
   37MOL   H102 4494   0.886   6.472   7.180 -0.1733 -0.7714 -0.1290
   37MOL   H103 4495   0.769   6.584   7.138  0.3799  0.4483  0.2849
   37MOL   C104 4496   0.730   6.395   7.042  1.0873 -0.5906  0.9299
   37MOL   C105 4497   0.637   6.325   7.143 -0.2674  0.0369 -0.1619
   37MOL   H106 4498   0.674   6.443   6.962  2.1481 -1.0489 -0.1088
   37MOL   H107 4499   0.785   6.321   6.985  1.7617  0.5264  0.1117
   37MOL   H108 4500   0.703   6.275   7.214 -0.5174 -2.4811 -1.6704
   37MOL   H109 4501   0.569   6.389   7.200 -0.7549  0.1873 -0.9033
   37MOL   C110 4502   0.545   6.230   7.077 -0.2870 -0.2885  0.3589
   37MOL   C111 4503   0.449   6.152   7.174  0.2955  0.0383  0.3800
   37MOL   H112 4504   0.498   6.278   6.991  0.3101 -1.7584 -0.8290
   37MOL   H113 4505   0.610   6.160   7.024 -0.1166  1.2148 -1.4427
   37MOL   H114 4506   0.501   6.091   7.248  2.2389  1.2628  0.0649
   37MOL   H115 4507   0.395   6.230   7.228  1.2522  0.5003  0.6756
   37MOL   C116 4508   0.346   6.065   7.088  0.1965 -0.0481  0.2180
   37MOL   C117 4509   0.255   5.982   7.175 -0.1879  0.1703 -0.1170
   37MOL   H118 4510   0.284   6.129   7.025 -2.7433 -0.3760  2.6730
   37MOL   H119 4511   0.409   6.000   7.028  0.2298  0.4151 -0.2555
   37MOL   H120 4512   0.199   5.908   7.118 -0.2366  1.7995 -2.2637
   37MOL   H121 4513   0.306   5.906   7.234 -0.3790 -1.3137 -1.8205
   37MOL   H122 4514   0.177   6.036   7.230  1.2907  2.1255  0.1228
   38MOL     C1 4515   0.503   1.752   7.326  0.4458  0.7868 -0.4019
   38MOL     C2 4516   0.490   1.764   7.484  0.8248 -0.2399  0.0137
   38MOL     H3 4517   0.494   1.643   7.319  0.5194  0.8796 -2.2349
   38MOL     H4 4518   0.602   1.777   7.289  0.1020  0.7033 -1.4002
   38MOL     H5 4519   0.479   1.872   7.497  3.0410  0.0420 -0.2928
   38MOL     H6 4520   0.398   1.711   7.508  0.2132 -0.4658 -2.6779
   38MOL     H7 4521   0.421   1.793   7.267 -0.2837  0.9628  0.7152
   38MOL     C8 4522   0.611   1.708   7.556  0.8649 -0.3614 -0.6886
   38MOL     C9 4523   0.595   1.713   0.015  0.2359  0.5821  0.6501
   38MOL    H10 4524   0.626   1.607   7.519 -0.6780 -0.7247 -0.3581
   38MOL    H11 4525   0.696   1.772   7.532  0.4126  0.2429 -0.7017
   38MOL    H12 4526   0.588   1.815   0.054  0.0486  0.9911 -0.4485
   38MOL    H13 4527   0.514   1.645   0.040  2.6311 -1.2923  3.6820
   38MOL    C14 4528   0.717   1.652   0.084 -0.2287  0.0688 -0.4954
   38MOL    C15 4529   0.705   1.640   0.236 -0.0059  0.8611 -0.3103
   38MOL    H16 4530   0.726   1.548   0.051 -0.8407  0.4917 -2.0467
   38MOL    H17 4531   0.808   1.710   0.072  0.3322 -0.2926  1.7718
   38MOL    H18 4532   0.623   1.577   0.271  0.5701  0.8577  1.0793
   38MOL    H19 4533   0.797   1.594   0.271  0.1913  1.2519 -0.3087
   38MOL    C20 4534   0.687   1.773   0.312  0.0428 -0.3871 -0.5672
   38MOL    C21 4535   0.669   1.754   0.468  0.7061 -0.2795  0.5026
   38MOL    H22 4536   0.778   1.829   0.295 -0.4005  1.1182  1.8536
   38MOL    H23 4537   0.599   1.825   0.275 -0.5853  0.1611  1.5967
   38MOL    H24 4538   0.591   1.680   0.487  0.0609  0.1282 -0.5482
   38MOL    H25 4539   0.758   1.703   0.504  0.8789  0.7802  1.6030
   38MOL    C26 4540   0.646   1.879   0.549 -0.0185  0.1780  0.3112
   38MOL    C27 4541   0.773   1.962   0.576 -0.4452  0.6193 -0.3836
   38MOL    H28 4542   0.573   1.954   0.520  1.4332  1.7436  0.6170
   38MOL    H29 4543   0.609   1.846   0.646 -0.6295  0.6857  0.2560
   38MOL    H30 4544   0.847   1.901   0.627 -1.8514  1.2310  2.5060
   38MOL    H31 4545   0.804   2.005   0.481  0.5867  1.7273  0.4367
   38MOL    C32 4546   0.745   2.084   0.664 -0.3101 -0.1232 -0.1995
   38MOL    C33 4547   0.866   2.182   0.671  0.1983  0.2432  0.4505
   38MOL    H34 4548   0.651   2.130   0.634 -1.3249 -2.1577 -0.2078
   38MOL    H35 4549   0.720   2.051   0.765 -1.3712 -1.1222 -0.7716
   38MOL    H36 4550   0.888   2.219   0.571 -0.4039 -0.1677  0.1596
   38MOL    H37 4551   0.840   2.276   0.720 -0.8031  0.9174 -1.3361
   38MOL    C38 4552   0.998   2.136   0.724  0.4204  0.7282  0.0099
   38MOL    C39 4553   1.118   2.236   0.704  0.5861  0.0521 -0.3061
   38MOL    H40 4554   0.989   2.116   0.831  2.1427 -2.4406 -0.3659
   38MOL    H41 4555   1.025   2.048   0.666  0.2507  0.8806 -0.2975
   38MOL    H42 4556   1.134   2.257   0.598  2.2489 -0.1779 -0.1141
   38MOL    H43 4557   1.098   2.324   0.766 -0.9479 -0.5732  0.1071
   38MOL    C44 4558   1.245   2.168   0.761  0.2649 -0.4173  0.7740
   38MOL    C45 4559   1.363   2.274   0.776 -0.3312  0.8366  0.7911
   38MOL    H46 4560   1.244   2.119   0.858  1.6543 -0.3344  0.8388
   38MOL    H47 4561   1.273   2.085   0.696 -1.0976 -1.4895  1.5251
   38MOL    H48 4562   1.370   2.341   0.690  2.0766 -0.8698 -0.3914
   38MOL    H49 4563   1.347   2.339   0.862  2.0298 -0.3902  2.2060
   38MOL    C50 4564   1.496   2.207   0.815 -0.3964  1.3707 -0.1205
   38MOL    C51 4565   1.621   2.278   0.777  0.3820 -0.2559  0.2508
   38MOL    H52 4566   1.505   2.173   0.918  1.9663  0.5321 -0.5890
   38MOL    H53 4567   1.505   2.114   0.760  0.8438  0.7439  1.1272
   38MOL    H54 4568   1.633   2.274   0.669 -0.7820  1.4222  0.0590
   38MOL    H55 4569   1.615   2.383   0.804 -2.2138 -0.0457 -1.0246
   38MOL    C56 4570   1.746   2.217   0.834 -0.4503 -0.4138  0.7821
   38MOL    C57 4571   1.871   2.256   0.757 -0.0703  0.1080 -0.7364
   38MOL    H58 4572   1.762   2.237   0.940  0.5087  1.9621  0.2085
   38MOL    H59 4573   1.744   2.109   0.818 -0.0852 -0.0393 -2.0431
   38MOL    H60 4574   1.863   2.211   0.658 -0.4005 -1.2326 -0.1063
   38MOL    H61 4575   1.878   2.365   0.754  2.1239  0.1196  2.4323
   38MOL    C62 4576   2.006   2.220   0.828  0.9598 -0.2983 -0.0541
   38MOL    C63 4577   2.133   2.256   0.756 -0.8048  0.7101  0.1887
   38MOL    H64 4578   2.017   2.260   0.929  1.4699 -1.1736  0.2375
   38MOL    H65 4579   2.002   2.111   0.836 -0.4437 -0.3326 -1.0030
   38MOL    H66 4580   2.119   2.241   0.649  1.2606  2.4802 -0.3607
   38MOL    H67 4581   2.147   2.364   0.755 -1.2726  0.7701 -0.4663
   38MOL    C68 4582   2.252   2.171   0.802  0.0012 -0.0362  0.3166
   38MOL    C69 4583   2.375   2.226   0.728  0.3343 -0.3031  0.1891
   38MOL    H70 4584   2.266   2.172   0.910  0.8791  1.4633  0.1958
   38MOL    H71 4585   2.237   2.065   0.782  0.2716 -0.6569  3.2086
   38MOL    H72 4586   2.357   2.202   0.623 -0.5294 -1.5519  0.5999
   38MOL    H73 4587   2.402   2.331   0.739 -2.1608  0.2027  1.6948
   38MOL    C74 4588   2.502   2.142   0.754  0.4636  0.2982 -0.1001
   38MOL    C75 4589   2.633   2.198   0.688 -0.1179 -0.1394 -0.0424
   38MOL    H76 4590   2.514   2.136   0.862 -2.6625  0.3799  0.2876
   38MOL    H77 4591   2.499   2.041   0.713  0.7289  0.0712  0.4434
   38MOL    H78 4592   2.605   2.220   0.585 -0.2936 -1.8585 -0.3827
   38MOL    H79 4593   2.660   2.293   0.735  0.0047  0.0862 -0.5686
   38MOL    C80 4594   2.748   2.102   0.686 -0.2367  1.0720 -0.2050
   38MOL    C81 4595   2.874   2.153   0.615 -0.7731  0.1675  0.4511
   38MOL    H82 4596   2.776   2.073   0.787  0.7238  2.0843 -0.1700
   38MOL    H83 4597   2.730   2.005   0.641 -0.1522  0.7445  0.4643
   38MOL    H84 4598   2.855   2.172   0.510 -0.1512 -1.9548 -0.0563
   38MOL    H85 4599   2.896   2.254   0.651 -0.2963 -0.1084  0.9408
   38MOL    C86 4600   2.996   2.069   0.630  0.4356  0.7749  0.1901
   38MOL    C87 4601   3.131   2.122   0.566 -0.2191  0.5592 -0.0968
   38MOL    H88 4602   3.004   2.062   0.739 -0.2962 -1.3629  0.1399
   38MOL    H89 4603   2.968   1.968   0.599 -0.3509  0.4032  2.0027
   38MOL    H90 4604   3.112   2.141   0.460 -0.6704 -3.5142 -0.8481
   38MOL    H91 4605   3.170   2.212   0.613  1.9431 -1.0971  1.3730
   38MOL    C92 4606   3.242   2.016   0.577  0.1789  0.2013 -0.3769
   38MOL    C93 4607   3.377   2.064   0.526 -0.8937  0.0620 -0.2940
   38MOL    H94 4608   3.248   1.991   0.683 -0.9498  3.0448  0.4096
   38MOL    H95 4609   3.203   1.927   0.527  0.3291 -0.0440 -0.0577
   38MOL    H96 4610   3.375   2.114   0.429 -1.4713  1.8938  0.6376
   38MOL    H97 4611   3.407   2.136   0.602 -3.2487  0.6464  0.1024
   38MOL    C98 4612   3.483   1.951   0.517 -0.6089 -0.1784  0.0172
   38MOL    C99 4613   3.615   2.017   0.469  0.4930  0.2451 -0.0159
   38MOL   H100 4614   3.481   1.892   0.608 -0.4157 -0.8307 -0.3972
   38MOL   H101 4615   3.456   1.881   0.438  2.5029 -1.0035 -0.3797
   38MOL   H102 4616   3.597   2.084   0.385  0.2507 -1.2724 -1.1822
   38MOL   H103 4617   3.643   2.078   0.555  1.2068 -1.1675  0.7688
   38MOL   C104 4618   3.727   1.916   0.434  0.5479 -0.5004  0.7235
   38MOL   C105 4619   3.847   1.991   0.390  0.0376  0.0032 -0.4418
   38MOL   H106 4620   3.755   1.854   0.519  4.2182 -0.0404 -0.0703
   38MOL   H107 4621   3.692   1.840   0.364 -1.5948  0.0535  1.1392
   38MOL   H108 4622   3.820   2.039   0.295 -0.6746 -0.4570 -0.4671
   38MOL   H109 4623   3.870   2.080   0.449  1.2871  0.2462 -1.2654
   38MOL   C110 4624   3.974   1.902   0.366 -0.5933 -0.0291 -0.4170
   38MOL   C111 4625   4.082   1.953   0.274 -0.7686  0.5156  0.0957
   38MOL   H112 4626   4.029   1.892   0.459 -1.5247 -0.2401  0.1112
   38MOL   H113 4627   3.941   1.803   0.333 -0.2454 -0.2720 -0.0340
   38MOL   H114 4628   4.055   1.941   0.169  0.5635 -0.6986 -0.1280
   38MOL   H115 4629   4.091   2.060   0.287 -0.6615  0.6821 -1.2377
   38MOL   C116 4630   4.218   1.884   0.294  0.6540  0.0896 -0.2880
   38MOL   C117 4631   4.326   1.935   0.195  0.7724 -0.4233  0.1247
   38MOL   H118 4632   4.243   1.883   0.400 -0.4973 -0.1176 -0.0100
   38MOL   H119 4633   4.208   1.776   0.279 -1.6965 -0.1648  2.6175
   38MOL   H120 4634   4.288   1.931   0.093  2.1290  1.2256 -0.4741
   38MOL   H121 4635   4.353   2.035   0.227  0.7400 -1.0858  2.2842
   38MOL   H122 4636   4.408   1.863   0.200  0.8877 -0.2033  1.5399
   39MOL     C1 4637   6.915   1.449   0.429  0.0807 -0.1330 -1.0213
   39MOL     C2 4638   6.931   1.406   0.576 -0.4743  0.5182 -0.4552
   39MOL     H3 4639   6.809   1.434   0.409 -0.5203  0.1517  1.7064
   39MOL     H4 4640   6.979   1.391   0.363  0.1100 -1.2431 -0.0371
   39MOL     H5 4641   7.025   1.451   0.608 -0.0891  0.2132 -1.1364
   39MOL     H6 4642   6.856   1.448   0.643 -0.1344  1.3199 -0.5635
   39MOL     H7 4643   6.940   1.555   0.432 -2.4279  0.4897 -1.7953
   39MOL     C8 4644   6.939   1.256   0.585 -0.4515  0.5700  0.2813
   39MOL     C9 4645   6.983   1.203   0.725 -0.0450 -0.6277 -0.4988
   39MOL    H10 4646   6.834   1.229   0.569 -1.5141  4.2257  0.6778
   39MOL    H11 4647   7.005   1.198   0.520 -1.2225 -0.3978  0.3481
   39MOL    H12 4648   7.082   1.241   0.750  0.0954 -1.3390  0.0522
   39MOL    H13 4649   6.933   1.246   0.812  2.2784 -0.0752  0.6340
   39MOL    C14 4650   6.976   1.052   0.736 -0.2261 -0.1261 -0.3064
   39MOL    C15 4651   7.007   1.013   0.876  0.0199 -0.1212 -0.1112
   39MOL    H16 4652   6.872   1.028   0.713  0.9373 -3.0973 -2.8590
   39MOL    H17 4653   7.044   1.004   0.666  1.4527  0.6245  0.8050
   39MOL    H18 4654   7.097   1.067   0.905  1.3870 -1.2421 -2.0805
   39MOL    H19 4655   6.926   1.056   0.934  0.2296  0.5043 -0.2836
   39MOL    C20 4656   7.017   0.856   0.885 -0.5039 -0.2368  0.6355
   39MOL    C21 4657   7.016   0.814   1.034 -0.0702  0.1077 -0.7010
   39MOL    H22 4658   6.932   0.805   0.839 -0.1310  0.3968 -0.7821
   39MOL    H23 4659   7.102   0.813   0.833 -0.6828  0.6361 -0.3958
   39MOL    H24 4660   7.083   0.880   1.090  1.9122 -1.1437 -1.5426
   39MOL    H25 4661   6.925   0.839   1.089  0.7619  1.4244  0.1276
   39MOL    C26 4662   7.063   0.676   1.069 -1.2063  0.1383 -0.3833
   39MOL    C27 4663   7.050   0.636   1.222  0.3257  0.5467  0.3384
   39MOL    H28 4664   6.997   0.612   1.010 -1.8564  1.1705 -0.7959
   39MOL    H29 4665   7.162   0.655   1.030 -0.9696  1.5331 -0.5335
   39MOL    H30 4666   7.114   0.699   1.283 -1.4526  2.4092  0.3154
   39MOL    H31 4667   6.948   0.663   1.247 -0.0365 -0.0948 -0.4014
   39MOL    C32 4668   7.072   0.493   1.255 -0.5313 -0.1147 -0.4152
   39MOL    C33 4669   7.051   0.474   1.414 -0.3850 -0.7841  0.2642
   39MOL    H34 4670   6.995   0.435   1.204 -0.5066 -0.0443 -0.5318
   39MOL    H35 4671   7.174   0.474   1.221 -0.0779  0.8811  0.3753
   39MOL    H36 4672   7.096   0.555   1.472 -0.6750 -1.6988  1.7706
   39MOL    H37 4673   6.944   0.473   1.433 -0.1663 -4.5423  1.5890
   39MOL    C38 4674   7.104   0.339   1.464  0.2748  0.3973  0.4532
   39MOL    C39 4675   7.259   0.321   1.460  0.5469 -0.2615 -0.3258
   39MOL    H40 4676   7.073   0.327   1.568 -0.0945 -1.2362  0.1653
   39MOL    H41 4677   7.052   0.265   1.404 -0.7383  1.2200  0.2907
   39MOL    H42 4678   7.292   0.233   1.515  0.9268  1.7261  2.7293
   39MOL    H43 4679   7.305   0.310   1.361  1.2099  0.9957 -0.1710
   39MOL    C44 4680   7.330   0.443   1.505 -0.4683  0.0562 -0.1495
   39MOL    C45 4681   7.480   0.430   1.518  0.5769  0.0078  0.0575
   39MOL    H46 4682   7.317   0.521   1.429 -0.1863 -0.0116 -0.2675
   39MOL    H47 4683   7.279   0.482   1.593 -1.6304  3.3238 -2.1912
   39MOL    H48 4684   7.510   0.366   1.435 -0.4557 -2.1780  1.3199
   39MOL    H49 4685   7.537   0.522   1.503  0.9026 -0.4346 -1.4476
   39MOL    C50 4686   7.524   0.354   1.641  0.2795  0.1290  0.2355
   39MOL    C51 4687   7.664   0.289   1.626 -0.7838  0.2034  0.4488
   39MOL    H52 4688   7.526   0.423   1.726 -0.4067 -2.0079  2.0169
   39MOL    H53 4689   7.450   0.277   1.660  0.1885  0.0938 -0.2787
   39MOL    H54 4690   7.672   0.221   1.541 -1.2406  0.3208  0.3075
   39MOL    H55 4691   0.049   0.361   1.599  0.6251 -1.3085  0.3484
   39MOL    C56 4692   0.007   0.218   1.755  0.4434 -0.2308 -0.1411
   39MOL    C57 4693   0.147   0.152   1.744 -0.3671 -0.1257  0.0530
   39MOL    H58 4694   0.011   0.269   1.851 -2.8572  1.2535 -0.7305
   39MOL    H59 4695   7.636   0.131   1.774 -0.1385  0.2774  0.2921
   39MOL    H60 4696   0.139   0.066   1.677  2.4685  0.5873 -1.2772
   39MOL    H61 4697   0.214   0.224   1.697  0.7616 -0.3666  1.2460
   39MOL    C62 4698   0.202   0.101   1.881  0.0974 -0.9889 -0.3288
   39MOL    C63 4699   0.362   0.086   1.888  0.2063  0.0569  0.0932
   39MOL    H64 4700   0.181   0.168   1.964 -1.9511 -1.1040 -0.7260
   39MOL    H65 4701   0.149   0.009   1.905 -0.7362  0.4016  3.4608
   39MOL    H66 4702   0.384   7.690   1.827  3.3757  0.8249  0.0812
   39MOL    H67 4703   0.402   0.175   1.839  1.5238 -1.1607 -1.0993
   39MOL    C68 4704   0.428   0.068   2.021 -0.5943 -0.2124  0.3849
   39MOL    C69 4705   0.585   0.042   2.014 -0.0164 -1.1044 -0.2522
   39MOL    H70 4706   0.427   0.163   2.075 -0.1296 -0.5008  0.9032
   39MOL    H71 4707   0.374   7.685   2.079 -0.2023 -1.1891 -0.5058
   39MOL    H72 4708   0.594   7.634   1.971 -2.1538 -0.8442 -1.4152
   39MOL    H73 4709   0.638   0.110   1.948  0.6852 -0.7310  0.6942
   39MOL    C74 4710   0.646   0.042   2.158 -0.7784 -0.7121 -0.2551
   39MOL    C75 4711   0.776   7.654   2.177  0.2142  0.8574 -0.1983
   39MOL    H76 4712   0.655   0.146   2.190  0.7365 -0.5413 -1.2085
   39MOL    H77 4713   0.567   7.692   2.221 -1.3951  0.1485 -0.4331
   39MOL    H78 4714   0.773   7.550   2.147 -1.9831  0.3271  1.7283
   39MOL    H79 4715   0.861   0.004   2.123  1.2697 -0.0909  0.7003
   39MOL    C80 4716   0.815   7.655   2.322 -0.3886  0.2239  0.2983
   39MOL    C81 4717   0.942   7.577   2.342 -0.2811  0.0679  0.2382
   39MOL    H82 4718   0.822   0.062   2.368 -1.5820  0.8766 -0.8708
   39MOL    H83 4719   0.736   7.621   2.389  2.3770  0.1608  3.6875
   39MOL    H84 4720   0.920   7.473   2.320 -2.9989  0.2904  1.7619
   39MOL    H85 4721   1.023   7.614   2.278 -1.1067  0.7602 -0.4227
   39MOL    C86 4722   0.989   7.582   2.486 -0.4068 -0.0955 -0.7130
   39MOL    C87 4723   1.123   7.517   2.502 -0.6007 -0.0889  0.1623
   39MOL    H88 4724   0.994   7.684   2.525 -2.2983 -0.0187 -0.6280
   39MOL    H89 4725   0.916   7.535   2.552 -0.4599 -1.2814 -1.6010
   39MOL    H90 4726   1.118   7.412   2.473  0.1305 -1.2376  3.9458
   39MOL    H91 4727   1.192   7.561   2.430  0.8191 -3.7995 -0.8420
   39MOL    C92 4728   1.193   7.521   2.647  0.5734  0.1071  0.0207
   39MOL    C93 4729   1.329   7.449   2.650  0.0891 -0.3222 -0.0747
   39MOL    H94 4730   1.201   7.614   2.702  1.2650 -0.9483  1.7239
   39MOL    H95 4731   1.125   7.465   2.710  0.6922 -0.7084 -0.5668
   39MOL    H96 4732   1.304   7.346   2.621  1.1987 -0.2530 -1.3328
   39MOL    H97 4733   1.382   7.489   2.564 -0.3959  2.2169  0.7625
   39MOL    C98 4734   1.415   7.474   2.774 -0.3493 -0.1130  0.7995
   39MOL    C99 4735   1.541   7.387   2.777 -0.5102  0.0102  0.4631
   39MOL   H100 4736   1.452   7.577   2.778  0.1117 -0.2977  1.3266
   39MOL   H101 4737   1.351   7.450   2.859 -1.7071 -2.2099 -0.7860
   39MOL   H102 4738   1.518   7.286   2.808 -3.0947  0.8775  1.5136
   39MOL   H103 4739   1.590   7.373   2.680  0.1713 -0.0934  0.8196
   39MOL   C104 4740   1.646   7.446   2.863 -0.6330  0.4305 -0.4307
   39MOL   C105 4741   1.622   7.410   3.012  0.3171  0.3121  0.4841
   39MOL   H106 4742   1.744   7.413   2.829 -1.4991 -2.2045 -0.4950
   39MOL   H107 4743   1.653   7.554   2.850  2.0641  0.5661  1.4727
   39MOL   H108 4744   1.520   7.383   3.038  0.2987  1.5010  1.7141
   39MOL   H109 4745   1.673   7.316   3.032  0.3861 -0.0234 -1.2009
   39MOL   C110 4746   1.671   7.506   3.126 -0.1697  0.5852  0.0770
   39MOL   C111 4747   1.688   7.457   3.268 -0.3950  0.1413  0.1916
   39MOL   H112 4748   1.761   7.555   3.088 -1.1370  1.6228 -0.9264
   39MOL   H113 4749   1.596   7.584   3.126 -1.1231 -0.3198  0.3425
   39MOL   H114 4750   1.598   7.419   3.318 -0.3319  0.7294  0.7584
   39MOL   H115 4751   1.759   7.376   3.255  1.9117  1.9734  1.1064
   39MOL   C116 4752   1.754   7.555   3.364 -0.0784  0.4158  0.4802
   39MOL   C117 4753   1.903   7.594   3.335  0.3283  0.2445  0.2777
   39MOL   H118 4754   1.695   7.647   3.366 -0.3817  0.2201  0.4988
   39MOL   H119 4755   1.743   7.516   3.465 -1.3289 -3.6686 -1.1558
   39MOL   H120 4756   1.960   7.501   3.340 -0.2494 -0.2247 -1.3676
   39MOL   H121 4757   1.914   7.631   3.233 -0.3551  0.1962  0.1879
   39MOL   H122 4758   1.939   7.665   3.409  2.2068  0.3870 -0.7357
   40MOL     C1 4759   2.516   6.366   0.373  0.2285 -0.0124 -0.8590
   40MOL     C2 4760   2.640   6.453   0.342 -0.0020  0.2924 -0.0071
   40MOL     H3 4761   2.464   6.404   0.461  1.4612 -0.4273  0.0655
   40MOL     H4 4762   2.545   6.262   0.388  0.4243 -0.0932 -1.7526
   40MOL     H5 4763   2.603   6.541   0.291  0.7257  0.7239  0.2058
   40MOL     H6 4764   2.683   6.496   0.433 -1.4938  0.4656  0.6233
   40MOL     H7 4765   2.440   6.368   0.295  0.2715 -0.8046 -0.9171
   40MOL     C8 4766   2.738   6.385   0.244  0.2466  0.4328 -0.9115
   40MOL     C9 4767   2.820   6.265   0.301  0.6513 -0.3181 -0.3216
   40MOL    H10 4768   2.676   6.351   0.161 -2.0526  0.9422  0.5420
   40MOL    H11 4769   2.824   6.440   0.205  0.4710  0.0119 -1.0123
   40MOL    H12 4770   2.747   6.191   0.335  1.3928 -0.4810  0.9457
   40MOL    H13 4771   2.868   6.211   0.220 -0.1569  0.5865 -1.4354
   40MOL    C14 4772   2.901   6.298   0.417 -0.3463  0.7125  0.4207
   40MOL    C15 4773   2.983   6.171   0.455  0.7998  0.1695  1.5394
   40MOL    H16 4774   2.971   6.379   0.397  2.1148 -1.4622 -0.0737
   40MOL    H17 4775   2.840   6.323   0.504  0.3097  2.5195  0.3853
   40MOL    H18 4776   2.928   6.082   0.484 -1.7992  1.9753  2.2421
   40MOL    H19 4777   3.038   6.125   0.372 -1.2844  0.9524 -0.3270
   40MOL    C20 4778   3.067   6.201   0.574  0.9318 -0.2834 -0.3683
   40MOL    C21 4779   3.136   6.072   0.627  0.6680  0.2751  0.0218
   40MOL    H22 4780   3.141   6.277   0.548 -0.4551  1.1658 -0.1600
   40MOL    H23 4781   3.007   6.242   0.656  2.6046 -1.0740  1.2785
   40MOL    H24 4782   3.062   6.001   0.664 -0.0912  1.0365 -0.0151
   40MOL    H25 4783   3.182   6.015   0.546 -0.8296 -0.4530 -0.3438
   40MOL    C26 4784   3.235   6.089   0.747  0.1166  0.0683  0.4189
   40MOL    C27 4785   3.306   5.960   0.784  0.0602 -0.5124  0.4825
   40MOL    H28 4786   3.311   6.164   0.723 -1.6521  1.8786  0.3625
   40MOL    H29 4787   3.189   6.126   0.838  1.8068  2.7967  0.2219
   40MOL    H30 4788   3.233   5.880   0.787 -1.1294  0.5555  0.3707
   40MOL    H31 4789   3.373   5.940   0.700 -0.9531 -2.0635  0.0166
   40MOL    C32 4790   3.372   5.963   0.920 -0.3161  0.1987  0.4775
   40MOL    C33 4791   3.434   5.823   0.941 -0.4281 -0.5966 -0.3086
   40MOL    H34 4792   3.455   6.034   0.918  0.3300 -0.5214  1.4716
   40MOL    H35 4793   3.307   6.001   0.998  0.1634  0.3793  0.7871
   40MOL    H36 4794   3.348   5.756   0.942 -1.9920  1.3663 -1.0419
   40MOL    H37 4795   3.498   5.794   0.858 -1.5165 -0.8391 -1.0806
   40MOL    C38 4796   3.513   5.808   1.067 -0.4042  0.7109 -0.1904
   40MOL    C39 4797   3.580   5.676   1.090 -0.1214 -0.3841 -0.7044
   40MOL    H40 4798   3.594   5.877   1.047  1.7800 -1.7790 -0.2399
   40MOL    H41 4799   3.461   5.823   1.162  0.2895 -1.4580  0.5719
   40MOL    H42 4800   3.503   5.600   1.094  0.5382 -1.1001 -1.5245
   40MOL    H43 4801   3.629   5.650   0.997  0.9657  0.9335 -0.5306
   40MOL    C44 4802   3.679   5.667   1.203  0.5025 -0.0738 -0.7297
   40MOL    C45 4803   3.755   5.543   1.228 -0.1183  0.1467 -0.6299
   40MOL    H46 4804   3.757   5.736   1.172  0.3708  0.7457  0.7065
   40MOL    H47 4805   3.645   5.715   1.295 -1.5372 -0.2789 -1.3415
   40MOL    H48 4806   3.693   5.472   1.283 -0.1097  0.0038 -0.8023
   40MOL    H49 4807   3.774   5.484   1.138  3.4022  0.1303  0.0460
   40MOL    C50 4808   3.879   5.560   1.322  0.3335  0.2604  0.0845
   40MOL    C51 4809   3.993   5.645   1.264  0.4533  0.4276  0.0582
   40MOL    H52 4810   3.838   5.598   1.416 -2.1632 -0.1884 -0.7652
   40MOL    H53 4811   3.924   5.464   1.344  0.0835 -0.5251 -2.7220
   40MOL    H54 4812   4.038   5.588   1.182  2.5317 -0.1127  1.5471
   40MOL    H55 4813   3.958   5.735   1.213  0.5905  0.4961  0.0834
   40MOL    C56 4814   4.099   5.687   1.368  0.0268  0.2119 -0.8655
   40MOL    C57 4815   4.189   5.802   1.319  1.0995 -0.2255  0.0537
   40MOL    H58 4816   4.049   5.731   1.454  1.3783 -1.2329  0.6873
   40MOL    H59 4817   4.161   5.605   1.405  0.6987  0.8460 -0.5584
   40MOL    H60 4818   4.240   5.786   1.224 -0.0770  0.0860 -0.6387
   40MOL    H61 4819   4.126   5.887   1.294 -0.7227 -1.5619 -0.0674
   40MOL    C62 4820   4.293   5.846   1.426  0.3483  0.9744  0.0282
   40MOL    C63 4821   4.341   5.991   1.400 -0.4711 -0.5441  0.0785
   40MOL    H64 4822   4.255   5.841   1.528  0.6867  3.3821  0.3106
   40MOL    H65 4823   4.375   5.776   1.444 -0.9233 -0.5733 -0.1166
   40MOL    H66 4824   4.256   6.060   1.401  0.3237  0.4659  1.6358
   40MOL    H67 4825   4.402   6.020   1.486 -0.5560  0.5960 -0.2302
   40MOL    C68 4826   4.434   6.002   1.274  0.1235 -0.1855  0.1128
   40MOL    C69 4827   4.528   6.123   1.295  0.5123  0.1442 -0.0181
   40MOL    H70 4828   4.502   5.916   1.269  1.0393  0.4588  1.2231
   40MOL    H71 4829   4.381   6.013   1.179 -1.5702 -1.0002  0.9443
   40MOL    H72 4830   4.571   6.118   1.395 -0.6554  2.1617  0.6175
   40MOL    H73 4831   4.607   6.107   1.222  2.6569  0.5770  2.1446
   40MOL    C74 4832   4.462   6.256   1.260  0.0047 -0.1015 -0.4989
   40MOL    C75 4833   4.571   6.372   1.245  0.2936 -0.2916 -0.0299
   40MOL    H76 4834   4.410   6.249   1.164  0.2049 -0.3569 -0.5890
   40MOL    H77 4835   4.387   6.275   1.337 -0.1154 -0.6557 -0.4779
   40MOL    H78 4836   4.636   6.362   1.332  0.3373 -0.8651 -0.1271
   40MOL    H79 4837   4.633   6.351   1.158 -1.2171  0.8672 -1.4222
   40MOL    C80 4838   4.520   6.514   1.225  0.3526 -0.3795  0.0019
   40MOL    C81 4839   4.477   6.566   1.366 -0.0884  0.3624 -0.8690
   40MOL    H82 4840   4.599   6.583   1.195  1.7515 -1.7164  0.4872
   40MOL    H83 4841   4.441   6.510   1.150  0.0949  0.5381  0.2231
   40MOL    H84 4842   4.397   6.498   1.397  1.3244 -1.5226 -1.2719
   40MOL    H85 4843   4.563   6.560   1.433 -0.2668  0.6442 -0.6113
   40MOL    C86 4844   4.418   6.707   1.368 -0.1192  0.6298 -0.2262
   40MOL    C87 4845   4.423   6.781   1.500 -0.0717  0.0060 -0.2134
   40MOL    H88 4846   4.470   6.768   1.294 -1.3421  1.6114 -0.2994
   40MOL    H89 4847   4.316   6.698   1.331  0.3523  0.2809 -1.4665
   40MOL    H90 4848   4.523   6.782   1.543  0.3699 -1.0823 -1.1927
   40MOL    H91 4849   4.405   6.887   1.485  3.6599  0.4203 -2.2594
   40MOL    C92 4850   4.323   6.715   1.600  0.4317 -0.4217 -0.0690
   40MOL    C93 4851   4.324   6.791   1.729 -0.6876 -0.9102 -0.5187
   40MOL    H94 4852   4.220   6.712   1.563  0.8800 -1.4172 -1.2588
   40MOL    H95 4853   4.336   6.610   1.625 -1.4321 -0.9177 -1.1050
   40MOL    H96 4854   4.418   6.828   1.770 -0.6212 -0.3052 -1.2079
   40MOL    H97 4855   4.282   6.889   1.707 -0.1059 -0.3458  0.8137
   40MOL    C98 4856   4.251   6.723   1.839 -0.5426 -0.4158 -0.7840
   40MOL    C99 4857   4.224   6.821   1.955 -0.6249 -0.3819 -0.4475
   40MOL   H100 4858   4.166   6.673   1.794  0.6406 -2.5386 -0.7424
   40MOL   H101 4859   4.324   6.648   1.871 -0.9916  0.2992  2.0191
   40MOL   H102 4860   4.177   6.763   2.035  1.1514 -1.9772 -0.5609
   40MOL   H103 4861   4.315   6.857   2.003 -1.9062  1.2297  0.8659
   40MOL   C104 4862   4.130   6.940   1.918 -0.4743  0.2734 -0.5842
   40MOL   C105 4863   4.109   7.012   2.056 -0.0033 -0.3448  0.6675
   40MOL   H106 4864   4.177   7.018   1.858  0.1874 -0.4913 -1.0642
   40MOL   H107 4865   4.036   6.908   1.872 -1.2051  0.5316  0.6927
   40MOL   H108 4866   4.063   6.956   2.137 -1.3320  0.9603  0.8490
   40MOL   H109 4867   4.207   7.051   2.086 -0.2074  0.0119  0.8798
   40MOL   C110 4868   4.023   7.138   2.038  0.5302 -0.9429 -0.4545
   40MOL   C111 4869   4.012   7.234   2.161  0.3515  0.2074  0.8636
   40MOL   H112 4870   4.052   7.195   1.950 -1.3990  0.0449 -0.4741
   40MOL   H113 4871   3.921   7.104   2.021  0.2351 -0.6566  0.7524
   40MOL   H114 4872   3.952   7.191   2.242  1.2959 -1.3087  0.8034
   40MOL   H115 4873   4.112   7.257   2.199  1.8170 -3.8390 -0.1875
   40MOL   C116 4874   3.937   7.359   2.111  0.0784 -0.7660  0.4730
   40MOL   C117 4875   3.904   7.462   2.221  0.3761 -0.1931  0.0765
   40MOL   H118 4876   3.987   7.412   2.030 -0.9675 -0.7131 -0.1459
   40MOL   H119 4877   3.840   7.325   2.074 -0.0939  0.9936 -0.7661
   40MOL   H120 4878   3.850   7.545   2.174 -2.4523 -1.9623  0.1235
   40MOL   H121 4879   3.839   7.418   2.297 -0.2214  0.6114  0.0385
   40MOL   H122 4880   3.990   7.511   2.266  0.1969  1.6256 -1.4858
   41MOL     C1 4881   4.512   7.107   1.759 -0.5276  0.1035 -0.5313
   41MOL     C2 4882   4.497   7.252   1.809  0.3597  0.4130 -0.7323
   41MOL     H3 4883   4.616   7.081   1.740  0.1180  1.1459  1.3495
   41MOL     H4 4884   4.460   7.093   1.665  0.3470  1.3918 -1.2301
   41MOL     H5 4885   4.391   7.269   1.825  0.4639 -0.5414  1.1610
   41MOL     H6 4886   4.538   7.253   1.910 -2.5962  0.3000  0.5185
   41MOL     H7 4887   4.473   7.049   1.843 -2.1226  2.9286  0.7482
   41MOL     C8 4888   4.541   7.357   1.715  0.1610 -0.1869  0.5926
   41MOL     C9 4889   4.585   7.486   1.781 -0.0059 -0.3907 -0.8772
   41MOL    H10 4890   4.624   7.317   1.656  0.4235  0.4528  0.5270
   41MOL    H11 4891   4.464   7.389   1.646  0.4369  0.7937  0.7316
   41MOL    H12 4892   4.498   7.535   1.826  0.8377 -0.0454  0.4256
   41MOL    H13 4893   4.654   7.466   1.863  0.4629 -0.5909 -1.3227
   41MOL    C14 4894   4.657   7.579   1.682  0.2417 -0.1936 -0.2832
   41MOL    C15 4895   4.679   0.029   1.737 -0.0391 -0.0027  0.0945
   41MOL    H16 4896   4.756   7.536   1.667  1.1744  1.5765  0.5455
   41MOL    H17 4897   4.622   7.581   1.579  0.5414 -0.2147 -0.3882
   41MOL    H18 4898   4.582   0.078   1.726  0.6286  0.7693 -2.8897
   41MOL    H19 4899   4.690   0.037   1.845 -0.4564  0.0884  0.1308
   41MOL    C20 4900   4.769   0.120   1.645  0.3315 -0.2976 -0.3308
   41MOL    C21 4901   4.913   0.070   1.651  0.1626 -0.3362 -0.2399
   41MOL    H22 4902   4.729   0.127   1.543  0.8594  2.8940 -0.3697
   41MOL    H23 4903   4.768   0.225   1.676 -0.9596 -0.2220 -0.6064
   41MOL    H24 4904   4.958   0.103   1.745 -2.4117  1.7618  0.3131
   41MOL    H25 4905   4.926   7.654   1.656  1.3781 -0.2878 -1.7117
   41MOL    C26 4906   4.999   0.126   1.538 -0.6744 -0.1213  0.0734
   41MOL    C27 4907   5.141   0.093   1.565  0.3827 -1.4823  0.2911
   41MOL    H28 4908   4.963   0.084   1.444 -0.4660 -0.1675  0.0133
   41MOL    H29 4909   4.973   0.232   1.543  0.3197  0.0984  0.6519
   41MOL    H30 4910   5.205   0.163   1.511  0.1458 -1.3770  0.1450
   41MOL    H31 4911   5.166   0.105   1.670 -0.1550  2.1035  0.0873
   41MOL    C32 4912   5.160   7.644   1.520  0.1491  0.6407  0.5724
   41MOL    C33 4913   5.311   7.607   1.547 -0.1373  0.6025  0.4823
   41MOL    H34 4914   5.100   7.578   1.583  1.6289 -1.8408 -0.5379
   41MOL    H35 4915   5.137   7.622   1.416  2.1533 -1.1439  0.4714
   41MOL    H36 4916   5.327   7.507   1.506  1.4373  0.7134  0.8001
   41MOL    H37 4917   5.375   7.681   1.499 -0.0956  0.0882 -0.2656
   41MOL    C38 4918   5.352   7.613   1.698 -0.5825  0.4643 -0.1296
   41MOL    C39 4919   5.486   7.539   1.713 -0.0449 -0.0888 -0.0651
   41MOL    H40 4920   5.366   0.026   1.725 -0.1746  0.2326  0.5811
   41MOL    H41 4921   5.274   7.569   1.759  1.3213  0.2054  2.1890
   41MOL    H42 4922   5.477   7.432   1.696  0.7516 -0.7052  3.1131
   41MOL    H43 4923   5.555   7.578   1.638  0.2509  2.4893  1.4784
   41MOL    C44 4924   5.550   7.570   1.851  0.3622 -0.1203  0.4494
   41MOL    C45 4925   5.703   7.544   1.848 -0.5377 -0.3828 -0.1562
   41MOL    H46 4926   5.533   7.669   1.895 -0.3345 -0.3999  0.8152
   41MOL    H47 4927   5.504   7.509   1.928 -0.3755  0.3290  0.3754
   41MOL    H48 4928   5.728   7.475   1.767 -0.6855 -0.0011 -0.5308
   41MOL    H49 4929   5.756   7.638   1.829  2.6632 -2.0762 -0.0021
   41MOL    C50 4930   5.767   7.506   1.979  0.1149 -0.4778 -0.6052
   41MOL    C51 4931   5.739   7.594   2.099  0.2069  0.0101 -0.1072
   41MOL    H52 4932   5.720   7.412   2.007  1.9504 -1.0625  0.5892
   41MOL    H53 4933   5.875   7.497   1.966  0.3581 -0.9315  1.5945
   41MOL    H54 4934   5.757   0.007   2.074 -1.4763  0.6759  1.3352
   41MOL    H55 4935   5.634   7.575   2.124  0.5367 -2.2428 -0.3535
   41MOL    C56 4936   5.810   7.555   2.226  0.0652  0.0773  0.1663
   41MOL    C57 4937   5.760   7.634   2.341 -0.0840 -0.4085  0.4500
   41MOL    H58 4938   5.805   7.450   2.256 -1.0460  0.2563  0.6435
   41MOL    H59 4939   5.918   7.564   2.213  1.1029 -3.8627  4.4203
   41MOL    H60 4940   5.738   0.046   2.314 -0.5623 -0.5249  0.3810
   41MOL    H61 4941   5.669   7.591   2.383  0.8887 -1.2539  1.7339
   41MOL    C62 4942   5.868   7.645   2.461  0.4263  0.8330 -0.6084
   41MOL    C63 4943   5.838   0.065   2.561  0.0632 -0.0559 -0.0059
   41MOL    H64 4944   5.865   7.559   2.528 -1.6378  1.4731  0.1746
   41MOL    H65 4945   5.965   7.667   2.416  1.1647  1.3250  1.1857
   41MOL    H66 4946   5.852   0.159   2.507  1.8135 -0.5986 -0.5552
   41MOL    H67 4947   5.736   0.063   2.597  0.8444 -1.6820  2.1906
   41MOL    C68 4948   5.938   0.064   2.680 -0.9513  0.5855 -0.5123
   41MOL    C69 4949   5.953   0.202   2.747  0.2150 -0.1096  0.4487
   41MOL    H70 4950   5.916   7.674   2.748 -0.6542  0.7573 -0.2109
   41MOL    H71 4951   6.033   0.028   2.640 -1.5992 -0.5604 -1.0427
   41MOL    H72 4952   5.995   0.276   2.679  1.5653 -1.2957 -0.0516
   41MOL    H73 4953   5.849   0.224   2.770 -0.2226 -0.9899 -0.6925
   41MOL    C74 4954   6.034   0.191   2.872 -0.7325 -0.2783  0.2539
   41MOL    C75 4955   6.001   0.307   2.967  1.0394 -0.4376  0.4321
   41MOL    H76 4956   6.002   0.105   2.931  0.0233 -1.2350 -0.7255
   41MOL    H77 4957   6.140   0.186   2.849 -1.2771  2.5450 -3.3212
   41MOL    H78 4958   6.015   0.405   2.921 -1.1258  0.4865  1.6856
   41MOL    H79 4959   5.894   0.305   2.989  0.4088 -1.0805 -2.4368
   41MOL    C80 4960   6.079   0.286   3.098 -0.3259  0.0436 -0.0166
   41MOL    C81 4961   6.057   0.382   3.214 -0.6826  0.0355 -0.3466
   41MOL    H82 4962   6.066   0.186   3.139  2.8560 -0.5946 -0.4056
   41MOL    H83 4963   6.186   0.282   3.075  0.2544 -2.0759  2.8742
   41MOL    H84 4964   6.074   0.486   3.186  1.2026 -0.2581 -0.3589
   41MOL    H85 4965   5.951   0.387   3.238 -1.0037  0.1593 -1.7283
   41MOL    C86 4966   6.134   0.342   3.339  0.0838  0.3363 -0.1340
   41MOL    C87 4967   6.112   0.425   3.463  0.1288 -0.3074 -0.1457
   41MOL    H88 4968   6.127   0.234   3.350  1.1018  0.1443 -1.2453
   41MOL    H89 4969   6.238   0.364   3.311  0.0748 -0.0300 -0.4498
   41MOL    H90 4970   6.197   0.423   3.532 -0.1559 -0.4025  0.2046
   41MOL    H91 4971   6.115   0.531   3.440  0.0681  0.1149  1.7229
   41MOL    C92 4972   5.984   0.396   3.540 -0.0874  0.5821  0.1737
   41MOL    C93 4973   5.956   0.492   3.652 -0.2395 -0.6744 -0.1697
   41MOL    H94 4974   5.892   0.388   3.483 -0.1580  2.5579 -0.0241
   41MOL    H95 4975   6.005   0.294   3.573 -2.6037 -0.3450 -0.9573
   41MOL    H96 4976   6.051   0.525   3.693  0.5420 -1.2837 -1.4689
   41MOL    H97 4977   5.897   0.571   3.604 -0.8623  0.9094  3.0481
   41MOL    C98 4978   5.878   0.428   3.769  0.4224 -0.0361  0.5065
   41MOL    C99 4979   5.836   0.535   3.868 -0.4948  0.4906 -0.3802
   41MOL   H100 4980   5.785   0.384   3.735  0.5434 -0.9080  1.2845
   41MOL   H101 4981   5.936   0.351   3.821 -1.2906 -0.2600  2.1244
   41MOL   H102 4982   5.927   0.556   3.925  0.1029 -2.2294 -0.2342
   41MOL   H103 4983   5.813   0.624   3.810  0.5517  1.5355  0.7708
   41MOL   C104 4984   5.722   0.497   3.965 -0.5199 -0.0508  0.2664
   41MOL   C105 4985   5.744   0.358   4.027 -0.6859  0.3011  0.3586
   41MOL   H106 4986   5.720   0.563   4.052  2.7085  1.5161 -0.7881
   41MOL   H107 4987   5.624   0.493   3.917 -0.5503  0.9928  0.2272
   41MOL   H108 4988   5.705   0.287   3.954 -0.1346  1.1706 -0.7999
   41MOL   H109 4989   5.840   0.340   4.075 -1.1131 -0.9803  0.7518
   41MOL   C110 4990   5.647   0.328   4.146  0.5842  0.0578  0.6874
   41MOL   C111 4991   5.493   0.314   4.122  0.1278  0.6461 -0.0948
   41MOL   H112 4992   5.685   0.243   4.203  2.5027 -1.7547 -3.0883
   41MOL   H113 4993   5.654   0.414   4.212 -0.6235 -0.5977  1.6845
   41MOL   H114 4994   5.466   0.398   4.058  0.0309 -0.0339 -0.9615
   41MOL   H115 4995   5.473   0.231   4.053  2.1608 -0.5151  0.6674
   41MOL   C116 4996   5.415   0.303   4.253 -0.1482  0.0286  0.3535
   41MOL   C117 4997   5.264   0.288   4.221 -0.5629 -1.1084 -0.6157
   41MOL   H118 4998   5.448   0.211   4.303  0.4283  0.7879  1.3848
   41MOL   H119 4999   5.432   0.390   4.316  0.5191  0.8924 -1.0080
   41MOL   H120 5000   5.247   0.360   4.141  0.5123 -1.0743 -0.8243
   41MOL   H121 5001   5.249   0.186   4.188 -1.1870 -1.8145  1.7259
   41MOL   H122 5002   5.206   0.322   4.307  2.0496  3.0434 -0.3450
   42MOL     C1 5003   2.218   2.613   7.410  0.7038  0.1710  0.1060
   42MOL     C2 5004   2.335   2.644   7.510 -0.2013 -0.0011 -0.5399
   42MOL     H3 5005   2.152   2.700   7.403 -1.4268 -1.5098 -1.0951
   42MOL     H4 5006   2.155   2.534   7.449  2.2915 -1.4054 -0.4843
   42MOL     H5 5007   2.308   2.681   7.609 -0.3427  0.9853 -0.9401
   42MOL     H6 5008   2.378   2.549   7.542 -0.0935  0.5866  1.1618
   42MOL     H7 5009   2.246   2.587   7.308  0.1986 -1.5070  0.3800
   42MOL     C8 5010   2.452   2.729   7.455  0.6276  0.1818  0.2742
   42MOL     C9 5011   2.575   2.746   7.532  0.0854 -0.0549 -0.7052
   42MOL    H10 5012   2.485   2.678   7.365  1.8621  0.3878  0.6021
   42MOL    H11 5013   2.402   2.823   7.430 -2.0198 -1.5586 -1.2225
   42MOL    H12 5014   2.624   2.649   7.533  0.5778  0.1780 -1.2941
   42MOL    H13 5015   2.643   2.802   7.467  0.5698 -1.9204 -1.8490
   42MOL    C14 5016   2.554   2.814   7.670  0.0173 -0.7476  0.3217
   42MOL    C15 5017   2.679   2.861   0.059  0.4445  0.1428 -0.2613
   42MOL    H16 5018   2.489   2.901   7.659  0.2855 -0.3724  1.6344
   42MOL    H17 5019   2.493   2.745   0.038  0.9890 -0.4474  1.6795
   42MOL    H18 5020   2.748   2.777   0.068  0.1483 -0.0669  0.0949
   42MOL    H19 5021   2.727   2.940   0.001  0.3073 -1.0631 -2.0715
   42MOL    C20 5022   2.646   2.911   0.200 -0.2827  0.4189  0.8620
   42MOL    C21 5023   2.774   2.928   0.295 -0.2873  0.4608  0.7863
   42MOL    H22 5024   2.590   3.003   0.186  0.5096  0.3994 -2.7477
   42MOL    H23 5025   2.575   2.844   0.250  0.7063 -0.7812  0.6642
   42MOL    H24 5026   2.822   2.830   0.295  1.2213  1.1641 -1.1559
   42MOL    H25 5027   2.840   3.002   0.250 -2.0396  1.2772 -0.5183
   42MOL    C26 5028   2.741   2.977   0.437 -0.5308  0.2414  0.7330
   42MOL    C27 5029   2.856   2.962   0.541 -0.1335  0.3373  1.3573
   42MOL    H28 5030   2.718   3.083   0.433  1.2517  0.6796  1.5633
   42MOL    H29 5031   2.666   2.910   0.479 -0.7792  0.8308  1.2255
   42MOL    H30 5032   2.898   2.862   0.529 -3.5111 -1.1526  1.3739
   42MOL    H31 5033   2.935   3.033   0.514 -0.0607 -1.3120 -3.1913
   42MOL    C32 5034   2.824   3.006   0.684  0.4868 -0.0391 -1.4202
   42MOL    C33 5035   2.950   3.019   0.769 -0.5619 -0.2434 -0.2591
   42MOL    H34 5036   2.761   3.095   0.694 -1.2200 -1.4504  1.2482
   42MOL    H35 5037   2.770   2.924   0.732 -0.0189  0.9234 -0.3230
   42MOL    H36 5038   3.017   2.942   0.730 -1.0611  0.0123 -1.6476
   42MOL    H37 5039   3.000   3.114   0.752 -0.0717 -0.4754 -0.1249
   42MOL    C38 5040   2.918   3.004   0.920 -0.3640  0.4801  0.1994
   42MOL    C39 5041   3.047   3.042   1.000 -0.2400  0.6573 -0.3482
   42MOL    H40 5042   2.843   3.080   0.944 -1.0168 -0.1338  0.1131
   42MOL    H41 5043   2.876   2.905   0.935  2.4731 -0.4485  2.6382
   42MOL    H42 5044   3.140   3.021   0.947  0.2336  1.8059  0.0114
   42MOL    H43 5045   3.040   3.150   1.007 -0.6927  0.5886  0.2710
   42MOL    C44 5046   3.043   2.996   1.142 -0.1004 -0.3776 -0.3777
   42MOL    C45 5047   3.078   2.852   1.138  0.0692 -0.9145  0.0078
   42MOL    H46 5048   3.119   3.046   1.202  0.6765 -0.5223 -1.2363
   42MOL    H47 5049   2.952   3.013   1.200  0.5692  1.7128  0.1025
   42MOL    H48 5050   3.005   2.794   1.082 -0.4148 -1.4622  1.1879
   42MOL    H49 5051   3.170   2.848   1.079  1.1072  0.2490  1.4940
   42MOL    C50 5052   3.106   2.794   1.282  0.5420 -0.4482 -0.4753
   42MOL    C51 5053   3.128   2.642   1.286  0.3179 -0.1575  0.6653
   42MOL    H52 5054   3.201   2.839   1.313 -0.3193  0.1744  1.3614
   42MOL    H53 5055   3.027   2.819   1.353 -0.2681  2.0672 -2.2036
   42MOL    H54 5056   3.038   2.586   1.259  1.7098 -2.1533  0.0018
   42MOL    H55 5057   3.207   2.606   1.219 -0.0029 -3.0355  1.7687
   42MOL    C56 5058   3.169   2.592   1.422  0.1603 -0.3042  0.4365
   42MOL    C57 5059   3.135   2.442   1.454 -0.1977  0.2668 -0.2808
   42MOL    H58 5060   3.270   2.616   1.454 -0.6476  0.1630  2.7272
   42MOL    H59 5061   3.105   2.650   1.489 -0.5597 -0.0275 -0.4781
   42MOL    H60 5062   3.116   2.427   1.561 -0.1513 -0.2774 -0.3523
   42MOL    H61 5063   3.039   2.424   1.406  0.1440 -0.5963 -0.6480
   42MOL    C62 5064   3.228   2.349   1.386 -0.4372  0.5036 -0.1554
   42MOL    C63 5065   3.380   2.355   1.429 -0.2278 -0.0577  0.4805
   42MOL    H64 5066   3.204   2.244   1.406  0.7979  0.5006  1.3455
   42MOL    H65 5067   3.231   2.377   1.281 -1.7308  0.9992 -0.0713
   42MOL    H66 5068   3.409   2.458   1.410  1.2229 -0.0498  2.6233
   42MOL    H67 5069   3.401   2.335   1.534 -0.7179 -1.7081  0.2770
   42MOL    C68 5070   3.468   2.272   1.340 -0.2223  0.4149 -0.2444
   42MOL    C69 5071   3.617   2.304   1.366  0.0245  0.1276 -0.6637
   42MOL    H70 5072   3.467   2.166   1.365  3.1887  0.1417 -0.9866
   42MOL    H71 5073   3.445   2.285   1.234  0.6472 -0.6871 -0.5769
   42MOL    H72 5074   3.628   2.412   1.360 -1.8326  0.4630  1.2913
   42MOL    H73 5075   3.649   2.280   1.468 -2.5172 -0.6344  0.0095
   42MOL    C74 5076   3.711   2.241   1.272  0.4088 -0.1663 -0.0592
   42MOL    C75 5077   3.859   2.277   1.304  0.5912 -1.0695  0.3291
   42MOL    H76 5078   3.707   2.133   1.266 -1.0021 -0.1293  0.0901
   42MOL    H77 5079   3.691   2.281   1.172  0.8642 -1.0477 -0.5073
   42MOL    H78 5080   3.878   2.385   1.307 -0.4878 -0.6934 -3.6664
   42MOL    H79 5081   3.882   2.253   1.408  0.0286  1.5950  1.1221
   42MOL    C80 5082   3.957   2.202   1.212 -0.1131  0.2043  0.6492
   42MOL    C81 5083   4.107   2.219   1.242  0.5319  0.0265  0.0092
   42MOL    H82 5084   3.932   2.096   1.219 -0.8630  0.2276 -1.4390
   42MOL    H83 5085   3.927   2.225   1.110  0.0260 -0.4135  0.4699
   42MOL    H84 5086   4.142   2.311   1.196  1.3609  0.2173  1.0006
   42MOL    H85 5087   4.122   2.227   1.349  0.0648  1.4940 -0.0326
   42MOL    C86 5088   4.208   2.115   1.183 -0.1136 -0.6686  0.3985
   42MOL    C87 5089   4.350   2.162   1.176  0.3536 -0.5005 -0.1483
   42MOL    H88 5090   4.203   2.020   1.235 -0.4982 -0.7419  0.2256
   42MOL    H89 5091   4.189   2.088   1.079 -2.7200  1.3669  0.2776
   42MOL    H90 5092   4.360   2.260   1.128 -1.2997  0.0465  0.5876
   42MOL    H91 5093   4.401   2.170   1.272  0.4995  0.0733 -0.2738
   42MOL    C92 5094   4.436   2.057   1.099 -0.0979  0.6628  0.2761
   42MOL    C93 5095   4.585   2.088   1.134 -0.6077 -0.7191 -0.9031
   42MOL    H94 5096   4.412   1.961   1.146 -1.3530  1.4123  1.1745
   42MOL    H95 5097   4.419   2.057   0.992  1.7971  4.3513 -0.0908
   42MOL    H96 5098   4.597   2.196   1.123  2.8770 -0.9019  0.3099
   42MOL    H97 5099   4.607   2.073   1.240 -1.6935  1.3473 -0.3625
   42MOL    C98 5100   4.691   2.006   1.045  0.5246 -0.0903  0.4568
   42MOL    C99 5101   4.833   2.028   1.084  0.1879 -0.6487 -0.4565
   42MOL   H100 5102   4.665   1.901   1.047  0.0226  0.0533  1.8036
   42MOL   H101 5103   4.672   2.035   0.941  0.1949  0.0369  0.5497
   42MOL   H102 5104   4.868   2.130   1.070 -1.9114  0.0464 -0.8309
   42MOL   H103 5105   4.833   2.018   1.192  0.1125  1.2929 -0.2545
   42MOL   C104 5106   4.923   1.923   1.006  0.5748 -0.5002  0.0160
   42MOL   C105 5107   5.076   1.912   1.031  0.0264  0.3300  0.1596
   42MOL   H106 5108   4.889   1.819   1.011  0.7703 -0.6947 -2.0732
   42MOL   H107 5109   4.921   1.938   0.898 -0.8593 -0.5414  0.0298
   42MOL   H108 5110   5.091   1.901   1.138 -2.4948 -3.5208  0.2015
   42MOL   H109 5111   5.116   1.815   1.005  1.1782  0.4710  1.3393
   42MOL   C110 5112   5.157   2.032   0.972  0.4742  0.3616  0.7462
   42MOL   C111 5113   5.308   2.006   0.984  0.2954  0.0303 -0.7694
   42MOL   H112 5114   5.130   2.041   0.867  3.5669 -0.5535 -0.1631
   42MOL   H113 5115   5.143   2.130   1.020  3.0109  0.9452  0.3809
   42MOL   H114 5116   5.331   1.995   1.090 -0.6341  0.4400 -0.5187
   42MOL   H115 5117   5.324   1.911   0.932  0.8006  0.8651 -2.1394
   42MOL   C116 5118   5.392   2.119   0.942  0.0952  0.3318  0.1243
   42MOL   C117 5119   5.536   2.093   0.944 -0.5589  0.0821  0.3025
   42MOL   H118 5120   5.364   2.148   0.841  2.4210  2.0841 -0.0548
   42MOL   H119 5121   5.385   2.210   1.002 -1.5939 -1.6455  3.0590
   42MOL   H120 5122   5.572   2.084   1.047  0.2796  1.8239  0.1658
   42MOL   H121 5123   5.568   1.997   0.904 -0.4161  0.3988 -0.3440
   42MOL   H122 5124   5.597   2.169   0.895  1.2913 -0.5772  1.5057
   43MOL     C1 5125   6.689   3.088   6.596  0.2821 -0.4599 -0.1179
   43MOL     C2 5126   6.842   3.117   6.617  0.5594 -0.1702 -0.2732
   43MOL     H3 5127   6.672   3.035   6.503 -1.1722 -1.3206  0.6126
   43MOL     H4 5128   6.630   3.180   6.593  1.6826  0.4863  0.5161
   43MOL     H5 5129   6.860   3.158   6.716  0.3094  1.2729 -0.8165
   43MOL     H6 5130   6.888   3.018   6.622 -1.2828 -0.9832  1.0152
   43MOL     H7 5131   6.639   3.040   6.681 -0.5743 -0.5199 -0.6443
   43MOL     C8 5132   6.898   3.210   6.507 -0.2603 -0.1276  0.5266
   43MOL     C9 5133   7.039   3.264   6.543  0.1948  0.0788 -0.1786
   43MOL    H10 5134   6.897   3.152   6.415  0.0789  0.3688  0.2067
   43MOL    H11 5135   6.839   3.300   6.496 -2.0419 -1.4742 -1.1407
   43MOL    H12 5136   7.045   3.345   6.616 -1.8331  1.0057 -1.0132
   43MOL    H13 5137   7.092   3.179   6.586 -1.0296 -1.1218 -0.9987
   43MOL    C14 5138   7.121   3.294   6.417  0.3797  0.5603 -0.0771
   43MOL    C15 5139   7.261   3.346   6.451  0.4147  0.2111  0.2239
   43MOL    H16 5140   7.141   3.198   6.369 -3.5296  0.1909 -1.1649
   43MOL    H17 5141   7.066   3.367   6.357 -0.1666  0.9032  0.8379
   43MOL    H18 5142   7.258   3.445   6.495 -2.6149  0.5683 -0.6469
   43MOL    H19 5143   7.297   3.291   6.538 -3.1446  1.0342  2.3353
   43MOL    C20 5144   7.359   3.352   6.333 -0.2912  0.2190 -0.4412
   43MOL    C21 5145   7.498   3.400   6.377 -0.6090  0.6729  0.0185
   43MOL    H22 5146   7.377   3.253   6.291  0.5702 -0.6497  1.8849
   43MOL    H23 5147   7.312   3.402   6.248 -0.2802 -0.2911 -0.7514
   43MOL    H24 5148   7.480   3.491   6.434 -0.6620  0.6930 -0.0293
   43MOL    H25 5149   7.535   3.328   6.450  1.7186  1.0254 -0.7561
   43MOL    C26 5150   7.595   3.417   6.257  0.2104 -0.6382 -0.5102
   43MOL    C27 5151   0.028   3.510   6.281 -0.2640 -0.1273  0.0396
   43MOL    H28 5152   7.616   3.318   6.215 -0.1364 -1.3072  0.8645
   43MOL    H29 5153   7.542   3.454   6.169 -2.6099 -0.1396  1.3540
   43MOL    H30 5154   0.001   3.608   6.322  2.0440  0.3755  0.4011
   43MOL    H31 5155   0.092   3.464   6.357 -0.0430  0.4361  0.1962
   43MOL    C32 5156   0.113   3.526   6.158  0.1283  0.2458  0.1317
   43MOL    C33 5157   0.245   3.583   6.197  0.0780 -0.3215 -0.7684
   43MOL    H34 5158   0.148   3.426   6.130  0.1652  0.3758 -0.2890
   43MOL    H35 5159   0.056   3.569   6.076  0.2380  0.8399  0.3649
   43MOL    H36 5160   0.293   3.517   6.270 -0.5495  0.6200  0.5258
   43MOL    H37 5161   0.311   3.605   6.113  0.9953  0.3239  0.1071
   43MOL    C38 5162   0.235   3.733   6.241  0.0608 -0.4725 -0.2595
   43MOL    C39 5163   0.374   3.787   6.288  0.4593  0.0746 -0.0239
   43MOL    H40 5164   0.201   3.789   6.154 -0.0358  0.4950  0.3989
   43MOL    H41 5165   0.167   3.748   6.325 -0.3193  2.3112 -1.0038
   43MOL    H42 5166   0.415   3.730   6.372  0.4383 -1.0586 -0.7700
   43MOL    H43 5167   0.453   3.781   6.213  1.1826 -2.9760  0.8757
   43MOL    C44 5168   0.381   3.930   6.343 -0.2340 -0.4539  0.2634
   43MOL    C45 5169   0.519   3.989   6.338  0.3193 -0.1257  0.5780
   43MOL    H46 5170   0.323   3.990   6.273  1.2977  0.4789 -0.2239
   43MOL    H47 5171   0.320   3.940   6.433 -1.2139 -0.9273 -0.3460
   43MOL    H48 5172   0.589   3.914   6.374 -0.0848 -1.3801 -1.1823
   43MOL    H49 5173   0.550   4.017   6.237 -0.5645 -2.3554 -0.3578
   43MOL    C50 5174   0.527   4.125   6.417  0.3967  0.4111  0.5058
   43MOL    C51 5175   0.671   4.192   6.404 -0.0980  0.1335 -0.0505
   43MOL    H52 5176   0.455   4.194   6.374 -1.0370 -0.2120  1.8591
   43MOL    H53 5177   0.502   4.102   6.520 -0.6597 -0.4853  0.0541
   43MOL    H54 5178   0.744   4.131   6.457  0.2732  0.1383 -0.5514
   43MOL    H55 5179   0.700   4.195   6.299 -1.1821 -0.3775 -0.3714
   43MOL    C56 5180   0.662   4.333   6.472 -0.1962 -0.2244  0.2042
   43MOL    C57 5181   0.790   4.399   6.449  0.3455 -0.4040  0.4727
   43MOL    H58 5182   0.586   4.387   6.415 -0.1644 -1.4736 -1.0609
   43MOL    H59 5183   0.640   4.334   6.579  0.4869  0.2540  0.3445
   43MOL    H60 5184   0.869   4.329   6.476 -0.1023 -0.8914  0.5248
   43MOL    H61 5185   0.794   4.424   6.343 -1.3990 -0.2994  0.4155
   43MOL    C62 5186   0.804   4.537   6.528  0.6258 -0.3484 -0.4751
   43MOL    C63 5187   0.945   4.596   6.527  0.5634 -0.3208  0.3346
   43MOL    H64 5188   0.732   4.615   6.506 -0.2865 -0.8530  0.6533
   43MOL    H65 5189   0.777   4.512   6.631 -0.1758  2.3412 -0.0078
   43MOL    H66 5190   1.009   4.523   6.576  1.6113 -1.0627 -2.0698
   43MOL    H67 5191   0.971   4.611   6.422  0.0984  0.5407  0.3382
   43MOL    C68 5192   0.975   4.728   6.599  0.4834 -0.5382  0.3348
   43MOL    C69 5193   1.125   4.761   6.602  0.3321 -0.0199  0.0680
   43MOL    H70 5194   0.914   4.810   6.563 -0.7730 -1.9361 -0.7868
   43MOL    H71 5195   0.955   4.715   6.705  1.9567 -0.1746  0.6771
   43MOL    H72 5196   1.191   4.688   6.650 -1.5424 -1.6347  0.2354
   43MOL    H73 5197   1.163   4.769   6.500  0.6419 -1.3966  0.0674
   43MOL    C74 5198   1.155   4.892   6.687 -0.2921  0.4271  0.2435
   43MOL    C75 5199   1.306   4.938   6.686 -0.2692  0.0556  0.9079
   43MOL    H76 5200   1.089   4.970   6.650 -0.4711 -1.0107 -2.6314
   43MOL    H77 5201   1.123   4.875   6.790  0.9231  1.7107  0.8409
   43MOL    H78 5202   1.373   4.876   6.746  0.3708 -1.6063 -1.4456
   43MOL    H79 5203   1.342   4.939   6.583  2.2839  1.0545  1.7908
   43MOL    C80 5204   1.325   5.075   6.743 -0.0533  0.0427 -0.5601
   43MOL    C81 5205   1.467   5.136   6.712 -0.2298 -0.0666  0.1447
   43MOL    H82 5206   1.251   5.149   6.714  0.0732 -0.6220 -2.6349
   43MOL    H83 5207   1.316   5.069   6.852 -1.3500 -0.1333 -0.6642
   43MOL    H84 5208   1.547   5.066   6.735 -2.1321 -1.5357  2.5507
   43MOL    H85 5209   1.466   5.154   6.605  4.5591 -1.7739 -0.3009
   43MOL    C86 5210   1.487   5.276   6.769 -0.4748  0.5554  0.0950
   43MOL    C87 5211   1.639   5.330   6.755 -0.3921  0.4463 -0.3265
   43MOL    H88 5212   1.406   5.341   6.737 -0.8051  0.9430  1.6964
   43MOL    H89 5213   1.482   5.258   6.876 -0.6917  1.9168  0.3232
   43MOL    H90 5214   1.716   5.265   6.796  0.2457  0.9254 -0.7588
   43MOL    H91 5215   1.650   5.348   6.648 -0.9031 -1.7176 -0.7751
   43MOL    C92 5216   1.655   5.462   6.828 -0.3162  0.5890  0.3598
   43MOL    C93 5217   1.803   5.507   6.837  0.2491  0.7023  0.1957
   43MOL    H94 5218   1.596   5.540   6.779 -0.4034  1.2940  1.5879
   43MOL    H95 5219   1.616   5.445   6.928 -0.5620 -1.2270 -0.0242
   43MOL    H96 5220   1.862   5.435   6.894 -0.9948  0.8122  1.6726
   43MOL    H97 5221   1.858   5.504   6.744  1.5266 -0.1759  0.9583
   43MOL    C98 5222   1.825   5.634   6.921 -0.1148 -0.2902 -0.3381
   43MOL    C99 5223   1.977   5.671   6.934 -0.5348 -0.1459  0.0901
   43MOL   H100 5224   1.772   5.716   6.872  1.8252  0.4241 -1.2810
   43MOL   H101 5225   1.768   5.621   7.013 -0.6637 -0.9636 -0.7722
   43MOL   H102 5226   2.028   5.583   6.973  0.7302  0.1146 -0.9136
   43MOL   H103 5227   2.020   5.682   6.834 -1.1229 -2.1410 -0.3881
   43MOL   C104 5228   2.005   5.793   7.031 -0.4428  0.3883  0.5219
   43MOL   C105 5229   1.964   5.770   7.183  0.5316 -0.1085 -0.5273
   43MOL   H106 5230   2.107   5.829   7.015 -0.6960  0.3592 -1.3105
   43MOL   H107 5231   1.945   5.877   6.995 -0.4070  0.7589  1.3205
   43MOL   H108 5232   2.003   5.854   7.239  1.2723 -0.9147  0.1921
   43MOL   H109 5233   1.857   5.751   7.191  0.3928  0.2841 -1.3498
   43MOL   C110 5234   2.022   5.640   7.249  0.0641  1.1741 -0.4801
   43MOL   C111 5235   2.172   5.643   7.241 -0.1089  0.1272  0.1141
   43MOL   H112 5236   1.992   5.631   7.353  1.5185 -2.5190 -0.2891
   43MOL   H113 5237   1.978   5.552   7.200  2.3094  0.4897 -1.3117
   43MOL   H114 5238   2.217   5.658   7.142 -0.2789  0.5941  0.1049
   43MOL   H115 5239   2.212   5.729   7.296  0.0171  0.3890 -0.3825
   43MOL   C116 5240   2.221   5.512   7.302  0.2503  0.9495  0.4349
   43MOL   C117 5241   2.377   5.524   7.331 -0.6258  0.3350 -0.4554
   43MOL   H118 5242   2.171   5.479   7.392  1.5364 -0.2917  0.7104
   43MOL   H119 5243   2.218   5.431   7.229 -0.0571  0.6111  0.8322
   43MOL   H120 5244   2.404   5.574   7.424 -0.7789  1.1973 -0.8706
   43MOL   H121 5245   2.408   5.419   7.330  3.4908  1.4312  1.4996
   43MOL   H122 5246   2.438   5.571   7.255 -1.3499  1.3169 -0.4433
   44MOL     C1 5247   3.179   0.296   2.179 -0.3512  0.1083  0.4338
   44MOL     C2 5248   3.168   0.398   2.056 -0.2901  0.4648  0.3348
   44MOL     H3 5249   3.156   0.331   2.280  0.3307 -0.8895  0.9569
   44MOL     H4 5250   3.272   0.239   2.190  0.9975  2.2549  0.4609
   44MOL     H5 5251   3.152   0.341   1.964  1.2048 -0.9343  0.9216
   44MOL     H6 5252   3.083   0.465   2.072  0.5750  1.7885 -0.4683
   44MOL     H7 5253   3.105   0.221   2.154  1.9329 -1.9162 -0.4547
   44MOL     C8 5254   3.302   0.481   2.040  0.4189 -0.2790  1.3738
   44MOL     C9 5255   3.311   0.581   1.919  0.2053  0.6340  0.0940
   44MOL    H10 5256   3.330   0.526   2.136  0.2436  2.4255  0.1899
   44MOL    H11 5257   3.380   0.408   2.018 -0.3489 -0.0913 -2.2370
   44MOL    H12 5258   3.229   0.652   1.928 -0.0260  0.2872  0.7615
   44MOL    H13 5259   3.401   0.637   1.944 -0.4075  1.7140 -0.1222
   44MOL    C14 5260   3.310   0.511   1.780 -0.3365 -0.1730 -0.0199
   44MOL    C15 5261   3.345   0.588   1.646  0.4805 -0.0652  0.3345
   44MOL    H16 5262   3.391   0.438   1.788  0.1517  0.1722 -1.6876
   44MOL    H17 5263   3.222   0.448   1.763  0.2991 -0.6636 -1.5912
   44MOL    H18 5264   3.443   0.629   1.670  0.7823 -0.3165 -0.4540
   44MOL    H19 5265   3.356   0.509   1.572 -0.9960  0.3405 -0.3429
   44MOL    C20 5266   3.249   0.695   1.593  0.3432 -0.6391  0.4092
   44MOL    C21 5267   3.301   0.776   1.471 -0.3086  0.2837 -0.6352
   44MOL    H22 5268   3.157   0.643   1.563 -0.0249  0.7804 -0.9424
   44MOL    H23 5269   3.227   0.764   1.675 -0.8185  0.2559 -0.6388
   44MOL    H24 5270   3.359   0.861   1.507 -1.8254  0.6265  1.0869
   44MOL    H25 5271   3.375   0.718   1.416  0.0514 -1.3193  1.4595
   44MOL    C26 5272   3.195   0.834   1.382 -0.0195 -0.0603 -0.1199
   44MOL    C27 5273   3.125   0.942   1.462 -1.1620  0.7030  0.4498
   44MOL    H28 5274   3.234   0.883   1.293  0.2816  1.2065  0.6999
   44MOL    H29 5275   3.122   0.761   1.347 -1.4272 -0.6974  3.8680
   44MOL    H30 5276   3.092   0.919   1.563  0.7885  0.3369  1.0214
   44MOL    H31 5277   3.186   1.031   1.471 -0.5523  0.4036 -0.5818
   44MOL    C32 5278   2.989   0.978   1.395 -0.1680  0.2006 -0.6030
   44MOL    C33 5279   2.907   1.073   1.483  0.6093  0.2492 -0.8480
   44MOL    H34 5280   3.008   1.017   1.295  0.0128 -1.2425 -1.1540
   44MOL    H35 5281   2.932   0.888   1.370 -0.0293 -0.3465  1.0118
   44MOL    H36 5282   2.875   1.025   1.575 -2.2805  0.5216 -1.6470
   44MOL    H37 5283   2.956   1.166   1.514  0.6679 -1.0994  3.4326
   44MOL    C38 5284   2.772   1.115   1.413 -0.4365  0.4823  0.1597
   44MOL    C39 5285   2.683   1.206   1.505 -0.0070  0.2595  0.0403
   44MOL    H40 5286   2.780   1.163   1.315  0.9213 -1.5186 -0.7504
   44MOL    H41 5287   2.729   1.018   1.389 -0.4872  0.9187 -1.5687
   44MOL    H42 5288   2.676   1.154   1.601  1.6369 -2.2829 -1.1634
   44MOL    H43 5289   2.738   1.300   1.519 -1.3601  1.0221  0.2809
   44MOL    C44 5290   2.556   1.235   1.430 -0.0835  0.7551 -0.0855
   44MOL    C45 5291   2.462   1.331   1.492 -0.5161  0.1958 -0.0094
   44MOL    H46 5292   2.574   1.274   1.329 -1.7186 -0.8998 -1.0461
   44MOL    H47 5293   2.506   1.143   1.401 -0.2602  1.1779 -1.1622
   44MOL    H48 5294   2.457   1.296   1.595  1.3202  0.9845  0.3647
   44MOL    H49 5295   2.506   1.430   1.499 -0.0229 -0.0729  0.7819
   44MOL    C50 5296   2.321   1.350   1.427  1.1016 -0.4210 -0.2014
   44MOL    C51 5297   2.233   1.446   1.522 -0.0619  0.0821 -0.2240
   44MOL    H52 5298   2.328   1.388   1.325 -2.3563 -1.4679 -0.8882
   44MOL    H53 5299   2.269   1.254   1.422  0.0078  0.2340 -1.6736
   44MOL    H54 5300   2.262   1.418   1.624  1.0183 -0.7973 -0.7640
   44MOL    H55 5301   2.266   1.548   1.506  0.6570  0.2966  2.4024
   44MOL    C56 5302   2.082   1.437   1.487  0.2169  0.3241  0.3411
   44MOL    C57 5303   1.990   1.519   1.577 -0.0411  0.1737  0.4358
   44MOL    H58 5304   2.061   1.464   1.384 -2.5561  0.5467  0.9392
   44MOL    H59 5305   2.055   1.331   1.488  0.9991  0.0792 -1.8891
   44MOL    H60 5306   1.894   1.493   1.532  0.1695  0.3531 -0.1305
   44MOL    H61 5307   1.982   1.478   1.677 -0.6838  1.8806  1.1118
   44MOL    C62 5308   2.020   1.667   1.574 -0.6541  0.0984 -0.9060
   44MOL    C63 5309   1.901   1.760   1.606 -0.5532 -1.0062  0.1179
   44MOL    H64 5310   2.100   1.693   1.643  0.8299  1.7186 -3.1504
   44MOL    H65 5311   2.058   1.690   1.474 -1.3983  0.4484 -1.1133
   44MOL    H66 5312   1.819   1.716   1.550 -2.1096 -0.4525  1.8961
   44MOL    H67 5313   1.871   1.746   1.710 -1.1693  1.5933  0.3234
   44MOL    C68 5314   1.924   1.916   1.574  0.1961  0.2344 -0.1420
   44MOL    C69 5315   2.025   1.978   1.665  0.3236  0.3567  0.4769
   44MOL    H70 5316   1.949   1.934   1.470  0.1751  2.0987  0.1586
   44MOL    H71 5317   1.833   1.973   1.595 -0.4940 -0.8716 -0.0803
   44MOL    H72 5318   1.984   1.971   1.766 -1.5368 -0.7565 -0.3465
   44MOL    H73 5319   2.127   1.940   1.658  0.7193  1.3436  0.8214
   44MOL    C74 5320   2.059   2.125   1.630 -0.2772  0.6987  0.4698
   44MOL    C75 5321   2.144   2.204   1.740 -0.2836 -0.5107  0.1231
   44MOL    H76 5322   2.100   2.123   1.529 -1.0560 -0.1750  0.1715
   44MOL    H77 5323   1.968   2.186   1.623 -0.9668 -0.3354  0.3576
   44MOL    H78 5324   2.080   2.223   1.826  2.8763 -1.5152  2.8181
   44MOL    H79 5325   2.221   2.147   1.792 -0.1738  0.5854  1.1774
   44MOL    C80 5326   2.215   2.332   1.689  0.0701  0.1899 -0.0662
   44MOL    C81 5327   2.121   2.444   1.645 -0.1022 -0.4354 -0.6952
   44MOL    H82 5328   2.280   2.368   1.768 -1.1530 -1.8797  1.9465
   44MOL    H83 5329   2.275   2.304   1.602  0.0530 -0.6982  0.2021
   44MOL    H84 5330   2.043   2.405   1.579  0.6843  0.8018 -2.3933
   44MOL    H85 5331   2.061   2.484   1.727  0.3935  0.7943 -0.9255
   44MOL    C86 5332   2.210   2.560   1.586  0.6123  0.4263 -0.1555
   44MOL    C87 5333   2.126   2.640   1.495 -0.1108 -0.6166  0.2438
   44MOL    H88 5334   2.261   2.605   1.671 -1.5911 -0.2255  1.5693
   44MOL    H89 5335   2.283   2.518   1.517 -0.7438 -0.0636 -1.3116
   44MOL    H90 5336   2.092   2.565   1.423  2.6952 -0.1815 -1.5795
   44MOL    H91 5337   2.040   2.681   1.549  0.9234  1.2974  0.4622
   44MOL    C92 5338   2.208   2.745   1.420  0.3667  0.0183 -0.2575
   44MOL    C93 5339   2.123   2.810   1.313 -0.2350 -0.8367  0.6009
   44MOL    H94 5340   2.239   2.817   1.496  0.9164  0.1221 -0.5743
   44MOL    H95 5341   2.304   2.706   1.384  0.1813 -0.5943 -0.0927
   44MOL    H96 5342   2.100   2.721   1.255  0.8655  0.7081 -2.2809
   44MOL    H97 5343   2.039   2.863   1.359 -0.0983  1.0568 -1.2601
   44MOL    C98 5344   2.186   2.921   1.233 -0.0198  0.4441  0.1829
   44MOL    C99 5345   2.097   2.963   1.115 -0.0294  0.2166 -0.2105
   44MOL   H100 5346   2.222   3.009   1.286 -0.8491  1.2252 -0.5527
   44MOL   H101 5347   2.275   2.878   1.185 -1.9857 -0.3302 -2.9197
   44MOL   H102 5348   2.076   2.874   1.055  0.1449  0.3612 -0.4920
   44MOL   H103 5349   2.000   2.991   1.156 -0.5381  0.0891 -1.3063
   44MOL   C104 5350   2.151   3.063   1.017 -0.0395 -0.0404 -0.4397
   44MOL   C105 5351   2.048   3.122   0.911 -0.3443  0.3781  0.3092
   44MOL   H106 5352   2.175   3.156   1.070 -1.2559  0.0613 -0.0614
   44MOL   H107 5353   2.236   3.027   0.959 -1.3447 -3.3384 -0.4332
   44MOL   H108 5354   1.980   3.193   0.957  0.6677  0.9978  0.8655
   44MOL   H109 5355   2.102   3.190   0.845  1.4018 -1.2247  0.0362
   44MOL   C110 5356   1.979   3.015   0.828 -0.2765  0.5434  0.0132
   44MOL   C111 5357   1.898   3.070   0.719 -0.0567  0.4015  0.1332
   44MOL   H112 5358   2.065   2.961   0.789  0.7199  0.9804  1.5426
   44MOL   H113 5359   1.927   2.948   0.897  0.0567 -0.4196 -0.6776
   44MOL   H114 5360   1.810   3.129   0.746  0.6639  0.7113  1.9066
   44MOL   H115 5361   1.959   3.144   0.668  0.6266  0.2173  0.6720
   44MOL   C116 5362   1.842   2.973   0.620 -0.4447 -0.1660  0.0817
   44MOL   C117 5363   1.793   3.036   0.480  0.3956 -0.1494 -0.4700
   44MOL   H118 5364   1.934   2.921   0.591  0.6665  1.3593  0.7794
   44MOL   H119 5365   1.766   2.908   0.662 -1.0685 -0.0171 -0.7929
   44MOL   H120 5366   1.719   3.116   0.478  0.4999 -0.0410  0.2044
   44MOL   H121 5367   1.875   3.078   0.422 -1.4406  3.0788 -0.8933
   44MOL   H122 5368   1.749   2.960   0.415  1.1252 -2.4297  1.6562
   45MOL     C1 5369   1.770   2.697   0.915  0.7325  0.2939  0.2803
   45MOL     C2 5370   1.743   2.715   1.065  0.8241  0.9560 -0.1503
   45MOL     H3 5371   1.767   2.794   0.864 -0.0054 -0.5335 -1.2928
   45MOL     H4 5372   1.707   2.620   0.871 -0.2188  1.2779 -0.0909
   45MOL     H5 5373   1.757   2.819   1.092 -2.3193  1.5586 -0.6253
   45MOL     H6 5374   1.636   2.711   1.085  0.9415  3.2766  1.1044
   45MOL     H7 5375   1.870   2.662   0.886  0.1482 -0.6707 -0.5876
   45MOL     C8 5376   1.820   2.612   1.157  0.0024  0.6031 -0.3818
   45MOL     C9 5377   1.759   2.469   1.163  0.2683  0.1389 -0.4944
   45MOL    H10 5378   1.924   2.609   1.127  0.2899  0.1107  0.6368
   45MOL    H11 5379   1.829   2.649   1.259 -2.0664 -2.2821  0.9123
   45MOL    H12 5380   1.661   2.470   1.210 -0.0902 -4.3767 -0.9126
   45MOL    H13 5381   1.744   2.434   1.061 -0.0632  0.0444 -0.4139
   45MOL    C14 5382   1.846   2.375   1.247 -0.4177 -0.0021 -0.0301
   45MOL    C15 5383   1.970   2.320   1.177 -0.5927  0.3763 -1.1695
   45MOL    H16 5384   1.876   2.425   1.339 -1.3623  2.4258 -0.9880
   45MOL    H17 5385   1.794   2.285   1.280 -1.3966  0.6900  0.3631
   45MOL    H18 5386   1.933   2.233   1.123  0.8319 -0.6302 -0.5761
   45MOL    H19 5387   2.018   2.390   1.108  0.7977 -1.0355 -1.7003
   45MOL    C20 5388   2.087   2.281   1.264 -0.0257  0.0648 -0.2125
   45MOL    C21 5389   2.205   2.234   1.178  0.5505  0.0596 -0.2397
   45MOL    H22 5390   2.113   2.360   1.335  0.3818  0.4860 -0.8287
   45MOL    H23 5391   2.059   2.197   1.328  2.3976  1.5521  2.9526
   45MOL    H24 5392   2.188   2.151   1.109 -0.1370  0.4060 -0.4919
   45MOL    H25 5393   2.237   2.321   1.120  0.4457  0.7551  0.7305
   45MOL    C26 5394   2.319   2.192   1.273 -0.0487 -0.4533 -0.2327
   45MOL    C27 5395   2.437   2.138   1.175 -0.8800 -0.1969 -0.0175
   45MOL    H28 5396   2.352   2.275   1.336  1.1546 -1.1221  0.0244
   45MOL    H29 5397   2.288   2.119   1.348 -1.2651  0.7320  0.4355
   45MOL    H30 5398   2.391   2.056   1.119  0.5642 -1.1448  0.1620
   45MOL    H31 5399   2.480   2.215   1.110  0.5416  0.1645  1.3437
   45MOL    C32 5400   2.555   2.074   1.249 -0.3155  0.3782 -0.3929
   45MOL    C33 5401   2.653   2.020   1.146 -0.1873 -0.2731 -0.2851
   45MOL    H34 5402   2.618   2.151   1.293  0.1459 -1.0074  1.4281
   45MOL    H35 5403   2.526   1.997   1.321  0.7236  1.3496  1.1102
   45MOL    H36 5404   2.615   1.930   1.098  0.5179 -0.5970 -0.2474
   45MOL    H37 5405   2.677   2.093   1.069 -1.1702 -0.8128 -1.1104
   45MOL    C38 5406   2.790   1.980   1.202  0.0314 -1.0016  0.2801
   45MOL    C39 5407   2.890   1.914   1.104  1.0789  0.0312 -0.1669
   45MOL    H40 5408   2.838   2.069   1.243 -1.2897 -0.2433  0.1948
   45MOL    H41 5409   2.778   1.909   1.284 -1.8559 -2.5578 -1.2995
   45MOL    H42 5410   2.830   1.832   1.065  0.2894  1.1125 -1.2573
   45MOL    H43 5411   2.912   1.978   1.019  0.1569  0.3837 -0.1355
   45MOL    C44 5412   3.020   1.869   1.176 -0.2681  0.3489 -0.7273
   45MOL    C45 5413   3.132   1.825   1.089 -0.1227 -0.6293 -0.0896
   45MOL    H46 5414   3.055   1.946   1.244 -2.0138 -0.2602  0.9112
   45MOL    H47 5415   3.000   1.785   1.243 -0.4613 -0.1460 -1.3943
   45MOL    H48 5416   3.086   1.746   1.030 -1.0559 -0.1715  0.0156
   45MOL    H49 5417   3.151   1.906   1.018 -0.2451  0.1507  0.7559
   45MOL    C50 5418   3.260   1.773   1.147 -0.1497  0.2235  0.0723
   45MOL    C51 5419   3.350   1.694   1.055 -0.3809  0.0409 -0.1785
   45MOL    H52 5420   3.318   1.857   1.186 -0.3596 -0.1122  1.1184
   45MOL    H53 5421   3.243   1.727   1.245  2.0023  1.2767  0.9645
   45MOL    H54 5422   3.311   1.592   1.060 -0.9359  0.1884 -1.4061
   45MOL    H55 5423   3.333   1.733   0.955 -2.0352 -1.3498 -0.4634
   45MOL    C56 5424   3.499   1.686   1.097  0.7234  0.9207 -0.5112
   45MOL    C57 5425   3.599   1.612   1.000  1.4202 -0.7514  0.7588
   45MOL    H58 5426   3.541   1.786   1.107  1.8428  0.4333 -0.2300
   45MOL    H59 5427   3.506   1.649   1.200 -2.1756  0.1773 -0.5371
   45MOL    H60 5428   3.560   1.511   0.987 -0.3824 -0.0331  0.4723
   45MOL    H61 5429   3.602   1.667   0.906 -0.9656  0.4433  1.3331
   45MOL    C62 5430   3.733   1.587   1.068 -0.4804 -0.0373 -0.0230
   45MOL    C63 5431   3.827   1.505   0.987 -0.7272 -0.1624 -0.3777
   45MOL    H64 5432   3.777   1.686   1.087  0.6456 -1.0131  2.7801
   45MOL    H65 5433   3.713   1.536   1.162  0.8184  0.1428  0.3543
   45MOL    H66 5434   3.791   1.404   0.967  1.0074 -0.7756 -0.4677
   45MOL    H67 5435   3.834   1.546   0.885 -0.3681  1.7951  0.4042
   45MOL    C68 5436   3.967   1.509   1.046 -0.4371  0.1512 -0.3843
   45MOL    C69 5437   4.075   1.435   0.957 -0.1610 -0.3076 -0.4442
   45MOL    H70 5438   3.995   1.612   1.071 -0.9422  0.6506 -1.8076
   45MOL    H71 5439   3.955   1.461   1.143 -1.0961 -0.5833 -0.8324
   45MOL    H72 5440   4.054   1.328   0.958  0.8020 -0.5583 -2.5122
   45MOL    H73 5441   4.060   1.466   0.854 -1.2735  0.3614 -0.0841
   45MOL    C74 5442   4.219   1.442   1.016  0.3380 -0.2806  0.5280
   45MOL    C75 5443   4.325   1.373   0.922 -0.1948  0.1359  0.3565
   45MOL    H76 5444   4.244   1.548   1.029 -0.3670 -0.0237 -0.1421
   45MOL    H77 5445   4.228   1.399   1.115  0.7724 -0.3829  0.4432
   45MOL    H78 5446   4.299   1.268   0.911 -0.9377  0.2633  0.8562
   45MOL    H79 5447   4.304   1.416   0.825  2.1421 -3.5045 -1.8942
   45MOL    C80 5448   4.459   1.388   0.990  0.0740 -0.3665  0.8114
   45MOL    C81 5449   4.580   1.337   0.903  0.0326 -0.7229  0.3177
   45MOL    H82 5450   4.489   1.489   1.018 -1.7994  1.0407 -1.9617
   45MOL    H83 5451   4.453   1.344   1.090 -2.5926  0.6494  1.1208
   45MOL    H84 5452   4.557   1.233   0.877 -0.5475 -0.2729 -1.0099
   45MOL    H85 5453   4.586   1.404   0.817 -0.8699 -1.9397 -0.7223
   45MOL    C86 5454   4.715   1.346   0.968  0.4606 -0.0054 -0.1864
   45MOL    C87 5455   4.834   1.286   0.881 -0.7121  0.1684  0.4491
   45MOL    H88 5456   4.724   1.454   0.980 -0.1998 -0.1398  1.5935
   45MOL    H89 5457   4.711   1.298   1.066  1.2316 -0.0591 -0.1770
   45MOL    H90 5458   4.797   1.190   0.844  0.0047  0.5225 -1.2634
   45MOL    H91 5459   4.843   1.344   0.789 -0.1550  1.5493  1.3670
   45MOL    C92 5460   4.980   1.298   0.935 -0.0175 -0.6042 -0.2998
   45MOL    C93 5461   5.076   1.205   0.872 -0.3654  0.0129  0.2972
   45MOL    H94 5462   5.003   1.404   0.923  0.1269 -0.5063  0.8736
   45MOL    H95 5463   4.990   1.285   1.042 -2.2162  1.8295  0.2453
   45MOL    H96 5464   5.026   1.110   0.894  1.2413 -0.1425  3.5394
   45MOL    H97 5465   5.082   1.214   0.763 -0.6622 -2.0639  0.0849
   45MOL    C98 5466   5.216   1.213   0.938  0.5052 -0.0284 -0.0628
   45MOL    C99 5467   5.323   1.136   0.870 -0.2926  0.2154  0.0604
   45MOL   H100 5468   5.239   1.320   0.933 -0.4386  0.1786 -0.1360
   45MOL   H101 5469   5.200   1.178   1.040  0.2019  1.1822  0.3215
   45MOL   H102 5470   5.295   1.031   0.871 -0.8511  0.3650  0.3414
   45MOL   H103 5471   5.329   1.176   0.769  1.7945 -0.8059 -0.2399
   45MOL   C104 5472   5.457   1.158   0.946 -0.4068  0.3703  0.4422
   45MOL   C105 5473   5.579   1.090   0.879 -0.0247  0.6058  0.4382
   45MOL   H106 5474   5.472   1.265   0.960  1.6150  0.1630  0.0251
   45MOL   H107 5475   5.440   1.133   1.051  1.2218  0.5267  0.7544
   45MOL   H108 5476   5.562   0.983   0.877 -2.3428  0.9593 -0.3375
   45MOL   H109 5477   5.573   1.130   0.778  0.8128  1.2589  0.6471
   45MOL   C110 5478   5.710   1.122   0.937 -0.3929 -0.4753  0.1999
   45MOL   C111 5479   5.742   1.045   1.060 -0.1369  0.2529 -0.1602
   45MOL   H112 5480   5.787   1.110   0.861  0.9494 -0.3772  1.5256
   45MOL   H113 5481   5.722   1.227   0.962 -2.1229 -0.8875  2.9529
   45MOL   H114 5482   5.789   1.118   1.126  0.0666  2.6252 -2.8496
   45MOL   H115 5483   5.650   1.011   1.106  0.2104 -0.0885  0.2874
   45MOL   C116 5484   5.837   0.922   1.028 -0.2830 -1.0324  0.0959
   45MOL   C117 5485   5.846   0.825   1.152 -0.4603 -0.3545 -0.1695
   45MOL   H118 5486   5.794   0.847   0.962 -1.2685  0.5570 -1.1166
   45MOL   H119 5487   5.937   0.950   0.997  0.2666 -1.5314  1.3985
   45MOL   H120 5488   5.935   0.860   1.205 -1.7350  1.0311  1.1169
   45MOL   H121 5489   5.763   0.830   1.223 -1.7857  1.6313 -1.8026
   45MOL   H122 5490   5.872   0.722   1.129  1.3043  0.0320 -0.0116
   46MOL     C1 5491   3.689   2.199   2.709  0.6462 -0.1711 -0.3568
   46MOL     C2 5492   3.833   2.254   2.726 -0.0471 -0.4312  0.2273
   46MOL     H3 5493   3.644   2.193   2.808  1.1003 -2.2521 -0.2639
   46MOL     H4 5494   3.692   2.104   2.656 -0.2440 -0.9239  0.9277
   46MOL     H5 5495   3.838   2.349   2.779  1.0961 -0.0415 -0.5350
   46MOL     H6 5496   3.887   2.187   2.793 -0.2816 -1.3312 -0.4783
   46MOL     H7 5497   3.632   2.268   2.646 -0.5363 -0.9861 -0.1990
   46MOL     C8 5498   3.924   2.258   2.601 -0.6616 -0.1820  0.7085
   46MOL     C9 5499   4.074   2.296   2.637  0.3172  0.9375  0.3365
   46MOL    H10 5500   3.910   2.160   2.556  0.7075 -0.5369  1.0049
   46MOL    H11 5501   3.895   2.336   2.531  3.3696  0.4180 -0.4494
   46MOL    H12 5502   4.063   2.375   2.712 -2.6870 -0.2721  1.2189
   46MOL    H13 5503   4.129   2.214   2.684 -0.3262  0.3296  0.0316
   46MOL    C14 5504   4.161   2.332   2.514 -0.9979 -0.6103  0.4257
   46MOL    C15 5505   4.305   2.375   2.555  0.6811  0.1411 -0.4517
   46MOL    H16 5506   4.161   2.244   2.451  0.1985 -1.7612  1.9964
   46MOL    H17 5507   4.112   2.406   2.450 -0.2201 -1.3108 -0.9749
   46MOL    H18 5508   4.299   2.482   2.578 -0.6840 -0.2053  0.8960
   46MOL    H19 5509   4.338   2.316   2.640 -0.0517 -2.1645 -1.7400
   46MOL    C20 5510   4.400   2.364   2.439  0.0818 -0.5175  0.6478
   46MOL    C21 5511   4.537   2.436   2.475 -0.0809  0.4339 -0.9021
   46MOL    H22 5512   4.410   2.259   2.414  2.4361 -1.4417  4.9435
   46MOL    H23 5513   4.363   2.412   2.348  0.9692 -2.0782 -0.5520
   46MOL    H24 5514   4.527   2.535   2.519 -1.9835 -1.3663  2.9483
   46MOL    H25 5515   4.589   2.379   2.552 -0.0440  1.6974  0.0232
   46MOL    C26 5516   4.628   2.438   2.351 -0.7195 -0.1221 -0.4925
   46MOL    C27 5517   4.769   2.493   2.378 -0.2391 -0.1588 -0.3698
   46MOL    H28 5518   4.632   2.335   2.317  0.9073 -0.1129 -0.3317
   46MOL    H29 5519   4.579   2.499   2.274 -1.2214 -0.1424 -0.1961
   46MOL    H30 5520   4.780   2.594   2.416  0.4955 -0.1589 -0.5704
   46MOL    H31 5521   4.805   2.430   2.459  1.2575  1.6650  0.4058
   46MOL    C32 5522   4.867   2.482   2.261  0.3203 -0.4451 -0.0915
   46MOL    C33 5523   5.010   2.530   2.306 -0.3830  0.5883  0.1022
   46MOL    H34 5524   4.861   2.381   2.221 -2.7397 -0.4814  0.3393
   46MOL    H35 5525   4.833   2.547   2.180  2.4090 -1.0261 -1.4870
   46MOL    H36 5526   4.993   2.632   2.342 -0.1490 -0.4358  3.2235
   46MOL    H37 5527   5.039   2.472   2.394 -3.1643 -2.0983 -0.6813
   46MOL    C38 5528   5.116   2.522   2.190 -0.1238  0.2216 -0.2975
   46MOL    C39 5529   5.238   2.601   2.237  0.4190  0.5568  0.4540
   46MOL    H40 5530   5.147   2.419   2.167 -1.2627 -0.5617  1.5756
   46MOL    H41 5531   5.087   2.565   2.094  2.6407 -1.1794 -1.8415
   46MOL    H42 5532   5.223   2.704   2.271  0.6405  0.6608  0.2373
   46MOL    H43 5533   5.278   2.552   2.325  1.9276 -0.9329 -1.0437
   46MOL    C44 5534   5.346   2.589   2.127  0.1777  0.0390 -0.2426
   46MOL    C45 5535   5.479   2.655   2.150  0.0938 -0.7317 -1.0372
   46MOL    H46 5536   5.360   2.484   2.102 -1.6766 -0.2569 -0.1408
   46MOL    H47 5537   5.300   2.629   2.036  0.4548  1.2861  0.1595
   46MOL    H48 5538   5.462   2.762   2.160  0.6973 -0.7382  0.1006
   46MOL    H49 5539   5.514   2.610   2.243 -2.3503 -0.3528  0.0805
   46MOL    C50 5540   5.580   2.632   2.035  0.7447 -0.2847  0.2861
   46MOL    C51 5541   5.723   2.691   2.069  0.5371 -0.7411 -0.2781
   46MOL    H52 5542   5.588   2.529   2.001 -0.5269 -0.2331 -0.1913
   46MOL    H53 5543   5.532   2.688   1.954  0.6924  2.6390  2.2448
   46MOL    H54 5544   5.714   2.797   2.094 -1.0081 -1.5993  3.2105
   46MOL    H55 5545   5.762   2.645   2.161  1.9912 -0.7349 -0.8827
   46MOL    C56 5546   5.815   2.651   1.955  0.2258  0.1233  0.2141
   46MOL    C57 5547   5.964   2.685   1.965 -0.1320 -0.1096  0.0716
   46MOL    H58 5548   5.804   2.543   1.945 -0.4034  0.5291 -4.6368
   46MOL    H59 5549   5.781   2.682   1.856 -1.1047 -1.4467  0.1541
   46MOL    H60 5550   6.004   2.625   2.047  0.7040  0.2027 -0.1098
   46MOL    H61 5551   6.016   2.653   1.875 -1.5775 -2.2947 -0.0373
   46MOL    C62 5552   6.000   2.833   1.976 -0.7275 -0.1747  0.5031
   46MOL    C63 5553   6.148   2.856   1.995  0.7442 -0.2198 -0.5182
   46MOL    H64 5554   5.959   2.897   1.898  0.6911  2.5483  1.9257
   46MOL    H65 5555   5.953   2.882   2.062 -1.0152 -1.4904  1.1137
   46MOL    H66 5556   6.167   2.953   2.041  0.1355  0.6431 -2.0181
   46MOL    H67 5557   6.174   2.788   2.075 -1.6717  3.7709  3.8734
   46MOL    C68 5558   6.229   2.865   1.865  0.7491 -0.5941 -0.3770
   46MOL    C69 5559   6.377   2.847   1.883  0.5511  0.2335  0.3318
   46MOL    H70 5560   6.190   2.794   1.791 -1.5327 -0.5534  0.7394
   46MOL    H71 5561   6.205   2.963   1.824  0.9849 -1.0518 -1.6534
   46MOL    H72 5562   6.413   2.920   1.955 -1.0005  2.2088 -0.8377
   46MOL    H73 5563   6.402   2.746   1.916  0.2844  0.6195  1.7640
   46MOL    C74 5564   6.455   2.867   1.759 -0.1441  0.3195  0.5112
   46MOL    C75 5565   6.604   2.854   1.786  0.9429  0.8182 -0.2339
   46MOL    H76 5566   6.422   2.790   1.689  2.7353 -1.7847  1.3276
   46MOL    H77 5567   6.423   2.966   1.727 -1.1228  0.6935  2.5445
   46MOL    H78 5568   6.661   2.907   1.709  1.0114  0.7491 -0.2306
   46MOL    H79 5569   6.629   2.925   1.866 -1.7581 -0.1612  1.5506
   46MOL    C80 5570   6.644   2.711   1.799 -0.1927 -0.0399  0.1147
   46MOL    C81 5571   6.771   2.681   1.872 -0.3999  0.7953  0.2854
   46MOL    H82 5572   6.567   2.649   1.846  1.1276 -0.8776  1.1875
   46MOL    H83 5573   6.652   2.669   1.698  0.9749  0.9593 -0.2104
   46MOL    H84 5574   6.782   2.753   1.954 -0.1385 -1.6116  2.4411
   46MOL    H85 5575   6.755   2.584   1.920 -3.2168  0.3048 -1.5365
   46MOL    C86 5576   6.905   2.675   1.791 -0.4407 -0.3698  0.6330
   46MOL    C87 5577   7.019   2.609   1.865  0.4138 -0.4139 -0.2174
   46MOL    H88 5578   6.876   2.625   1.699 -1.0734  0.1856  0.5239
   46MOL    H89 5579   6.927   2.779   1.764  0.1916 -0.0997  2.1105
   46MOL    H90 5580   7.115   2.601   1.814  0.3161 -0.2081 -0.4329
   46MOL    H91 5581   7.043   2.673   1.950 -0.2585  0.7111 -0.8720
   46MOL    C92 5582   6.988   2.468   1.918 -0.0824  0.2489  0.5587
   46MOL    C93 5583   7.116   2.387   1.931 -0.1896 -0.8062  0.4687
   46MOL    H94 5584   6.929   2.477   2.010  0.7256  1.3814  0.9777
   46MOL    H95 5585   6.931   2.412   1.844  1.3534 -3.4828  2.1452
   46MOL    H96 5586   7.171   2.398   1.837  1.5941 -0.7114  1.4857
   46MOL    H97 5587   7.185   2.422   2.008 -0.7178  1.1959  0.0603
   46MOL    C98 5588   7.090   2.235   1.949 -0.3876 -0.2301 -0.1614
   46MOL    C99 5589   6.987   2.185   2.048 -0.5678 -0.1941 -0.7638
   46MOL   H100 5590   7.045   2.188   1.861 -0.0407  2.3518 -1.7815
   46MOL   H101 5591   7.188   2.194   1.971  0.4701  3.0347  2.3633
   46MOL   H102 5592   7.024   2.196   2.150  2.5148  1.8249 -2.0415
   46MOL   H103 5593   6.900   2.250   2.051 -0.0699  0.4870 -0.9961
   46MOL   C104 5594   6.933   2.037   2.023  0.6180 -0.1568  0.1689
   46MOL   C105 5595   7.052   1.937   2.017  0.0208  0.2105 -0.0286
   46MOL   H106 5596   6.869   2.003   2.105 -1.6512 -0.4678 -1.6720
   46MOL   H107 5597   6.884   2.032   1.926  2.3868  2.1309 -0.8784
   46MOL   H108 5598   7.111   1.966   1.930 -0.6835  3.0763  0.3831
   46MOL   H109 5599   7.118   1.937   2.104 -0.7431  0.0703  0.5616
   46MOL   C110 5600   6.990   1.795   2.002  1.2195 -0.0647 -0.0210
   46MOL   C111 5601   7.081   1.679   1.945  0.1082  0.0184  0.5321
   46MOL   H112 5602   6.956   1.757   2.098 -0.0521  0.7709 -0.1178
   46MOL   H113 5603   6.903   1.792   1.935  2.9779 -0.9245 -2.3408
   46MOL   H114 5604   7.178   1.677   1.994 -0.3142  0.4261  1.3990
   46MOL   H115 5605   7.031   1.586   1.970 -0.9154  0.5526  0.5098
   46MOL   C116 5606   7.105   1.692   1.791 -0.0708 -0.0680 -0.7835
   46MOL   C117 5607   7.155   1.561   1.726  0.4108 -0.4835 -0.3253
   46MOL   H118 5608   7.015   1.732   1.745 -0.6409 -1.3139 -0.7695
   46MOL   H119 5609   7.186   1.764   1.773  1.2136 -1.2997 -0.0251
   46MOL   H120 5610   7.185   1.575   1.622  0.5204  0.6036 -0.1495
   46MOL   H121 5611   7.237   1.517   1.783  0.6963  0.7089  0.1937
   46MOL   H122 5612   7.069   1.495   1.720  1.5609 -2.0100 -0.2971
   47MOL     C1 5613   4.995   7.397   0.526 -0.3919 -0.2248  0.4131
   47MOL     C2 5614   4.867   7.475   0.566  0.4045  0.7018 -0.6166
   47MOL     H3 5615   5.002   7.307   0.589  1.5108  0.7823  1.6856
   47MOL     H4 5616   5.083   7.460   0.543 -2.4488  2.3044  2.0694
   47MOL     H5 5617   4.776   7.442   0.516 -1.0780  0.1200  2.3062
   47MOL     H6 5618   4.849   7.468   0.674 -0.9441 -0.5490 -0.9019
   47MOL     H7 5619   4.999   7.365   0.422 -0.7031 -0.4530  0.4689
   47MOL     C8 5620   4.876   7.624   0.543  0.6037  0.3935 -0.8498
   47MOL     C9 5621   4.745   7.690   0.578  0.4658  0.6679 -0.0464
   47MOL    H10 5622   4.960   7.661   0.603 -0.4398 -0.1159  0.9722
   47MOL    H11 5623   4.898   7.644   0.438 -0.6264  0.7608 -1.0389
   47MOL    H12 5624   4.700   7.647   0.667 -2.1479  5.8290  1.3268
   47MOL    H13 5625   4.756   0.105   0.598 -3.0087  0.6238  2.6115
   47MOL    C14 5626   4.654   0.004   0.451  0.4945  0.4506  0.0322
   47MOL    C15 5627   4.507   0.047   0.493 -0.1792  0.0699 -0.5180
   47MOL    H16 5628   4.698   0.072   0.378 -1.6436  2.2609  0.3809
   47MOL    H17 5629   4.650   7.598   0.402  0.0942 -0.2869  1.4924
   47MOL    H18 5630   4.456   7.663   0.551  0.3058 -1.7562 -2.3997
   47MOL    H19 5631   4.522   0.130   0.561  1.0692  0.6661 -1.4946
   47MOL    C20 5632   4.412   0.095   0.379 -0.0555 -0.0608 -0.0161
   47MOL    C21 5633   4.279   0.132   0.442 -0.4483  0.5824  0.0791
   47MOL    H22 5634   4.455   0.188   0.342 -1.7795 -0.4578 -3.2112
   47MOL    H23 5635   4.388   0.020   0.304 -1.9194 -0.2306  0.7218
   47MOL    H24 5636   4.236   0.045   0.492 -1.1436  0.9461  0.1196
   47MOL    H25 5637   4.294   0.210   0.516 -1.3309  0.8754 -0.0455
   47MOL    C26 5638   4.174   0.187   0.346 -0.1709 -0.5329  0.0633
   47MOL    C27 5639   4.185   0.335   0.292 -0.2400  0.0898 -0.1671
   47MOL    H28 5640   4.165   0.124   0.257 -2.2031  0.7870 -0.6978
   47MOL    H29 5641   4.077   0.177   0.394 -0.0693 -3.0778 -0.1911
   47MOL    H30 5642   4.205   0.394   0.382 -1.1285 -0.7904  0.6212
   47MOL    H31 5643   4.261   0.352   0.216 -2.5212  1.5607 -2.1801
   47MOL    C32 5644   4.050   0.366   0.226 -0.1082 -0.0688  0.0417
   47MOL    C33 5645   4.049   0.513   0.194 -0.7432  0.6311 -0.7306
   47MOL    H34 5646   4.031   0.312   0.133 -0.5413  1.3665 -0.7199
   47MOL    H35 5647   3.970   0.337   0.294  0.5057 -2.3211 -0.1755
   47MOL    H36 5648   4.072   0.589   0.269 -0.7234 -0.0469 -0.0396
   47MOL    H37 5649   4.123   0.521   0.114 -1.2321 -0.0413 -1.2499
   47MOL    C38 5650   3.899   0.554   0.162  0.3665 -0.8323 -0.0866
   47MOL    C39 5651   3.795   0.557   0.277  0.2206 -0.6920 -0.2320
   47MOL    H40 5652   3.892   0.653   0.118 -1.9922 -1.1167 -0.4160
   47MOL    H41 5653   3.858   0.489   0.085  0.4629 -0.1659 -0.7005
   47MOL    H42 5654   3.798   0.455   0.315 -1.2911 -0.2141  1.1978
   47MOL    H43 5655   3.839   0.625   0.351  1.0982 -0.0864 -1.2863
   47MOL    C44 5656   3.658   0.608   0.242 -0.2861 -0.2687  0.3414
   47MOL    C45 5657   3.567   0.620   0.365 -0.3444  0.3002 -0.8672
   47MOL    H46 5658   3.675   0.705   0.193 -1.2189  1.2694  2.9628
   47MOL    H47 5659   3.620   0.529   0.178  2.9528 -1.3064 -0.4164
   47MOL    H48 5660   3.521   0.523   0.385  1.9011 -0.8459 -1.0616
   47MOL    H49 5661   3.619   0.636   0.460 -1.5416  1.5949 -0.4162
   47MOL    C50 5662   3.458   0.722   0.345 -0.2686  0.0187 -0.0463
   47MOL    C51 5663   3.501   0.873   0.356  0.9530  0.0949  0.2023
   47MOL    H52 5664   3.410   0.699   0.250  0.4406 -1.1215 -0.1407
   47MOL    H53 5665   3.382   0.711   0.422 -1.6093  1.5485 -1.1396
   47MOL    H54 5666   3.560   0.876   0.448 -0.3975  0.1215  1.0844
   47MOL    H55 5667   3.575   0.902   0.281 -0.3177  2.6321 -0.1182
   47MOL    C56 5668   3.391   0.973   0.347  0.1836  0.2634  0.5252
   47MOL    C57 5669   3.445   1.117   0.343 -0.1756  0.4608  0.0543
   47MOL    H58 5670   3.330   0.948   0.260  0.5675  0.6504  0.1372
   47MOL    H59 5671   3.336   0.965   0.440 -1.6533 -1.1384 -0.6412
   47MOL    H60 5672   3.518   1.144   0.419 -0.3670  2.4805 -0.4694
   47MOL    H61 5673   3.491   1.120   0.244 -1.1433  0.4788 -0.4052
   47MOL    C62 5674   3.332   1.219   0.339 -0.1756  0.0791  0.4761
   47MOL    C63 5675   3.369   1.368   0.313 -0.4228 -0.7770  0.0124
   47MOL    H64 5676   3.245   1.198   0.276  0.1634 -2.0929  0.7026
   47MOL    H65 5677   3.280   1.211   0.435 -1.1264  0.9771  0.0463
   47MOL    H66 5678   3.429   1.402   0.397  0.4248 -0.6275 -0.6561
   47MOL    H67 5679   3.443   1.359   0.234 -0.9937 -0.2671 -0.5852
   47MOL    C68 5680   3.254   1.462   0.273 -0.4321  0.6314 -0.5643
   47MOL    C69 5681   3.298   1.606   0.235  0.4533  0.1098 -0.1297
   47MOL    H70 5682   3.204   1.409   0.192  2.7566 -1.1238 -1.4544
   47MOL    H71 5683   3.179   1.465   0.353  1.5249 -1.1886  1.4092
   47MOL    H72 5684   3.377   1.639   0.302 -0.5842  2.0171  0.1757
   47MOL    H73 5685   3.350   1.613   0.140 -1.3698 -1.0184 -1.2485
   47MOL    C74 5686   3.173   1.698   0.233  0.5475 -0.1549  0.4467
   47MOL    C75 5687   3.215   1.852   0.213  0.2046  0.7631 -0.5424
   47MOL    H76 5688   3.109   1.674   0.148  0.3393  0.2538  0.4875
   47MOL    H77 5689   3.116   1.670   0.322 -0.2990  1.2365  0.3484
   47MOL    H78 5690   3.265   1.891   0.302 -1.5231  1.3549  0.2083
   47MOL    H79 5691   3.289   1.864   0.135 -0.8450 -2.7311 -2.1466
   47MOL    C80 5692   3.084   1.934   0.185  0.0027 -0.2333 -0.5163
   47MOL    C81 5693   2.964   1.908   0.276 -0.0617 -0.0722  0.2164
   47MOL    H82 5694   3.105   2.040   0.181 -0.8270 -0.1352 -2.4484
   47MOL    H83 5695   3.046   1.901   0.088  1.5954  0.6202 -1.4364
   47MOL    H84 5696   2.914   1.813   0.256  0.6820  0.0876 -2.5892
   47MOL    H85 5697   2.991   1.905   0.381 -2.5434  0.3014  0.9081
   47MOL    C86 5698   2.855   2.006   0.249 -0.6342 -0.4631 -0.2533
   47MOL    C87 5699   2.721   1.971   0.316 -0.5361  0.0717 -0.4774
   47MOL    H88 5700   2.888   2.106   0.277 -0.3752 -0.7157  0.3339
   47MOL    H89 5701   2.846   2.014   0.140  0.2707 -1.0210 -0.3741
   47MOL    H90 5702   2.705   1.865   0.296  3.5921 -0.3238 -2.1282
   47MOL    H91 5703   2.730   1.988   0.423 -3.5862  1.6255 -0.4118
   47MOL    C92 5704   2.604   2.071   0.276  0.5669  0.2257  0.6019
   47MOL    C93 5705   2.465   2.033   0.329 -0.9840  0.4860  0.1738
   47MOL    H94 5706   2.622   2.173   0.311  1.8245  0.0678  0.4531
   47MOL    H95 5707   2.593   2.075   0.168  1.0968 -0.8899  0.5061
   47MOL    H96 5708   2.433   1.938   0.286  3.6381 -1.1463  0.0984
   47MOL    H97 5709   2.475   2.021   0.437 -1.5472 -2.6597 -0.0789
   47MOL    C98 5710   2.354   2.138   0.304 -0.5407 -0.6528 -0.0332
   47MOL    C99 5711   2.216   2.076   0.329  0.2771  0.3862  0.7588
   47MOL   H100 5712   2.372   2.230   0.361  1.9035 -0.9778 -0.2278
   47MOL   H101 5713   2.362   2.175   0.202 -1.1473  0.0384  0.1662
   47MOL   H102 5714   2.195   1.991   0.264  0.6136 -0.5909  1.8908
   47MOL   H103 5715   2.224   2.042   0.433 -1.6377 -1.1499  0.4297
   47MOL   C104 5716   2.102   2.183   0.338 -0.0072 -0.0359 -0.7280
   47MOL   C105 5717   1.967   2.109   0.362  0.1163  1.0367 -0.1359
   47MOL   H106 5718   2.119   2.255   0.418 -0.0043 -1.4613  0.5666
   47MOL   H107 5719   2.095   2.239   0.244  0.4814  1.1574 -0.0561
   47MOL   H108 5720   1.966   2.025   0.293  3.0250  0.9206 -0.1142
   47MOL   H109 5721   1.970   2.083   0.468  1.9176 -0.4299 -0.5148
   47MOL   C110 5722   1.856   2.210   0.341 -1.1020 -0.0658  0.4045
   47MOL   C111 5723   1.725   2.148   0.369  0.2678 -0.0285  0.6996
   47MOL   H112 5724   1.865   2.310   0.384 -2.0626  1.2201 -2.2658
   47MOL   H113 5725   1.853   2.234   0.235  0.2447  0.8151  0.5397
   47MOL   H114 5726   1.712   2.055   0.313 -0.3386  1.6247 -1.9574
   47MOL   H115 5727   1.712   2.125   0.475  0.8584  0.3868  0.8612
   47MOL   C116 5728   1.606   2.245   0.334  0.4549  0.4212  0.5223
   47MOL   C117 5729   1.489   2.161   0.288 -0.2608  0.1951 -0.4335
   47MOL   H118 5730   1.570   2.314   0.410  0.1236 -0.9363  1.6162
   47MOL   H119 5731   1.636   2.306   0.248  0.2807  0.4303  0.4681
   47MOL   H120 5732   1.457   2.093   0.366  0.4333  0.5691  0.1816
   47MOL   H121 5733   1.408   2.217   0.240 -1.6325 -2.2899 -1.1143
   47MOL   H122 5734   1.527   2.090   0.215  0.7122 -1.5016  1.6942
   48MOL     C1 5735   1.127   0.238   3.823  0.4726  0.5081 -0.4749
   48MOL     C2 5736   0.999   0.166   3.768 -0.0784 -0.1049  0.3354
   48MOL     H3 5737   1.172   0.211   3.919 -0.2561 -0.4858 -0.4054
   48MOL     H4 5738   1.116   0.347   3.829  1.9479  0.6783 -0.7887
   48MOL     H5 5739   0.910   0.184   3.829 -0.9756 -3.1266 -0.0051
   48MOL     H6 5740   0.974   0.207   3.670  0.3146  0.5014  0.4886
   48MOL     H7 5741   1.210   0.217   3.756 -1.8561 -0.3319 -3.2069
   48MOL     C8 5742   1.010   0.015   3.748 -0.4678 -0.5266 -0.3291
   48MOL     C9 5743   1.037   7.646   3.886  0.0883  0.3912 -0.2677
   48MOL    H10 5744   0.916   7.667   3.709 -1.4592  2.1223 -0.7735
   48MOL    H11 5745   1.080   7.681   3.669  0.1531  0.6187 -0.1565
   48MOL    H12 5746   1.137   7.670   3.919 -0.1393 -1.5587  1.9561
   48MOL    H13 5747   0.981   7.675   3.975 -1.0316  1.4675 -1.2993
   48MOL    C14 5748   1.019   7.490   3.889 -0.6860 -0.3145 -0.1433
   48MOL    C15 5749   1.088   7.414   4.003  0.2646  0.0880  0.3660
   48MOL    H16 5750   0.910   7.486   3.884 -0.5681 -1.9975 -1.9446
   48MOL    H17 5751   1.047   7.446   3.793 -1.2865 -0.2019 -0.3729
   48MOL    H18 5752   1.196   7.425   3.993  0.4287 -1.4824  0.2428
   48MOL    H19 5753   1.047   7.447   4.098  0.3880 -1.0849  0.8426
   48MOL    C20 5754   1.044   7.263   3.995  0.3872 -0.3765  0.5506
   48MOL    C21 5755   1.112   7.170   4.098 -0.2599 -0.1642  0.5842
   48MOL    H22 5756   0.936   7.248   4.004  0.0852  1.4050  0.0947
   48MOL    H23 5757   1.068   7.218   3.898 -3.3581 -1.9260  0.2764
   48MOL    H24 5758   1.079   7.194   4.199 -1.4542 -1.0325  0.4010
   48MOL    H25 5759   1.062   7.074   4.091 -0.6553 -0.0619  1.9845
   48MOL    C26 5760   1.268   7.164   4.106 -0.1679  0.0257  0.0818
   48MOL    C27 5761   1.313   7.084   4.224 -0.2048  0.1149  0.1076
   48MOL    H28 5762   1.298   7.110   4.016 -2.6893  0.9491 -1.3711
   48MOL    H29 5763   1.311   7.264   4.110 -2.9065  1.2572 -0.1240
   48MOL    H30 5764   1.241   7.086   4.305  0.3004 -1.4821  0.6241
   48MOL    H31 5765   1.332   6.981   4.195  2.6405  0.1836  1.5386
   48MOL    C32 5766   1.448   7.144   4.289 -0.6895 -0.0020 -0.1110
   48MOL    C33 5767   1.522   7.050   4.385 -0.1406 -0.5266 -0.2708
   48MOL    H34 5768   1.518   7.180   4.213  0.8160 -1.0662  0.7374
   48MOL    H35 5769   1.427   7.235   4.346 -2.0543 -0.2164 -0.2584
   48MOL    H36 5770   1.470   6.981   4.452 -0.0527  0.5253  0.8873
   48MOL    H37 5771   1.569   6.979   4.315 -1.2362 -1.6378  0.0977
   48MOL    C38 5772   1.628   7.113   4.478  0.5831 -0.2095  0.3516
   48MOL    C39 5773   1.575   7.186   4.598  0.3986 -0.4615  0.0664
   48MOL    H40 5774   1.686   7.025   4.506 -0.5838 -1.9832 -2.5704
   48MOL    H41 5775   1.692   7.174   4.414 -0.4147  0.8293  0.3215
   48MOL    H42 5776   1.515   7.275   4.584  1.0504  0.3234  2.0589
   48MOL    H43 5777   1.499   7.119   4.638 -0.3511  0.0374 -0.5238
   48MOL    C44 5778   1.682   7.205   4.698  0.2057  0.5729  0.2253
   48MOL    C45 5779   1.639   7.319   4.792 -0.0333 -0.2135  0.3418
   48MOL    H46 5780   1.696   7.110   4.750 -1.1354  0.6685  0.7776
   48MOL    H47 5781   1.776   7.231   4.649  0.3506  0.0943  0.2484
   48MOL    H48 5782   1.646   7.410   4.732  0.0187 -0.7704 -0.5066
   48MOL    H49 5783   1.535   7.303   4.821 -0.2253  2.0478  1.0191
   48MOL    C50 5784   1.728   7.325   4.924  0.6718  0.1767  0.7469
   48MOL    C51 5785   1.873   7.372   4.913 -1.0100 -0.1931  0.3010
   48MOL    H52 5786   1.665   7.383   4.991  0.4906 -0.1194  0.8355
   48MOL    H53 5787   1.727   7.228   4.974 -0.0076 -0.2684 -0.1021
   48MOL    H54 5788   1.923   7.346   5.007 -1.0904 -2.0790 -0.1674
   48MOL    H55 5789   1.924   7.326   4.829  0.0768  0.9601  0.3040
   48MOL    C56 5790   1.880   7.526   4.907  0.0886 -0.0846  0.1873
   48MOL    C57 5791   2.026   7.565   4.860  0.2773  0.0029  0.6937
   48MOL    H58 5792   1.811   7.566   4.833 -0.4097  0.0277  0.7132
   48MOL    H59 5793   1.856   7.556   5.008 -0.6437  0.9934 -0.2996
   48MOL    H60 5794   2.101   7.555   4.939  0.4362  0.8212  0.6551
   48MOL    H61 5795   2.057   7.485   4.793  0.1138 -0.5995  1.3292
   48MOL    C62 5796   2.031   7.688   4.771 -0.1942  0.2308  0.1345
   48MOL    C63 5797   2.173   0.034   4.722 -0.0584  0.6024  0.1595
   48MOL    H64 5798   1.972   7.679   4.680  0.6098 -0.5791 -0.3150
   48MOL    H65 5799   1.989   0.066   4.843 -0.1574 -1.0741  1.4487
   48MOL    H66 5800   2.235   0.052   4.810  1.9830  0.8550 -1.2979
   48MOL    H67 5801   2.223   7.635   4.688  1.7942  1.7577 -0.2767
   48MOL    C68 5802   2.187   0.151   4.616  0.0439  0.5090 -0.8281
   48MOL    C69 5803   2.331   0.214   4.599  0.0921 -0.2479  0.2595
   48MOL    H70 5804   2.157   0.115   4.518 -0.2618  1.9295 -1.2619
   48MOL    H71 5805   2.121   0.236   4.637 -1.1579 -0.8520  1.0705
   48MOL    H72 5806   2.397   0.127   4.593 -0.7033 -0.9126  0.8689
   48MOL    H73 5807   2.340   0.263   4.503 -1.2217 -0.0874  0.2017
   48MOL    C74 5808   2.367   0.296   4.719 -0.2703  0.0304 -0.8664
   48MOL    C75 5809   2.509   0.358   4.705 -0.2478  1.0288 -0.4172
   48MOL    H76 5810   2.287   0.371   4.717 -1.9001 -1.6560 -0.2175
   48MOL    H77 5811   2.369   0.240   4.813 -0.3697  3.1752  1.0898
   48MOL    H78 5812   2.574   0.271   4.704 -2.4379 -0.6303 -0.2079
   48MOL    H79 5813   2.514   0.419   4.615 -0.2259  0.0982 -1.0529
   48MOL    C80 5814   2.547   0.459   4.809  0.8276  0.3618  0.3645
   48MOL    C81 5815   2.602   0.420   4.944  0.9561  0.3054 -0.3295
   48MOL    H82 5816   2.619   0.532   4.772 -1.6336  1.7973 -1.7304
   48MOL    H83 5817   2.460   0.521   4.832  0.7881 -0.1397  1.6194
   48MOL    H84 5818   2.673   0.341   4.921  1.4573 -0.4255  3.4307
   48MOL    H85 5819   2.655   0.511   4.973  0.9695  0.1481  0.1453
   48MOL    C86 5820   2.503   0.372   5.048  0.9238 -0.1487 -0.2494
   48MOL    C87 5821   2.544   0.387   5.199  0.1778  0.1617  0.1639
   48MOL    H88 5822   2.417   0.438   5.034  0.4044 -0.8729 -0.5397
   48MOL    H89 5823   2.468   0.270   5.033  1.3351 -0.2221 -0.7354
   48MOL    H90 5824   2.615   0.310   5.231 -0.9569 -0.5838  0.9054
   48MOL    H91 5825   2.571   0.490   5.222  2.6616 -0.1152 -1.3167
   48MOL    C92 5826   2.419   0.369   5.275  0.3920 -0.0418 -0.4895
   48MOL    C93 5827   2.438   0.412   5.425 -0.4286 -0.7504  0.0641
   48MOL    H94 5828   2.325   0.415   5.243 -0.4881  1.2284  3.6788
   48MOL    H95 5829   2.389   0.264   5.267  0.5607 -0.1010 -0.3265
   48MOL    H96 5830   2.460   0.518   5.434  2.0858 -1.1072 -1.3599
   48MOL    H97 5831   2.338   0.388   5.460 -0.7642 -0.8504 -0.9395
   48MOL    C98 5832   2.559   0.344   5.497  0.3269  0.4117  0.5505
   48MOL    C99 5833   2.568   0.381   5.647  1.2291 -0.2994  0.7656
   48MOL   H100 5834   2.576   0.237   5.484  0.7403  0.6212 -0.6292
   48MOL   H101 5835   2.649   0.387   5.454 -0.5541  0.9630 -0.7923
   48MOL   H102 5836   2.596   0.485   5.663 -3.0865  0.7576  2.0141
   48MOL   H103 5837   2.469   0.372   5.691  2.2316  1.1330  3.3997
   48MOL   C104 5838   2.668   0.295   5.722  0.1842  0.4454 -0.5419
   48MOL   C105 5839   2.667   0.319   5.873 -0.6100  0.1961 -0.2224
   48MOL   H106 5840   2.644   0.188   5.719 -1.6607  0.8274 -0.4057
   48MOL   H107 5841   2.763   0.324   5.679 -0.0132  1.3368 -0.3777
   48MOL   H108 5842   2.694   0.424   5.881  0.8818 -0.2806  1.3045
   48MOL   H109 5843   2.568   0.310   5.919 -0.1076  1.3229  1.0768
   48MOL   C110 5844   2.775   0.238   5.944  0.1785 -0.2590 -0.5255
   48MOL   C111 5845   2.830   0.309   6.069  0.7378  0.8689  0.4725
   48MOL   H112 5846   2.739   0.137   5.962 -0.2580  0.0042  0.1302
   48MOL   H113 5847   2.863   0.231   5.881  0.9142 -3.8554  0.8021
   48MOL   H114 5848   2.866   0.407   6.041  2.5440  0.3419  0.9232
   48MOL   H115 5849   2.739   0.335   6.124 -0.3124 -0.6063 -0.4940
   48MOL   C116 5850   2.929   0.234   6.154 -0.3711  0.8053 -0.1335
   48MOL   C117 5851   3.073   0.219   6.104  0.3807 -0.9739  0.0234
   48MOL   H118 5852   2.932   0.286   6.250 -1.0492 -0.8408  0.7938
   48MOL   H119 5853   2.885   0.137   6.178 -0.9081  1.0555 -0.0995
   48MOL   H120 5854   3.134   0.307   6.087 -1.0969  0.4806  2.0073
   48MOL   H121 5855   3.117   0.163   6.187  0.1711  1.4784  1.8460
   48MOL   H122 5856   3.076   0.152   6.019 -0.7632 -1.5526  0.4239
   49MOL     C1 5857   3.044   0.471   6.502  0.5695  0.5588  0.1399
   49MOL     C2 5858   3.133   0.405   6.601  0.5015  1.3278  0.2956
   49MOL     H3 5859   3.029   0.578   6.516 -3.4567  0.6260 -3.5211
   49MOL     H4 5860   2.946   0.423   6.505 -0.1361  1.7222 -2.8656
   49MOL     H5 5861   3.235   0.436   6.575  0.9531  0.8415  1.4683
   49MOL     H6 5862   3.113   0.429   6.705 -1.0464  0.0093  0.3120
   49MOL     H7 5863   3.093   0.452   6.407  1.7203  1.5006  0.5311
   49MOL     C8 5864   3.129   0.249   6.587 -0.0238 -0.5216  0.0411
   49MOL     C9 5865   3.220   0.190   6.697 -0.3702  0.1511 -0.2041
   49MOL    H10 5866   3.024   0.223   6.574 -0.7828  2.8617 -0.9521
   49MOL    H11 5867   3.180   0.226   6.493  1.7294 -1.4476  1.1987
   49MOL    H12 5868   3.318   0.236   6.708 -1.3127  1.4927  3.1225
   49MOL    H13 5869   3.175   0.196   6.796 -0.2224 -0.2676 -0.1118
   49MOL    C14 5870   3.240   0.049   6.663 -0.6497  0.0796  0.1502
   49MOL    C15 5871   3.322   7.680   6.775  0.4398 -0.3807  0.5634
   49MOL    H16 5872   3.149   7.685   6.639 -1.1759  0.4037  1.3407
   49MOL    H17 5873   3.312   0.046   6.582  1.7961  1.4228  2.2178
   49MOL    H18 5874   3.417   0.038   6.795  0.7713 -0.0642 -1.6834
   49MOL    H19 5875   3.260   7.677   6.865  1.2539  0.4813  1.1608
   49MOL    C20 5876   3.366   7.535   6.755 -0.1271 -0.3417 -0.1945
   49MOL    C21 5877   3.426   7.469   6.876  0.2676 -0.0331 -0.6527
   49MOL    H22 5878   3.294   7.467   6.709 -0.9925  0.0958  0.4998
   49MOL    H23 5879   3.440   7.547   6.676 -1.2964  0.8102 -1.1452
   49MOL    H24 5880   3.498   7.532   6.928 -0.4239 -0.1777  0.4996
   49MOL    H25 5881   3.360   7.456   6.961  1.0792  0.8463  0.1260
   49MOL    C26 5882   3.496   7.335   6.848 -0.0031 -0.1673  0.3195
   49MOL    C27 5883   3.552   7.279   6.979 -0.5107 -0.3094 -0.5170
   49MOL    H28 5884   3.417   7.273   6.806  0.6442 -0.9055  0.1975
   49MOL    H29 5885   3.573   7.343   6.772  0.3597 -1.0386  0.5879
   49MOL    H30 5886   3.637   7.334   7.017 -1.2067 -0.0457  0.6689
   49MOL    H31 5887   3.478   7.295   7.057 -1.0045 -1.8186 -0.6617
   49MOL    C32 5888   3.585   7.128   6.960  0.1962 -0.2699 -0.0572
   49MOL    C33 5889   3.670   7.076   7.082  0.2612  0.0351  0.1014
   49MOL    H34 5890   3.488   7.078   6.956 -0.4387  0.9114  0.4107
   49MOL    H35 5891   3.636   7.112   6.864  2.2879  1.8942  0.6395
   49MOL    H36 5892   3.762   7.134   7.090 -0.4837  1.4687 -1.6669
   49MOL    H37 5893   3.625   7.078   7.181  2.6968  0.8591  1.2312
   49MOL    C38 5894   3.703   6.929   7.060 -0.4427  0.2563  0.6787
   49MOL    C39 5895   3.774   6.876   7.183  0.4610  0.1660 -0.9362
   49MOL    H40 5896   3.607   6.880   7.046 -0.7899  1.1706 -0.2506
   49MOL    H41 5897   3.767   6.922   6.972  0.9099  0.9468  1.5871
   49MOL    H42 5898   3.867   6.933   7.193  0.7389 -0.2420 -1.1935
   49MOL    H43 5899   3.708   6.879   7.269  1.5102  0.1407 -0.1279
   49MOL    C44 5900   3.815   6.723   7.171 -0.3414  0.8748  0.5720
   49MOL    C45 5901   3.880   6.660   7.302 -0.3524  0.0496 -0.2221
   49MOL    H46 5902   3.724   6.677   7.132  0.5650 -2.0652  1.8167
   49MOL    H47 5903   3.882   6.718   7.085  0.2310  2.8595  0.8851
   49MOL    H48 5904   3.963   6.718   7.342 -2.1957  1.9717  0.8876
   49MOL    H49 5905   3.813   6.667   7.387  0.4827 -0.4004  0.4830
   49MOL    C50 5906   3.902   6.507   7.291  0.0014 -0.2941  0.3613
   49MOL    C51 5907   3.990   6.441   7.406 -0.3447 -0.3961  0.8527
   49MOL    H52 5908   3.807   6.453   7.287 -1.5473  2.3785 -0.4832
   49MOL    H53 5909   3.947   6.471   7.198 -0.6106 -1.8351  0.6430
   49MOL    H54 5910   4.093   6.464   7.382 -0.2728 -0.5653  0.9953
   49MOL    H55 5911   3.968   6.471   7.509  0.0707  2.0774  0.2502
   49MOL    C56 5912   3.977   6.294   7.409 -0.0819  0.2778 -0.2198
   49MOL    C57 5913   4.077   6.240   7.508 -0.3854 -0.0481  0.2184
   49MOL    H58 5914   3.875   6.268   7.436  0.0346  1.5064  1.4310
   49MOL    H59 5915   3.998   6.255   7.309 -1.0527 -2.2190  0.5005
   49MOL    H60 5916   4.177   6.268   7.476  0.0095  2.6021  3.5015
   49MOL    H61 5917   4.058   6.280   7.608  1.3885 -1.7147  1.2752
   49MOL    C62 5918   4.072   6.086   7.511  0.1863 -0.3706  0.2602
   49MOL    C63 5919   4.174   6.038   7.616 -0.3537  0.6094  0.2469
   49MOL    H64 5920   3.974   6.053   7.544  1.0128 -2.2587  0.8448
   49MOL    H65 5921   4.094   6.057   7.408  1.6731  0.1766  0.4123
   49MOL    H66 5922   4.275   6.061   7.584  0.0225  0.8590  1.5861
   49MOL    H67 5923   4.149   6.090   0.017 -1.4976 -0.4187  0.5308
   49MOL    C68 5924   4.156   5.890   7.650  0.0624  0.1679 -0.7654
   49MOL    C69 5925   4.287   5.835   0.023  0.2294 -0.0961  0.2672
   49MOL    H70 5926   4.071   5.879   0.025  0.1583  0.7622 -0.5431
   49MOL    H71 5927   4.130   5.834   7.560 -0.4101 -0.0130 -0.5164
   49MOL    H72 5928   4.379   5.857   7.660  0.9121  0.3854  1.5718
   49MOL    H73 5929   4.293   5.895   0.113 -0.0199  1.4056 -0.7079
   49MOL    C74 5930   4.287   5.686   0.055  0.2390  0.1280  0.1490
   49MOL    C75 5931   4.412   5.636   0.118 -0.6719 -0.0659 -0.6458
   49MOL    H76 5932   4.205   5.669   0.124  1.1956  0.9187  1.5027
   49MOL    H77 5933   4.254   5.635   7.656  0.4247  2.4094 -1.2499
   49MOL    H78 5934   4.498   5.676   0.065 -0.7476 -0.0293 -0.7419
   49MOL    H79 5935   4.411   5.669   0.222 -1.6039  0.0329 -0.6753
   49MOL    C80 5936   4.436   5.487   0.104 -0.2283  0.4589  0.1300
   49MOL    C81 5937   4.559   5.438   0.181  0.2924  0.2965  0.0895
   49MOL    H82 5938   4.356   5.426   0.147  1.7165 -2.2809 -0.0079
   49MOL    H83 5939   4.447   5.475   7.689 -0.9394  2.4058 -0.1767
   49MOL    H84 5940   4.647   5.496   0.153  1.6153 -2.2939 -1.4015
   49MOL    H85 5941   4.550   5.452   0.289  1.0595  2.4831 -0.1073
   49MOL    C86 5942   4.598   5.291   0.154  0.3380  0.0302  0.0106
   49MOL    C87 5943   4.722   5.254   0.232 -0.4213 -0.2122 -0.6044
   49MOL    H88 5944   4.511   5.233   0.181  0.3653 -0.1994 -0.3779
   49MOL    H89 5945   4.613   5.289   0.046  0.1732 -1.4579  0.0088
   49MOL    H90 5946   4.808   5.287   0.174  0.5786 -0.2971  0.7913
   49MOL    H91 5947   4.731   5.293   0.333 -1.8329 -0.1829 -0.4910
   49MOL    C92 5948   4.732   5.102   0.247  0.1425 -0.5886  0.2162
   49MOL    C93 5949   4.874   5.050   0.274  0.2485  0.1620 -0.4194
   49MOL    H94 5950   4.670   5.069   0.330  1.5661  0.0550  1.5829
   49MOL    H95 5951   4.689   5.044   0.166  0.6611  0.9601 -1.2149
   49MOL    H96 5952   4.929   5.119   0.339  2.3061 -1.9568  0.1570
   49MOL    H97 5953   4.868   4.955   0.327  2.3944  0.3173  0.1639
   49MOL    C98 5954   4.941   5.028   0.142  0.0901 -0.1002  0.9681
   49MOL    C99 5955   5.077   5.097   0.128 -0.5154  0.0859 -0.0027
   49MOL   H100 5956   4.972   4.924   0.133  1.2955  0.1655  1.9001
   49MOL   H101 5957   4.879   5.056   0.057 -0.5672 -1.8531  0.8477
   49MOL   H102 5958   5.061   5.199   0.162  1.4310  0.8844 -1.3783
   49MOL   H103 5959   5.153   5.045   0.187  0.5177 -1.0095 -2.2136
   49MOL   C104 5960   5.126   5.123   7.678 -0.6433  0.2053 -0.4977
   49MOL   C105 5961   5.058   5.247   7.613 -0.8045  0.2843  0.2092
   49MOL   H106 5962   5.234   5.141   7.685 -0.5250  1.0115 -3.5738
   49MOL   H107 5963   5.112   5.033   7.619  1.2343 -0.2934 -0.2264
   49MOL   H108 5964   4.951   5.248   7.631 -1.3598 -0.9542 -2.6291
   49MOL   H109 5965   5.104   5.337   7.653  1.4396 -0.5466 -0.3788
   49MOL   C110 5966   5.082   5.243   7.462 -0.5527  0.3463 -0.1975
   49MOL   C111 5967   5.009   5.347   7.378  0.2378 -0.4563 -0.3205
   49MOL   H112 5968   5.187   5.262   7.441 -0.2235 -1.7410 -0.5225
   49MOL   H113 5969   5.071   5.141   7.425  2.6559 -0.4186  0.7414
   49MOL   H114 5970   4.908   5.304   7.386  0.2279 -0.5118 -0.7340
   49MOL   H115 5971   4.995   5.444   7.426  0.0854 -0.7143  0.1650
   49MOL   C116 5972   5.069   5.358   7.243  0.4132 -0.2541  0.7814
   49MOL   C117 5973   5.007   5.475   7.156 -0.2627 -0.5957  1.1663
   49MOL   H118 5974   5.178   5.365   7.250  0.5898  0.1845 -1.9547
   49MOL   H119 5975   5.047   5.267   7.187 -0.8602  1.2655 -1.2606
   49MOL   H120 5976   5.015   5.575   7.198  1.6545 -0.0859 -0.3313
   49MOL   H121 5977   5.062   5.482   7.062  0.0071  1.0020  1.4271
   49MOL   H122 5978   4.901   5.455   7.145  0.3024 -2.9146 -0.2760
   50MOL     C1 5979   7.323   0.756   2.755 -0.8433  0.0005  0.4658
   50MOL     C2 5980   7.305   0.855   2.642 -0.5319 -0.3933  0.0956
   50MOL     H3 5981   7.228   0.725   2.798 -0.7266 -0.2571  0.5398
   50MOL     H4 5982   7.381   0.788   2.842  0.8951 -1.2460 -0.1989
   50MOL     H5 5983   7.278   0.954   2.681 -2.1836  0.0646 -2.0780
   50MOL     H6 5984   7.402   0.874   2.596 -0.5438 -1.6357 -0.4547
   50MOL     H7 5985   7.383   0.674   2.715 -1.6746 -0.6551  0.5406
   50MOL     C8 5986   7.196   0.820   2.537  0.0274  0.7138  0.1864
   50MOL     C9 5987   7.197   0.674   2.481 -0.4289 -0.6290 -0.6457
   50MOL    H10 5988   7.106   0.852   2.590 -0.8627 -0.4904 -0.5950
   50MOL    H11 5989   7.187   0.892   2.456 -2.5739 -0.1856 -0.3784
   50MOL    H12 5990   7.296   0.665   2.437 -0.6898  1.0915 -1.6341
   50MOL    H13 5991   7.190   0.610   2.569  1.9242  1.3951  1.0532
   50MOL    C14 5992   7.092   0.653   2.370  0.2263  0.2086  0.2404
   50MOL    C15 5993   7.126   0.527   2.288  0.4308 -0.0160  0.9341
   50MOL    H16 5994   6.995   0.639   2.417 -0.7267 -1.0981 -2.0027
   50MOL    H17 5995   7.064   0.739   2.309  0.1314  0.2375  0.3264
   50MOL    H18 5996   7.230   0.537   2.255 -0.5281  4.5973 -1.2019
   50MOL    H19 5997   7.120   0.440   2.354 -0.0915 -1.2617 -0.7208
   50MOL    C20 5998   7.033   0.509   2.165  0.5648 -0.3658 -0.1516
   50MOL    C21 5999   7.057   0.373   2.087 -0.2526 -0.2182 -0.0376
   50MOL    H22 6000   6.939   0.505   2.221  0.3337  2.5334 -0.2460
   50MOL    H23 6001   7.030   0.596   2.100  0.3463 -2.6098 -3.2063
   50MOL    H24 6002   7.164   0.371   2.068 -0.2528  0.4434 -0.1138
   50MOL    H25 6003   7.033   0.288   2.151 -0.1418 -1.3553 -1.4827
   50MOL    C26 6004   6.977   0.373   1.958  0.3640 -0.4541 -0.5321
   50MOL    C27 6005   7.006   0.256   1.863 -0.1647  0.6831 -0.2506
   50MOL    H28 6006   6.874   0.375   1.993  0.9191 -0.0123  1.1643
   50MOL    H29 6007   6.987   0.470   1.910  1.5216 -0.2737  0.0537
   50MOL    H30 6008   6.947   0.288   1.777 -1.3022  2.1539  1.0501
   50MOL    H31 6009   7.111   0.251   1.837 -0.1403  0.0045 -0.0337
   50MOL    C32 6010   6.943   0.120   1.913  0.0840  0.2553  0.6035
   50MOL    C33 6011   6.932   0.025   1.799  0.2224 -0.2016 -0.3555
   50MOL    H34 6012   6.999   0.068   1.991 -0.6722 -0.5504  0.6234
   50MOL    H35 6013   6.845   0.129   1.959 -0.5290 -0.2889 -0.5964
   50MOL    H36 6014   7.032   0.023   1.755 -0.3951 -0.4324 -1.8058
   50MOL    H37 6015   6.919   7.618   1.842  2.6975 -0.0901  0.7628
   50MOL    C38 6016   6.819   0.048   1.697 -0.7698 -0.2860 -0.6118
   50MOL    C39 6017   6.834   7.639   1.584 -0.3816 -0.2993  0.1278
   50MOL    H40 6018   6.725   0.042   1.753 -1.1079  2.6047 -0.7505
   50MOL    H41 6019   6.823   0.143   1.644  2.3551 -1.1215 -1.9634
   50MOL    H42 6020   6.930   7.649   1.534  0.1365 -1.9117  0.7656
   50MOL    H43 6021   6.836   7.538   1.627  1.4494 -0.3000  0.0612
   50MOL    C44 6022   6.723   7.657   1.478 -0.1383 -0.3087  0.3369
   50MOL    C45 6023   6.720   7.543   1.385 -0.7719 -0.5157  1.1153
   50MOL    H46 6024   6.622   7.661   1.520  0.5357  0.4841  1.9191
   50MOL    H47 6025   6.731   0.063   1.430 -2.9205 -0.2569 -0.1234
   50MOL    H48 6026   6.822   7.534   1.348  0.0583  1.6978  2.7241
   50MOL    H49 6027   6.700   7.451   1.440 -0.6485 -0.5092  1.1709
   50MOL    C50 6028   6.617   7.571   1.277 -0.0970 -0.3171 -0.5818
   50MOL    C51 6029   6.631   7.490   1.146 -0.4035  0.8194  0.0198
   50MOL    H52 6030   6.516   7.549   1.313  0.7277 -1.0098  1.3625
   50MOL    H53 6031   6.600   7.675   1.249  0.6925 -0.7940 -2.8716
   50MOL    H54 6032   6.546   7.501   1.078 -1.8309  0.7485  1.7590
   50MOL    H55 6033   6.724   7.518   1.097 -0.7314 -0.5004 -1.3919
   50MOL    C56 6034   6.643   7.332   1.164 -0.1077 -0.6086  0.2750
   50MOL    C57 6035   6.506   7.270   1.212  0.6930  0.6287  0.1250
   50MOL    H58 6036   6.679   7.292   1.069 -2.3899 -1.8241 -0.1054
   50MOL    H59 6037   6.725   7.312   1.233 -0.4910 -2.7045  0.1440
   50MOL    H60 6038   6.519   7.169   1.250  1.5485 -0.1201 -2.0831
   50MOL    H61 6039   6.468   7.321   1.301 -0.9273 -0.0657 -0.1369
   50MOL    C62 6040   6.397   7.267   1.096  0.2196 -0.3627  0.1774
   50MOL    C63 6041   6.257   7.243   1.154  0.0536  1.4204  0.0297
   50MOL    H64 6042   6.394   7.354   1.030 -0.9001  0.3517  1.1418
   50MOL    H65 6043   6.420   7.190   1.022  1.6332  0.0286  0.1958
   50MOL    H66 6044   6.256   7.151   1.212 -0.5872  1.0420 -0.5797
   50MOL    H67 6045   6.234   7.323   1.225 -2.4760  0.6991  0.0906
   50MOL    C68 6046   6.143   7.248   1.056 -0.5332  0.1901 -0.0678
   50MOL    C69 6047   6.087   7.385   1.020  0.3760 -0.5095 -0.2725
   50MOL    H70 6048   6.168   7.205   0.960 -2.1471 -1.4009  0.1959
   50MOL    H71 6049   6.067   7.176   1.086  0.1213 -0.9998 -1.2666
   50MOL    H72 6050   6.056   7.434   1.112 -0.9703 -2.8829  0.5795
   50MOL    H73 6051   6.165   7.453   0.985  0.0904 -0.3979 -0.7071
   50MOL    C74 6052   5.966   7.384   0.924 -0.6864 -0.0182  0.5678
   50MOL    C75 6053   5.894   7.515   0.912 -0.4477 -0.1607  0.9501
   50MOL    H76 6054   5.968   7.338   0.825 -0.7651 -1.4661  1.2293
   50MOL    H77 6055   5.896   7.312   0.966  0.4111 -1.9369 -0.8244
   50MOL    H78 6056   5.889   7.565   1.009 -0.9764  2.8093 -0.5615
   50MOL    H79 6057   5.959   7.585   0.860  0.7178 -0.2184  2.3000
   50MOL    C80 6058   5.764   7.507   0.835 -0.6040 -0.1834 -0.1751
   50MOL    C81 6059   5.712   7.652   0.804 -0.3976 -0.4627  0.3293
   50MOL    H82 6060   5.784   7.448   0.745  0.1457  1.0377 -0.8247
   50MOL    H83 6061   5.698   7.448   0.898  1.3088 -0.8564  1.2503
   50MOL    H84 6062   5.615   7.645   0.854 -1.2811 -1.2814 -1.4381
   50MOL    H85 6063   5.776   0.033   0.854 -0.9876  1.2813 -1.3885
   50MOL    C86 6064   5.707   7.684   0.659 -0.0254  0.1437 -0.0796
   50MOL    C87 6065   5.623   0.114   0.626  0.5228  0.4961  0.7040
   50MOL    H88 6066   5.808   7.692   0.621  0.3879 -1.2430  0.6984
   50MOL    H89 6067   5.670   7.603   0.595  1.5516 -1.0376  0.4662
   50MOL    H90 6068   5.517   0.087   0.618  0.9018 -0.1788 -2.9910
   50MOL    H91 6069   5.628   0.187   0.707 -3.4845  1.7581 -0.0414
   50MOL    C92 6070   5.658   0.182   0.497  0.1483 -0.0649 -0.3206
   50MOL    C93 6071   5.801   0.252   0.491 -0.5953 -0.3122  0.1071
   50MOL    H94 6072   5.668   0.106   0.419 -2.4059  1.0873 -1.8311
   50MOL    H95 6073   5.581   0.248   0.455 -1.4962 -1.2316  0.7870
   50MOL    H96 6074   5.785   0.349   0.538 -2.7590 -1.2090  1.2919
   50MOL    H97 6075   5.881   0.198   0.541 -2.4306 -4.5675 -1.3616
   50MOL    C98 6076   5.861   0.279   0.351  0.4686 -0.1027 -0.0877
   50MOL    C99 6077   5.998   0.356   0.359 -0.7989  0.0381  0.2300
   50MOL   H100 6078   5.882   0.181   0.307  1.1578  1.0081 -2.2874
   50MOL   H101 6079   5.799   0.328   0.276  3.0116  0.6628 -1.7667
   50MOL   H102 6080   5.978   0.431   0.436  0.5875 -0.3124  0.9525
   50MOL   H103 6081   6.077   0.287   0.391  0.5430  0.9249 -1.1215
   50MOL   C104 6082   6.040   0.419   0.229  0.1799 -0.1680  1.1341
   50MOL   C105 6083   6.173   0.484   0.231 -0.0982 -0.7254 -0.3494
   50MOL   H106 6084   6.033   0.347   0.148 -2.6579  0.5427  0.6625
   50MOL   H107 6085   5.968   0.498   0.207  0.0013 -1.0955 -1.7918
   50MOL   H108 6086   6.257   0.414   0.232 -0.1629 -0.8456 -1.8051
   50MOL   H109 6087   6.196   0.535   0.138  1.8423 -1.3549 -0.2417
   50MOL   C110 6088   6.196   0.591   0.340 -0.1303 -0.5849  0.4161
   50MOL   C111 6089   6.338   0.657   0.324  0.2895 -0.3221  0.0247
   50MOL   H112 6090   6.118   0.667   0.330 -0.0602 -0.5136  0.4229
   50MOL   H113 6091   6.178   0.560   0.444  1.0214  1.9013  1.3966
   50MOL   H114 6092   6.405   0.571   0.331 -1.7124 -1.8462  1.2179
   50MOL   H115 6093   6.358   0.692   0.223 -1.1703 -0.2774 -0.2603
   50MOL   C116 6094   6.387   0.752   0.427 -0.3987 -0.4034 -0.6191
   50MOL   C117 6095   6.354   0.902   0.403 -0.4612  0.2425 -0.4843
   50MOL   H118 6096   6.351   0.728   0.527 -2.6183  0.2436 -1.2370
   50MOL   H119 6097   6.495   0.734   0.429 -0.1223  1.1934 -0.5440
   50MOL   H120 6098   6.246   0.908   0.398 -0.4077  1.4385 -0.5204
   50MOL   H121 6099   6.403   0.970   0.473 -0.1226 -0.3002 -0.1907
   50MOL   H122 6100   6.392   0.931   0.305  1.2492 -3.1349 -0.8952
   51MOL     C1 6101   1.991   6.834   4.436 -0.6521  0.0184 -0.1841
   51MOL     C2 6102   1.908   6.706   4.442  0.4993 -0.3147  0.5994
   51MOL     H3 6103   2.033   6.842   4.537  1.3836 -1.5395 -0.8668
   51MOL     H4 6104   1.936   6.926   4.417 -0.3816  0.7825  2.4416
   51MOL     H5 6105   1.958   6.626   4.496  0.5966 -0.9013 -0.3523
   51MOL     H6 6106   1.818   6.726   4.501  1.0230  2.5286  0.4931
   51MOL     H7 6107   2.059   6.830   4.351  0.7095  3.7028  0.6044
   51MOL     C8 6108   1.867   6.657   4.298 -0.2590 -0.2928  0.4829
   51MOL     C9 6109   1.755   6.733   4.230  0.3630 -1.0310  0.6344
   51MOL    H10 6110   1.957   6.638   4.239  0.0410  1.8000  0.2371
   51MOL    H11 6111   1.827   6.560   4.326 -2.5376  0.7312  0.9114
   51MOL    H12 6112   1.655   6.711   4.267 -1.6328  2.7166 -2.2483
   51MOL    H13 6113   1.763   6.842   4.228 -3.5868 -0.6926 -1.5221
   51MOL    C14 6114   1.747   6.697   4.078  0.4963  0.4329 -0.8199
   51MOL    C15 6115   1.647   6.775   3.994 -0.5134  0.0974  0.9019
   51MOL    H16 6116   1.842   6.703   4.026  0.8473 -1.4099 -0.4396
   51MOL    H17 6117   1.720   6.591   4.075  2.6029 -0.2250  1.3891
   51MOL    H18 6118   1.662   6.737   3.893 -0.3092  1.5098  0.3926
   51MOL    H19 6119   1.547   6.760   4.034 -1.2652  1.9911 -0.2418
   51MOL    C20 6120   1.669   6.925   3.979  0.1516  0.8093 -0.6719
   51MOL    C21 6121   1.578   6.997   3.879 -0.2945 -0.4185  0.4242
   51MOL    H22 6122   1.634   6.969   4.073 -2.2006  1.3657 -1.7766
   51MOL    H23 6123   1.776   6.948   3.975  0.2858  0.8629  2.2083
   51MOL    H24 6124   1.601   6.959   3.779 -0.9345  0.0857  0.0785
   51MOL    H25 6125   1.475   6.963   3.890 -0.8516  0.3773 -2.0204
   51MOL    C26 6126   1.591   7.154   3.869  0.1814 -0.3218  0.0181
   51MOL    C27 6127   1.486   7.216   3.780 -0.4657 -0.1568 -0.2454
   51MOL    H28 6128   1.587   7.205   3.965 -1.4885  0.7024 -0.5833
   51MOL    H29 6129   1.683   7.183   3.820 -0.2353  1.5467  0.2872
   51MOL    H30 6130   1.500   7.190   3.675  0.8476  0.2715 -0.1852
   51MOL    H31 6131   1.388   7.170   3.794  0.9048 -2.7646  1.0770
   51MOL    C32 6132   1.472   7.369   3.801 -0.0865  0.1968  0.2175
   51MOL    C33 6133   1.362   7.430   3.712 -0.0166  0.1468  0.5336
   51MOL    H34 6134   1.455   7.383   3.908  0.0765  2.0909  0.0206
   51MOL    H35 6135   1.569   7.417   3.784  0.0726 -0.3698 -0.5078
   51MOL    H36 6136   1.285   7.355   3.701 -0.4282  0.7543 -0.9828
   51MOL    H37 6137   1.308   7.514   3.756  0.3807  0.6440  0.0994
   51MOL    C38 6138   1.397   7.452   3.559  0.5616 -0.3610  0.3017
   51MOL    C39 6139   1.298   7.550   3.492  1.2818  0.0675 -0.3733
   51MOL    H40 6140   1.498   7.493   3.546 -0.1800  1.0808 -0.9865
   51MOL    H41 6141   1.402   7.355   3.509 -0.1890 -1.2200  1.8612
   51MOL    H42 6142   1.202   7.500   3.486  0.9899  0.8610 -3.1100
   51MOL    H43 6143   1.282   7.645   3.542 -0.3158 -0.8603  0.9221
   51MOL    C44 6144   1.347   7.586   3.354  0.7820 -0.2591 -0.0201
   51MOL    C45 6145   1.250   7.670   3.268  0.1592 -0.1681 -0.0224
   51MOL    H46 6146   1.442   7.638   3.370  0.1519  0.8112  0.2548
   51MOL    H47 6147   1.375   7.499   3.295  3.5487  1.0576 -0.7710
   51MOL    H48 6148   1.155   7.621   3.252  1.2896 -1.8879 -1.7220
   51MOL    H49 6149   1.229   0.077   3.309  1.2501  0.2436 -0.4293
   51MOL    C50 6150   1.308   7.689   3.129  0.0677 -0.3777  0.5531
   51MOL    C51 6151   1.230   0.088   3.028 -0.6018  0.6437  0.2297
   51MOL    H52 6152   1.403   0.051   3.129  0.2591 -0.6829 -1.4706
   51MOL    H53 6153   1.312   7.592   3.078  0.5877 -0.7263  1.2523
   51MOL    H54 6154   1.207   0.189   3.062  0.7019  1.1316 -0.2882
   51MOL    H55 6155   1.301   0.103   2.947 -0.9469  2.2146  0.2030
   51MOL    C56 6156   1.100   0.027   2.980 -0.5515 -0.5735  0.0530
   51MOL    C57 6157   1.019   0.117   2.886  0.2179  0.1160 -0.7002
   51MOL    H58 6158   1.127   7.625   2.931 -1.6055 -1.0074  0.2723
   51MOL    H59 6159   1.028   7.690   3.057  0.2736  0.0465  1.0687
   51MOL    H60 6160   0.984   0.209   2.934  0.7534  0.1939 -0.4645
   51MOL    H61 6161   1.097   0.141   2.814 -0.5173  2.5263 -0.7633
   51MOL    C62 6162   0.893   0.046   2.832  0.4972  0.8025  0.0823
   51MOL    C63 6163   0.811   0.140   2.750  0.8037  0.3719 -0.2911
   51MOL    H64 6164   0.928   7.650   2.778  1.7767  0.9685  0.6333
   51MOL    H65 6165   0.838   0.005   2.916  0.6570 -1.0382 -0.6957
   51MOL    H66 6166   0.777   0.216   2.821  0.4527 -0.4407  0.4165
   51MOL    H67 6167   0.876   0.196   2.683  0.3831  0.7182 -0.4145
   51MOL    C68 6168   0.691   0.082   2.674  0.2910  0.3228  0.4662
   51MOL    C69 6169   0.617   0.182   2.584  0.3128 -0.1623  0.1469
   51MOL    H70 6170   0.747   0.008   2.616 -0.0427 -0.1531  0.7474
   51MOL    H71 6171   0.628   0.026   2.744  0.0691 -0.4071 -0.3049
   51MOL    H72 6172   0.570   0.255   2.650 -1.1226 -2.2416  1.4645
   51MOL    H73 6173   0.685   0.235   2.517 -0.7536  1.1480  0.0816
   51MOL    C74 6174   0.513   0.107   2.502  0.5508 -0.4800 -0.2307
   51MOL    C75 6175   0.428   0.189   2.401  0.3062  0.1730  0.7981
   51MOL    H76 6176   0.566   0.040   2.434 -0.5083 -1.1723 -0.3982
   51MOL    H77 6177   0.439   0.047   2.555 -1.2136 -0.8104 -2.9287
   51MOL    H78 6178   0.502   0.252   2.353  2.0677 -2.0821  0.4455
   51MOL    H79 6179   0.386   0.126   2.322  0.6996  2.0117 -0.9084
   51MOL    C80 6180   0.314   0.264   2.476  0.4803 -0.4047 -0.1400
   51MOL    C81 6181   0.222   0.361   2.401  0.4635 -0.3071 -0.5893
   51MOL    H82 6182   0.248   0.181   2.502  0.7585  0.4017  3.4138
   51MOL    H83 6183   0.347   0.319   2.564  2.2834 -3.0964  0.9221
   51MOL    H84 6184   0.181   0.427   2.478  2.2095 -1.2947  1.2562
   51MOL    H85 6185   0.283   0.418   2.331  1.1349 -0.8902 -0.4871
   51MOL    C86 6186   0.107   0.297   2.326 -0.2038 -0.2308 -0.0694
   51MOL    C87 6187   7.670   0.285   2.400 -0.5006  0.2655 -0.1440
   51MOL    H88 6188   0.102   0.353   2.233  1.7175  0.8271  0.4263
   51MOL    H89 6189   0.133   0.195   2.299  0.8930 -0.6172  2.2834
   51MOL    H90 6190   7.680   0.218   2.486 -2.9791  0.0374  0.0097
   51MOL    H91 6191   7.640   0.381   2.442  2.8031  1.4414 -0.3590
   51MOL    C92 6192   7.556   0.229   2.317 -0.2051  0.5214  0.8880
   51MOL    C93 6193   7.496   0.322   2.206  0.6333  0.1008 -0.7739
   51MOL    H94 6194   7.588   0.135   2.271 -0.5069  1.0595 -0.4547
   51MOL    H95 6195   7.472   0.205   2.382  0.6116 -1.2329  1.3291
   51MOL    H96 6196   7.435   0.394   2.260  2.2453  0.0330  1.1831
   51MOL    H97 6197   7.571   0.386   2.159 -0.0130  0.2685 -1.6016
   51MOL    C98 6198   7.411   0.248   2.103  0.1010 -0.1842 -0.2761
   51MOL    C99 6199   7.469   0.125   2.028 -0.2173 -0.0900 -0.2995
   51MOL   H100 6200   7.321   0.217   2.157 -0.2812 -0.6935 -1.1907
   51MOL   H101 6201   7.377   0.321   2.030  0.6289  0.2201 -0.1171
   51MOL   H102 6202   7.558   0.162   1.977 -2.1401  2.6653 -1.8476
   51MOL   H103 6203   7.492   0.050   2.103  1.2273  0.8776  0.2421
   51MOL   C104 6204   7.384   0.065   1.919  0.1505  0.3159 -0.3072
   51MOL   C105 6205   7.436   7.623   1.872 -0.1205  0.4440  0.1497
   51MOL   H106 6206   7.282   0.059   1.958  0.6207 -0.9130  0.7824
   51MOL   H107 6207   7.385   0.127   1.829 -0.4340  0.6985 -0.0592
   51MOL   H108 6208   7.524   7.626   1.809 -0.8960  2.6763 -0.9011
   51MOL   H109 6209   7.460   7.565   1.961  1.4678  1.3278  0.3155
   51MOL   C110 6210   7.335   7.564   1.783 -0.9433  0.8073  0.5746
   51MOL   C111 6211   7.309   7.639   1.646  0.2863  0.0698 -0.8225
   51MOL   H112 6212   7.360   7.459   1.763 -2.5780  0.5275 -0.1086
   51MOL   H113 6213   7.241   7.552   1.837 -1.5145  1.4559 -0.2679
   51MOL   H114 6214   7.260   0.042   1.669  0.1521 -0.0543 -0.6003
   51MOL   H115 6215   7.404   7.659   1.596  0.2079 -0.5524 -1.2189
   51MOL   C116 6216   7.226   7.554   1.556  0.1239 -0.0968  0.0781
   51MOL   C117 6217   7.185   7.628   1.418  0.5928 -0.8772 -0.6797
   51MOL   H118 6218   7.267   7.454   1.540 -1.2689 -0.6626 -0.0347
   51MOL   H119 6219   7.137   7.533   1.615 -0.3868 -0.7806 -0.9114
   51MOL   H120 6220   7.275   7.656   1.364 -0.9618  0.4512 -2.6223
   51MOL   H121 6221   7.132   7.571   1.342  1.3068 -1.1024 -1.0184
   51MOL   H122 6222   7.121   0.023   1.427 -0.7798 -1.9764  0.5716
   52MOL     C1 6223   7.435   5.710   3.572  0.2197 -0.6115 -0.4934
   52MOL     C2 6224   7.311   5.792   3.612 -0.1257  0.4622 -0.0513
   52MOL     H3 6225   7.489   5.760   3.491  0.4928  1.4192  0.9173
   52MOL     H4 6226   7.407   5.611   3.537 -2.4420 -0.4052  0.9858
   52MOL     H5 6227   7.262   5.824   3.520 -0.5422 -1.2229 -0.4316
   52MOL     H6 6228   7.237   5.736   3.670 -1.3803 -0.0564 -2.0818
   52MOL     H7 6229   7.507   5.701   3.653  0.1813 -1.5824 -0.5617
   52MOL     C8 6230   7.345   5.914   3.697  0.4174 -0.2142  0.4976
   52MOL     C9 6231   7.218   6.001   3.720  0.5408 -0.7422 -0.6804
   52MOL    H10 6232   7.393   5.884   3.790 -1.4315  3.2942  2.6902
   52MOL    H11 6233   7.413   5.973   3.636  0.9084 -1.8891 -0.6195
   52MOL    H12 6234   7.172   6.033   3.626 -1.4457 -1.3007  0.0761
   52MOL    H13 6235   7.146   5.945   3.779 -0.1693  1.1307  0.2666
   52MOL    C14 6236   7.243   6.130   3.799  0.3205 -0.2940  0.5266
   52MOL    C15 6237   7.117   6.222   3.792  0.2008 -0.3046  0.0848
   52MOL    H16 6238   7.268   6.099   3.900 -0.4645 -2.5970  0.0500
   52MOL    H17 6239   7.331   6.187   3.769  2.0365 -1.9600  2.2977
   52MOL    H18 6240   7.090   6.244   3.689 -2.2277 -1.5239  0.4094
   52MOL    H19 6241   7.037   6.160   3.834 -1.6323 -0.4682 -3.4081
   52MOL    C20 6242   7.139   6.354   3.865  0.2153  1.1032  0.5859
   52MOL    C21 6243   7.137   6.332   4.012 -0.0997  0.4552 -0.0579
   52MOL    H22 6244   7.239   6.389   3.839  0.4484  0.2742  0.3312
   52MOL    H23 6245   7.073   6.430   3.824  1.0351  0.4514 -2.1104
   52MOL    H24 6246   7.045   6.278   4.032  0.9357 -1.5200 -0.5540
   52MOL    H25 6247   7.218   6.267   4.045 -0.5643 -0.5296 -0.8538
   52MOL    C26 6248   7.145   6.467   4.099  0.2899 -0.2079  0.2109
   52MOL    C27 6249   7.146   6.431   4.249  0.2580 -0.4599 -0.1751
   52MOL    H28 6250   7.229   6.531   4.071 -1.9710  2.7952  0.1670
   52MOL    H29 6251   7.058   6.529   4.079  0.9201  1.0928  1.3827
   52MOL    H30 6252   7.052   6.402   4.295 -0.5486  1.6748 -0.3855
   52MOL    H31 6253   7.207   6.342   4.262  0.6144  0.0921  2.1119
   52MOL    C32 6254   7.193   6.556   4.328  0.1908  0.3279 -0.0371
   52MOL    C33 6255   7.234   6.537   4.475 -0.1910  0.4134  0.0522
   52MOL    H34 6256   7.281   6.608   4.291  0.1379  0.0626 -0.5402
   52MOL    H35 6257   7.110   6.627   4.337  0.3143  0.5829 -0.8656
   52MOL    H36 6258   7.177   6.453   4.514  0.5595  0.3159  0.9520
   52MOL    H37 6259   7.336   6.498   4.480 -0.0887  0.6943  0.1729
   52MOL    C38 6260   7.225   6.658   4.564  0.0505 -0.1873 -0.2550
   52MOL    C39 6261   7.230   6.624   4.716  0.6685  0.4451 -0.3309
   52MOL    H40 6262   7.305   6.731   4.559 -1.0561  0.9180 -2.9146
   52MOL    H41 6263   7.127   6.703   4.547 -0.5431 -1.6945 -0.9453
   52MOL    H42 6264   7.143   6.568   4.749  2.3524 -2.6672 -1.0043
   52MOL    H43 6265   7.311   6.555   4.739 -1.0479 -1.8792 -1.0670
   52MOL    C44 6266   7.258   6.749   4.805  0.5047  0.7584 -0.1004
   52MOL    C45 6267   7.226   6.716   4.949  0.4972  0.6322 -0.0174
   52MOL    H46 6268   7.362   6.779   4.790  1.2881 -1.6411  0.4067
   52MOL    H47 6269   7.188   6.831   4.785  0.3052  0.6870  0.3053
   52MOL    H48 6270   7.131   6.663   4.955  1.3198 -1.2357 -2.4564
   52MOL    H49 6271   7.304   6.647   4.978 -0.1471 -0.6169 -1.1592
   52MOL    C50 6272   7.230   6.840   5.038 -0.7351 -0.2722  0.2683
   52MOL    C51 6273   7.206   6.806   5.182 -0.7175  0.5559 -0.1464
   52MOL    H52 6274   7.329   6.884   5.030 -0.4630 -0.7386  1.0503
   52MOL    H53 6275   7.163   6.921   5.007 -1.2831 -0.1985  1.5955
   52MOL    H54 6276   7.104   6.767   5.192 -0.2176 -0.6100  0.4378
   52MOL    H55 6277   7.269   6.720   5.202  0.6176  1.0907 -1.9033
   52MOL    C56 6278   7.223   6.927   5.278 -0.2854  0.1051  0.4516
   52MOL    C57 6279   7.183   6.894   5.425 -0.3042 -0.4383 -0.0740
   52MOL    H58 6280   7.327   6.959   5.285 -0.0018 -0.7698  0.1958
   52MOL    H59 6281   7.168   7.019   5.256 -0.6376 -0.2993 -0.3374
   52MOL    H60 6282   7.074   6.882   5.421 -0.6117  1.0648  2.7607
   52MOL    H61 6283   7.222   6.799   5.459 -0.7810  0.1804  2.2941
   52MOL    C62 6284   7.218   7.015   5.511  0.3574  0.3986  0.7101
   52MOL    C63 6285   7.197   6.976   5.660 -0.2537  0.1589 -0.1125
   52MOL    H64 6286   7.322   7.043   5.493 -0.4622  1.8702 -2.0538
   52MOL    H65 6287   7.153   7.098   5.484  0.0594 -0.3081 -0.7727
   52MOL    H66 6288   7.097   6.933   5.664  0.7264 -2.0817  1.2805
   52MOL    H67 6289   7.265   6.894   5.683 -1.6286 -1.0120 -0.1357
   52MOL    C68 6290   7.216   7.101   5.755  0.1377  0.0412  0.7680
   52MOL    C69 6291   7.203   7.059   5.903 -0.2482  0.3176  0.1423
   52MOL    H70 6292   7.310   7.155   5.743  0.0511  0.1480  0.5824
   52MOL    H71 6293   7.142   7.166   5.708  1.2196  0.2099 -0.7505
   52MOL    H72 6294   7.105   7.019   5.930 -0.3324 -0.6648 -1.5508
   52MOL    H73 6295   7.275   6.980   5.921 -2.1171 -1.1933  1.1953
   52MOL    C74 6296   7.230   7.182   5.983 -0.0490 -0.6226 -0.7028
   52MOL    C75 6297   7.232   7.153   6.133 -0.6257  0.6593  0.3803
   52MOL    H76 6298   7.324   7.231   5.956 -0.3855  0.0176 -0.7262
   52MOL    H77 6299   7.144   7.245   5.957  0.3417  0.6014  0.8703
   52MOL    H78 6300   7.144   7.101   6.173 -0.0058 -1.4852 -0.9838
   52MOL    H79 6301   7.312   7.087   6.167 -0.7123  0.2012 -0.3065
   52MOL    C80 6302   7.235   7.277   6.219 -0.3637 -0.1963  0.3406
   52MOL    C81 6303   7.246   7.246   6.366 -0.3357  0.0786  0.3099
   52MOL    H82 6304   7.321   7.337   6.188  1.2860 -1.0831  3.0471
   52MOL    H83 6305   7.142   7.332   6.203 -0.0854  0.2016  0.0881
   52MOL    H84 6306   7.157   7.188   6.390  0.0852 -0.7672 -0.1249
   52MOL    H85 6307   7.333   7.187   6.394 -0.5759 -0.5915 -0.3214
   52MOL    C86 6308   7.242   7.367   6.459 -0.0380 -0.0818  0.0566
   52MOL    C87 6309   7.229   7.316   6.602  0.4176  0.0964  0.5428
   52MOL    H88 6310   7.328   7.431   6.439  1.8954 -2.1595  1.5616
   52MOL    H89 6311   7.155   7.428   6.435 -0.0535 -0.8224 -1.8368
   52MOL    H90 6312   7.139   7.254   6.601  0.9601 -0.7548  2.1921
   52MOL    H91 6313   7.308   7.245   6.627 -0.0281 -0.7155 -0.3203
   52MOL    C92 6314   7.215   7.432   6.706 -0.6321  0.1043 -0.4587
   52MOL    C93 6315   7.189   7.378   6.851 -0.4147 -0.2342 -0.2209
   52MOL    H94 6316   7.304   7.495   6.701 -0.4016 -0.2764 -1.2268
   52MOL    H95 6317   7.135   7.500   6.680 -0.6860 -0.7730 -2.6408
   52MOL    H96 6318   7.097   7.320   6.862 -0.5667  0.3900  2.0916
   52MOL    H97 6319   7.271   7.307   6.862  0.4868  1.0570  1.6239
   52MOL    C98 6320   7.192   7.493   6.956  0.1223 -0.1817  0.0498
   52MOL    C99 6321   7.195   7.443   7.097 -0.0781  0.0975  0.5439
   52MOL   H100 6322   7.287   7.542   6.936 -0.1171  0.8932  1.4394
   52MOL   H101 6323   7.106   7.558   6.938 -0.5961 -0.7248  1.4316
   52MOL   H102 6324   7.118   7.366   7.107 -0.2389 -0.3883 -3.6661
   52MOL   H103 6325   7.290   7.392   7.113 -0.6259 -1.2946 -0.5568
   52MOL   C104 6326   7.195   7.549   7.214 -0.3990 -0.2236  0.0410
   52MOL   C105 6327   7.230   7.475   7.346 -0.4149  0.1903 -0.1202
   52MOL   H106 6328   7.263   7.631   7.193  1.7883 -1.8583  0.6232
   52MOL   H107 6329   7.102   7.605   7.224  0.2250  1.2263 -1.9109
   52MOL   H108 6330   7.159   7.393   7.355  0.8684 -0.8740  0.3877
   52MOL   H109 6331   7.329   7.430   7.339 -1.5129 -2.2187 -0.5951
   52MOL   C110 6332   7.203   7.560   7.468  0.0475  0.0178 -0.5546
   52MOL   C111 6333   7.242   7.498   7.599  0.8314  0.1530 -0.1144
   52MOL   H112 6334   7.257   7.654   7.460  0.1216 -0.0419 -0.7532
   52MOL   H113 6335   7.098   7.589   7.471  0.0518 -0.0932  1.1580
   52MOL   H114 6336   7.188   7.409   7.632  2.8504 -0.8154  0.6989
   52MOL   H115 6337   7.342   7.458   7.579  0.8699  0.3708 -0.3497
   52MOL   C116 6338   7.243   7.591   0.037 -0.0651 -0.1101  0.1947
   52MOL   C117 6339   7.265   7.499   0.154 -0.2713 -0.1038  0.4263
   52MOL   H118 6340   7.323   7.664   0.027 -0.1026  0.0965  1.2700
   52MOL   H119 6341   7.150   7.649   0.039  1.1884  1.9318  2.2005
   52MOL   H120 6342   7.219   7.400   0.148 -1.4245  0.4706 -0.5092
   52MOL   H121 6343   7.373   7.486   0.152 -0.4551 -1.7092  0.9041
   52MOL   H122 6344   7.221   7.537   0.246 -0.9479  1.2986 -0.4489
   53MOL     C1 6345   1.306   3.405   0.876 -0.2912  0.3885 -0.3164
   53MOL     C2 6346   1.160   3.368   0.849 -0.0716 -0.1734 -0.3714
   53MOL     H3 6347   1.330   3.489   0.811  3.3263 -0.5290 -0.3088
   53MOL     H4 6348   1.370   3.320   0.849  2.1314  2.1972 -0.4200
   53MOL     H5 6349   1.093   3.455   0.853  0.9565  0.5492  1.8453
   53MOL     H6 6350   1.148   3.334   0.746 -0.3539  0.9653 -0.7233
   53MOL     H7 6351   1.320   3.433   0.981  1.7215  0.4921 -0.5774
   53MOL     C8 6352   1.097   3.259   0.940  0.8199 -0.4933 -0.0162
   53MOL     C9 6353   0.962   3.192   0.896 -0.1764 -0.5029 -0.0907
   53MOL    H10 6354   1.169   3.179   0.958  1.3054  0.2796  1.5739
   53MOL    H11 6355   1.084   3.308   1.036 -0.5716  0.6734 -0.7644
   53MOL    H12 6356   0.881   3.263   0.878 -0.6355 -1.5892 -2.5278
   53MOL    H13 6357   0.985   3.144   0.801 -1.4080 -0.6660 -0.3161
   53MOL    C14 6358   0.921   3.078   0.996 -0.2766  0.2128  0.1352
   53MOL    C15 6359   0.791   3.007   0.958 -0.5836 -0.1872 -0.2544
   53MOL    H16 6360   1.003   3.007   1.001 -0.7878 -0.3331  0.9035
   53MOL    H17 6361   0.908   3.119   1.095 -3.8352 -1.0104  0.2579
   53MOL    H18 6362   0.718   3.088   0.962  0.6349  1.0433 -1.9542
   53MOL    H19 6363   0.809   2.956   0.863 -0.8826  0.2629 -0.5534
   53MOL    C20 6364   0.746   2.891   1.055 -0.0689  0.3410  0.7069
   53MOL    C21 6365   0.637   2.801   0.995 -0.4120  0.0245  0.0453
   53MOL    H22 6366   0.827   2.833   1.098  0.0028  2.1185  3.0680
   53MOL    H23 6367   0.709   2.946   1.141 -2.4770 -1.4005  0.8301
   53MOL    H24 6368   0.559   2.865   0.954 -1.6438  0.2928  2.7439
   53MOL    H25 6369   0.671   2.745   0.908 -0.8581  0.6779 -0.5621
   53MOL    C26 6370   0.570   2.721   1.112 -0.0500  1.3690 -1.0062
   53MOL    C27 6371   0.438   2.672   1.063 -0.0082  0.6525 -0.3921
   53MOL    H28 6372   0.640   2.642   1.139 -0.8137  1.1201  0.2736
   53MOL    H29 6373   0.553   2.789   1.195 -1.4215 -0.0058 -0.1441
   53MOL    H30 6374   0.382   2.749   1.010 -0.0384  0.6641 -0.3429
   53MOL    H31 6375   0.452   2.594   0.988  0.1524 -0.1032  0.4192
   53MOL    C32 6376   0.348   2.619   1.170 -0.1765  0.6711  0.1402
   53MOL    C33 6377   0.198   2.600   1.134  0.6155 -0.5465 -0.0938
   53MOL    H34 6378   0.397   2.525   1.197  1.2078  0.6194 -2.4257
   53MOL    H35 6379   0.353   2.681   1.260  0.1411  0.9082 -0.0423
   53MOL    H36 6380   0.187   2.554   1.036  1.4548  2.3385 -1.6156
   53MOL    H37 6381   0.163   2.538   1.216 -2.0855  2.8209  1.4672
   53MOL    C38 6382   0.121   2.733   1.136 -0.7317 -0.0661 -0.1691
   53MOL    C39 6383   7.657   2.717   1.114  0.2063  0.2812  0.7242
   53MOL    H40 6384   0.134   2.768   1.238 -0.9066  1.4048 -0.6426
   53MOL    H41 6385   0.150   2.812   1.067  2.1834  0.1846  1.2746
   53MOL    H42 6386   7.639   2.689   1.010  0.3972  0.9849  0.4965
   53MOL    H43 6387   7.617   2.633   1.171 -0.3156 -0.2370 -0.4092
   53MOL    C44 6388   7.580   2.848   1.163  0.7278  0.2535 -0.0011
   53MOL    C45 6389   7.430   2.824   1.150 -0.2572 -0.2719  0.2187
   53MOL    H46 6390   7.607   2.862   1.268 -0.6018 -1.6717  0.6389
   53MOL    H47 6391   7.600   2.936   1.102 -0.3193 -0.2427 -1.0889
   53MOL    H48 6392   7.390   2.740   1.207  2.7001 -1.4238  0.6446
   53MOL    H49 6393   7.386   2.918   1.185 -2.1605 -1.2961  0.6521
   53MOL    C50 6394   7.377   2.804   1.007 -0.3822  0.6620  0.0683
   53MOL    C51 6395   7.223   2.793   0.996  0.4771 -0.2912  0.0379
   53MOL    H52 6396   7.405   2.887   0.943 -0.4826  1.3080  0.8559
   53MOL    H53 6397   7.420   2.717   0.957 -0.5036  1.5531 -1.6159
   53MOL    H54 6398   7.194   2.721   1.073  0.7406 -0.3866  0.0479
   53MOL    H55 6399   7.176   2.882   1.040 -0.5591 -0.1471 -1.3309
   53MOL    C56 6400   7.169   2.768   0.852 -1.0496 -0.0903 -0.4674
   53MOL    C57 6401   7.023   2.718   0.859 -0.1223  0.5571 -0.3827
   53MOL    H58 6402   7.180   2.859   0.793 -0.7243 -0.0199 -0.3049
   53MOL    H59 6403   7.237   2.693   0.811  1.2442  0.3594  2.3461
   53MOL    H60 6404   6.994   2.686   0.759  2.1067 -0.7125 -0.6670
   53MOL    H61 6405   7.009   2.631   0.923  0.2868 -2.3096 -3.9923
   53MOL    C62 6406   6.919   2.820   0.900 -1.1959  0.2629 -0.6802
   53MOL    C63 6407   6.771   2.777   0.903  0.0837 -0.7346  0.0676
   53MOL    H64 6408   6.943   2.847   1.003 -0.8201 -0.6612 -0.5183
   53MOL    H65 6409   6.919   2.911   0.840 -2.8524 -1.0380 -2.7020
   53MOL    H66 6410   6.741   2.744   0.803  0.3029  2.4879 -1.1390
   53MOL    H67 6411   6.762   2.689   0.966 -1.3102 -1.6222 -1.3205
   53MOL    C68 6412   6.673   2.881   0.964 -0.6718 -0.4387 -0.3733
   53MOL    C69 6413   6.656   3.008   0.877 -0.1258 -0.1675  0.0523
   53MOL    H70 6414   6.575   2.835   0.977 -1.6757  1.5611 -0.7646
   53MOL    H71 6415   6.700   2.916   1.063 -0.1092 -1.8563 -0.0115
   53MOL    H72 6416   6.755   3.024   0.832  0.6234 -0.7162  1.4813
   53MOL    H73 6417   6.579   2.985   0.803 -1.3405 -1.3074  1.6620
   53MOL    C74 6418   6.619   3.134   0.956  0.1010  0.1873 -0.1126
   53MOL    C75 6419   6.619   3.253   0.860  0.3323 -0.0062  0.1992
   53MOL    H76 6420   6.525   3.118   1.010 -0.3426  2.0289 -0.3002
   53MOL    H77 6421   6.695   3.146   1.034 -0.4313  0.0953  0.4284
   53MOL    H78 6422   6.723   3.285   0.859  0.6447 -1.0197 -0.2270
   53MOL    H79 6423   6.590   3.220   0.760  2.2724  1.0563 -0.7343
   53MOL    C80 6424   6.536   3.369   0.915  0.4343  0.0376 -0.8024
   53MOL    C81 6425   6.603   3.449   1.025  0.5369 -0.5111 -0.3273
   53MOL    H82 6426   6.518   3.428   0.824 -2.3088 -2.6586 -2.0948
   53MOL    H83 6427   6.438   3.340   0.953 -0.0736 -0.6414 -2.5823
   53MOL    H84 6428   6.629   3.377   1.103 -0.1765 -0.1976  0.2054
   53MOL    H85 6429   6.705   3.474   0.999  0.3159 -0.5129 -1.2126
   53MOL    C86 6430   6.511   3.565   1.061  0.7714 -0.1674 -0.2242
   53MOL    C87 6431   6.406   3.530   1.166  0.8530 -0.0990  0.0186
   53MOL    H88 6432   6.568   3.654   1.087 -0.9678  0.3286  2.0580
   53MOL    H89 6433   6.456   3.592   0.971 -2.4432  0.5114  1.8465
   53MOL    H90 6434   6.333   3.456   1.132  1.1410 -0.5872  0.4541
   53MOL    H91 6435   6.458   3.485   1.250  1.3153  0.7617  0.1997
   53MOL    C92 6436   6.323   3.654   1.211  0.3181 -0.3595  0.4118
   53MOL    C93 6437   6.203   3.620   1.313  0.3144 -0.7196 -0.8315
   53MOL    H94 6438   6.384   3.738   1.245 -0.2006 -0.2490  1.0870
   53MOL    H95 6439   6.269   3.698   1.127 -1.1050 -3.7370 -0.5115
   53MOL    H96 6440   6.131   3.701   1.312 -0.1014 -1.0782 -0.0737
   53MOL    H97 6441   6.156   3.528   1.280 -1.4306 -1.0698  2.3892
   53MOL    C98 6442   6.253   3.605   1.458  0.1465  0.3274  0.2699
   53MOL    C99 6443   6.152   3.539   1.557  0.1896  0.3722 -0.2935
   53MOL   H100 6444   6.346   3.548   1.456  1.0052  1.6797  0.7833
   53MOL   H101 6445   6.283   3.702   1.498  1.5017  0.1118 -0.2165
   53MOL   H102 6446   6.059   3.595   1.562  1.3058  2.2339  0.2810
   53MOL   H103 6447   6.135   3.435   1.528 -0.8646  0.4130  0.1635
   53MOL   C104 6448   6.211   3.531   1.698  0.0718 -0.0261 -0.7699
   53MOL   C105 6449   6.113   3.472   1.797  0.0789  0.2346 -0.7212
   53MOL   H106 6450   6.307   3.480   1.694  0.0045 -0.3213  0.9160
   53MOL   H107 6451   6.224   3.630   1.741 -2.5068  0.4518 -1.0170
   53MOL   H108 6452   6.031   3.543   1.791 -0.8885 -0.6995  0.8408
   53MOL   H109 6453   6.063   3.378   1.774  0.9599 -0.1545 -1.0392
   53MOL   C110 6454   6.178   3.466   1.937 -0.6887  0.3948  0.1399
   53MOL   C111 6455   6.226   3.327   1.983  0.3001  1.3035 -0.1081
   53MOL   H112 6456   6.260   3.534   1.960  0.6170 -1.0583 -0.0726
   53MOL   H113 6457   6.102   3.495   2.009  1.5288  0.5797  2.4625
   53MOL   H114 6458   6.141   3.261   1.998  1.9595 -1.1220 -0.9974
   53MOL   H115 6459   6.278   3.274   1.903 -0.7217  0.4266 -0.2047
   53MOL   C116 6460   6.311   3.320   2.114  0.2351  0.0085 -0.0085
   53MOL   C117 6461   6.313   3.176   2.183  0.6328 -0.0857  0.1057
   53MOL   H118 6462   6.415   3.348   2.100  0.9150 -1.7930  1.2933
   53MOL   H119 6463   6.269   3.387   2.188  2.7131 -0.9000  2.2880
   53MOL   H120 6464   6.341   3.104   2.106  0.6597 -0.7528  0.7338
   53MOL   H121 6465   6.381   3.173   2.268  0.5884  4.7916  0.4531
   53MOL   H122 6466   6.217   3.133   2.212  0.5928 -1.1217 -1.5012
   54MOL     C1 6467   1.018   6.871   1.018 -0.4241 -0.4820  0.1620
   54MOL     C2 6468   0.876   6.814   0.997  0.0634 -0.2599 -0.5786
   54MOL     H3 6469   1.027   6.898   1.124 -1.2100  0.4683 -0.0051
   54MOL     H4 6470   1.043   6.956   0.955  0.7990 -0.5105  0.5914
   54MOL     H5 6471   0.797   6.889   0.990  0.4118 -0.0856 -3.4107
   54MOL     H6 6472   0.869   6.758   0.904  0.7059 -1.4732  0.0918
   54MOL     H7 6473   1.097   6.800   0.993  1.5219  1.5517  0.3614
   54MOL     C8 6474   0.843   6.708   1.103  1.3185 -0.1044  0.1445
   54MOL     C9 6475   0.710   6.634   1.080 -0.1956  0.1228 -0.5001
   54MOL    H10 6476   0.923   6.635   1.114  0.9956 -0.3714  0.7483
   54MOL    H11 6477   0.831   6.752   1.203 -4.8543 -0.4938 -0.2676
   54MOL    H12 6478   0.665   6.653   0.982 -3.3749 -1.2740  0.6174
   54MOL    H13 6479   0.734   6.528   1.071  1.1656  0.0504  3.3251
   54MOL    C14 6480   0.612   6.640   1.203 -0.1006 -0.6209 -0.3247
   54MOL    C15 6481   0.487   6.556   1.173 -0.1741  0.4142  0.0519
   54MOL    H16 6482   0.659   6.588   1.286 -0.7160 -0.4291  0.1527
   54MOL    H17 6483   0.605   6.743   1.236  1.0780 -0.2362 -1.2379
   54MOL    H18 6484   0.465   6.580   1.069 -0.2998 -0.5472 -0.1525
   54MOL    H19 6485   0.518   6.452   1.185  2.5796  1.4880  2.9192
   54MOL    C20 6486   0.373   6.580   1.276 -0.1588  0.3092  0.0554
   54MOL    C21 6487   0.407   6.545   1.423 -1.0221  0.6778  0.0988
   54MOL    H22 6488   0.344   6.685   1.266 -1.0222  0.0079 -0.7136
   54MOL    H23 6489   0.285   6.526   1.241 -1.2511  1.7992  0.4835
   54MOL    H24 6490   0.410   6.437   1.440  3.1129  0.6664 -0.2300
   54MOL    H25 6491   0.504   6.586   1.450  0.1886 -0.0735 -2.8749
   54MOL    C26 6492   0.304   6.593   1.529  0.4186  0.1767 -0.0818
   54MOL    C27 6493   0.315   6.737   1.568 -0.7336 -0.8336  0.4293
   54MOL    H28 6494   0.207   6.577   1.481  1.0980  0.0456 -1.4269
   54MOL    H29 6495   0.295   6.539   1.623 -0.5279  1.6143  0.6840
   54MOL    H30 6496   0.416   6.762   1.601 -0.9984 -0.6813  1.1305
   54MOL    H31 6497   0.298   6.802   1.483 -2.7106  0.5284  1.8394
   54MOL    C32 6498   0.217   6.785   1.678 -0.6038  0.9565 -0.0560
   54MOL    C33 6499   0.269   6.784   1.825 -0.0420 -0.4390  0.0721
   54MOL    H34 6500   0.191   6.888   1.652  1.5136  1.4614 -0.2831
   54MOL    H35 6501   0.128   6.724   1.662  0.6345 -1.1530  1.0388
   54MOL    H36 6502   0.276   6.681   1.861  1.2499 -1.5638 -3.1790
   54MOL    H37 6503   0.373   6.817   1.834 -0.3190 -0.1820  2.8651
   54MOL    C38 6504   0.185   6.871   1.914 -0.3152  0.0161  0.2899
   54MOL    C39 6505   0.247   6.888   2.048  0.4679 -0.5232 -0.0078
   54MOL    H40 6506   0.173   6.973   1.875 -1.8114 -0.6978 -1.1679
   54MOL    H41 6507   0.087   6.827   1.930  0.4708 -1.2761  1.6440
   54MOL    H42 6508   0.244   6.793   2.102  3.7254  0.7955  2.6740
   54MOL    H43 6509   0.350   6.922   2.036 -0.3746  2.8242  1.4828
   54MOL    C44 6510   0.168   6.985   2.134  0.1758  0.7310  0.2382
   54MOL    C45 6511   0.221   6.992   2.274 -0.0571 -1.0921 -0.0504
   54MOL    H46 6512   0.173   7.076   2.075 -0.6896  0.1061 -0.8129
   54MOL    H47 6513   0.065   6.948   2.141 -0.5083  1.5875 -4.0212
   54MOL    H48 6514   0.212   6.888   2.307 -1.5741 -0.7606  0.6061
   54MOL    H49 6515   0.328   7.013   2.279 -0.1031 -1.1392  1.1952
   54MOL    C50 6516   0.148   7.080   2.377  0.2137  0.3823 -0.0392
   54MOL    C51 6517   0.193   7.055   2.519  0.4604 -1.0137 -0.1591
   54MOL    H52 6518   0.160   7.183   2.344 -0.3717 -0.1452 -1.9711
   54MOL    H53 6519   0.042   7.056   2.379  0.6718 -1.6435  0.8493
   54MOL    H54 6520   0.189   6.948   2.538  0.8798 -1.2696 -1.4572
   54MOL    H55 6521   0.292   7.102   2.527 -0.7085  1.6836 -0.9772
   54MOL    C56 6522   0.120   7.130   2.636 -0.3937 -0.1564  0.4369
   54MOL    C57 6523   0.188   7.138   2.772  0.0495 -0.0275  0.2929
   54MOL    H58 6524   0.100   7.232   2.601  0.8803  0.5191  1.6103
   54MOL    H59 6525   0.019   7.091   2.651 -0.4243 -0.2726 -0.0496
   54MOL    H60 6526   0.164   7.042   2.818 -0.9910 -2.1245 -4.3102
   54MOL    H61 6527   0.296   7.150   2.764 -0.5465  3.9766 -3.8179
   54MOL    C62 6528   0.131   7.243   2.866 -0.0313  0.5702  0.2478
   54MOL    C63 6529   0.212   7.247   2.994  0.1941  0.2356  0.7373
   54MOL    H64 6530   0.133   7.342   2.819 -0.6924  0.6222  0.3217
   54MOL    H65 6531   0.025   7.226   2.883  0.0915  0.7323  1.1879
   54MOL    H66 6532   0.206   7.151   3.045  0.4085  0.3008  0.8840
   54MOL    H67 6533   0.309   7.282   2.960 -0.6860  1.8487 -0.1746
   54MOL    C68 6534   0.159   7.351   3.100 -0.0370  0.0901 -0.2819
   54MOL    C69 6535   0.235   7.349   3.237  0.0365  0.3045  0.4834
   54MOL    H70 6536   0.164   7.445   3.046  0.3287  0.9072  1.1340
   54MOL    H71 6537   0.052   7.340   3.117 -0.3253  1.9086 -0.8202
   54MOL    H72 6538   0.209   7.262   3.298 -1.9689  1.2802  1.0578
   54MOL    H73 6539   0.337   7.362   3.202  0.2746  3.8315  2.3159
   54MOL    C74 6540   0.189   7.466   3.328  0.4453 -1.1491  0.5650
   54MOL    C75 6541   0.260   7.470   3.463  0.6134  0.8081  0.4194
   54MOL    H76 6542   0.187   7.562   3.277  0.5568 -2.1917 -1.4311
   54MOL    H77 6543   0.087   7.454   3.363 -0.2269  0.2879 -0.8264
   54MOL    H78 6544   0.211   7.397   3.527 -2.0970  0.7609 -1.6152
   54MOL    H79 6545   0.364   7.450   3.439 -0.0928 -1.4890 -0.8677
   54MOL    C80 6546   0.256   7.614   3.530 -0.0723 -0.1685 -0.4875
   54MOL    C81 6547   0.295   7.599   3.680 -0.8275  0.1413 -0.0601
   54MOL    H82 6548   0.324   7.681   3.479 -0.0124  1.5113  1.7028
   54MOL    H83 6549   0.158   7.659   3.515  1.3154  2.1915 -2.8292
   54MOL    H84 6550   0.289   0.007   3.722  2.4959 -0.1106  1.1411
   54MOL    H85 6551   0.227   7.529   3.730  0.1893 -0.3768  0.6180
   54MOL    C86 6552   0.438   7.548   3.707 -0.7407  0.1440  0.1937
   54MOL    C87 6553   0.483   7.560   3.851 -0.6431  0.3481 -0.1230
   54MOL    H88 6554   0.427   7.441   3.689  2.2186 -0.2223  0.3668
   54MOL    H89 6555   0.499   7.592   3.628 -1.2132 -2.2689 -1.5945
   54MOL    H90 6556   0.505   7.664   3.877  0.0737 -0.3541  2.1113
   54MOL    H91 6557   0.411   7.522   3.923  0.4385 -0.1597  0.6984
   54MOL    C92 6558   0.614   7.482   3.879 -0.1567 -0.8001  0.5980
   54MOL    C93 6559   0.652   7.477   4.031  0.2008  0.1015 -0.8331
   54MOL    H94 6560   0.603   7.381   3.841 -0.0737 -0.3726 -0.5926
   54MOL    H95 6561   0.696   7.524   3.821 -1.3730  2.1896  0.9628
   54MOL    H96 6562   0.575   7.420   4.082  0.5780  2.1401  2.1282
   54MOL    H97 6563   0.745   7.422   4.037  0.0911 -0.0283 -0.3463
   54MOL    C98 6564   0.680   7.608   4.095  0.2200 -0.4392  0.6345
   54MOL    C99 6565   0.706   7.587   4.248 -0.6855  0.0035 -0.2489
   54MOL   H100 6566   0.757   7.671   4.051  0.3231  0.0041  1.4439
   54MOL   H101 6567   0.592   7.671   4.081 -0.6696 -1.9240 -0.6595
   54MOL   H102 6568   0.616   7.552   4.299 -1.3032 -1.8967 -2.5383
   54MOL   H103 6569   0.785   7.513   4.260 -1.3353 -1.2343 -3.1178
   54MOL   C104 6570   0.745   0.020   4.314 -0.1848 -0.2666 -0.0407
   54MOL   C105 6571   0.717   0.019   4.463  0.0076  0.1141  0.6416
   54MOL   H106 6572   0.851   0.038   4.296  0.3879 -3.2552  0.0434
   54MOL   H107 6573   0.704   0.112   4.272  0.1008  0.7807  1.9213
   54MOL   H108 6574   0.622   0.067   4.483  0.2545  0.7970  0.1949
   54MOL   H109 6575   0.707   7.605   4.486 -2.6869 -0.2488 -2.0010
   54MOL   C110 6576   0.820   0.091   4.548  0.0129  0.4112  0.6792
   54MOL   C111 6577   0.826   0.047   4.696 -0.2506 -0.3242 -0.0491
   54MOL   H112 6578   0.922   0.083   4.509  0.4821  0.5566  1.8679
   54MOL   H113 6579   0.789   0.196   4.548  0.4864  0.5605 -0.1629
   54MOL   H114 6580   0.858   7.636   4.709  0.3523 -0.1675 -0.2823
   54MOL   H115 6581   0.906   0.106   4.741 -1.9241  0.4798  1.9799
   54MOL   C116 6582   0.691   0.081   4.772  0.0085 -0.7766  0.3440
   54MOL   C117 6583   0.718   0.131   4.906 -0.1752  1.4028  0.3298
   54MOL   H118 6584   0.648   0.165   4.718 -0.4131 -1.1087  0.1646
   54MOL   H119 6585   0.619   7.692   4.780  0.3460 -0.9542  1.6836
   54MOL   H120 6586   0.624   0.176   4.937 -0.8576  0.4939 -0.3512
   54MOL   H121 6587   0.732   0.049   4.977 -0.8404  0.0655 -1.0527
   54MOL   H122 6588   0.809   0.190   4.908  2.2123 -2.0925  0.3820
   55MOL     C1 6589   1.276   3.538   1.279  0.1269  0.6302 -0.0995
   55MOL     C2 6590   1.350   3.602   1.398  0.0764 -0.2804  0.4433
   55MOL     H3 6591   1.296   3.587   1.184 -0.9254 -0.3174 -0.8018
   55MOL     H4 6592   1.168   3.537   1.288  0.1497  0.9883  0.2641
   55MOL     H5 6593   1.328   3.707   1.417  0.0184  0.0497 -1.3965
   55MOL     H6 6594   1.314   3.557   1.491 -0.0028 -0.4961  0.3083
   55MOL     H7 6595   1.310   3.435   1.269  1.5929  1.0141  0.6919
   55MOL     C8 6596   1.500   3.594   1.379 -0.3513  0.1028  0.4223
   55MOL     C9 6597   1.581   3.655   1.489  0.9179  0.1509 -0.0312
   55MOL    H10 6598   1.519   3.488   1.362 -2.0748 -0.1980  0.2836
   55MOL    H11 6599   1.520   3.650   1.288 -1.7964  1.0274  0.6619
   55MOL    H12 6600   1.573   3.763   1.484 -0.1864  0.0256 -1.1987
   55MOL    H13 6601   1.553   3.615   1.587  1.0466 -2.6476 -1.0898
   55MOL    C14 6602   1.729   3.635   1.470  0.3038  1.0829 -0.0143
   55MOL    C15 6603   1.811   3.691   1.586  0.5170  0.1039  0.5206
   55MOL    H16 6604   1.754   3.530   1.452 -0.4948  0.6845  1.1718
   55MOL    H17 6605   1.759   3.699   1.387  0.6814  1.9707  0.8049
   55MOL    H18 6606   1.771   3.788   1.616 -1.9960 -0.6146 -0.3866
   55MOL    H19 6607   1.793   3.617   1.664  2.1745  0.4565  1.2594
   55MOL    C20 6608   1.965   3.696   1.571  0.0283 -0.5216 -0.5058
   55MOL    C21 6609   2.053   3.741   1.695  0.2997  0.7237 -0.4248
   55MOL    H22 6610   1.995   3.604   1.521  1.8593 -0.0704 -0.2966
   55MOL    H23 6611   1.994   3.771   1.497  0.6978  0.2227  0.4957
   55MOL    H24 6612   2.013   3.835   1.734  2.0305 -0.0898  3.6369
   55MOL    H25 6613   2.034   3.663   1.769  2.7779  0.8485  0.3868
   55MOL    C26 6614   2.203   3.751   1.664  0.6326  0.6996  0.7621
   55MOL    C27 6615   2.279   3.776   1.794  0.0957  0.3132  0.7668
   55MOL    H28 6616   2.219   3.647   1.638  0.0174  1.0743 -1.1600
   55MOL    H29 6617   2.227   3.813   1.578 -3.4384  1.4505  0.0718
   55MOL    H30 6618   2.233   3.871   1.819 -0.2809  0.3765 -0.1162
   55MOL    H31 6619   2.262   3.702   1.872  0.0932 -1.0484 -0.4813
   55MOL    C32 6620   2.432   3.781   1.771 -0.1975  0.0952  0.5132
   55MOL    C33 6621   2.505   3.853   1.889  0.1260  0.1303 -0.1840
   55MOL    H34 6622   2.463   3.677   1.769 -1.2020 -0.1987 -1.4800
   55MOL    H35 6623   2.450   3.823   1.672 -0.7222 -1.3032 -0.1894
   55MOL    H36 6624   2.491   3.960   1.899  1.2551  0.2395  0.2970
   55MOL    H37 6625   2.468   3.811   1.982  2.1396 -0.2747  0.4758
   55MOL    C38 6626   2.659   3.820   1.891 -0.6923  0.1659  0.0597
   55MOL    C39 6627   2.725   3.856   2.024  0.1576  0.2847  0.2669
   55MOL    H40 6628   2.662   3.714   1.870  0.2845  0.3025 -0.5010
   55MOL    H41 6629   2.718   3.863   1.810 -0.8691  0.1761 -0.0642
   55MOL    H42 6630   2.722   3.962   2.049  1.9188  0.4988 -0.3294
   55MOL    H43 6631   2.662   3.818   2.104  0.3361  0.5602  0.5406
   55MOL    C44 6632   2.873   3.810   2.039  0.5998 -0.9282  0.3713
   55MOL    C45 6633   2.945   3.890   2.148 -0.6053 -0.1285  0.4698
   55MOL    H46 6634   2.870   3.704   2.060 -0.8255 -1.0725 -0.4696
   55MOL    H47 6635   2.917   3.819   1.939 -1.4114 -1.8733 -0.6361
   55MOL    H48 6636   3.052   3.876   2.137  0.5227  4.7457  3.6300
   55MOL    H49 6637   2.937   3.996   2.124 -0.0357 -0.2088 -0.0818
   55MOL    C50 6638   2.887   3.859   2.288  0.5114 -0.1601 -0.8403
   55MOL    C51 6639   2.991   3.893   2.397  0.3510  0.4880 -0.4060
   55MOL    H52 6640   2.799   3.922   2.306  0.9648  0.2951 -0.2096
   55MOL    H53 6641   2.846   3.759   2.294 -0.0112  0.0841 -0.2448
   55MOL    H54 6642   3.073   3.821   2.388  0.4661  0.6301 -0.5014
   55MOL    H55 6643   3.049   3.982   2.374 -0.9884  2.1740  2.5284
   55MOL    C56 6644   2.937   3.888   2.539 -0.0926  0.5592 -0.7549
   55MOL    C57 6645   3.045   3.868   2.646  0.1550 -0.1066  0.2623
   55MOL    H58 6646   2.870   3.969   2.569 -0.3217 -0.0205  0.3199
   55MOL    H59 6647   2.875   3.799   2.545 -0.2208  0.7113  0.3438
   55MOL    H60 6648   3.011   3.827   2.741  0.0207  2.2453  1.2457
   55MOL    H61 6649   3.113   3.802   2.593 -1.1416 -1.7574  0.6024
   55MOL    C62 6650   3.121   3.996   2.679 -0.0406 -0.1465 -0.1349
   55MOL    C63 6651   3.065   4.066   2.805  0.0660 -0.3422  0.1119
   55MOL    H64 6652   3.218   3.962   2.714 -1.2638 -1.0969  2.3984
   55MOL    H65 6653   3.139   4.051   2.586  2.0487  1.1655  1.0055
   55MOL    H66 6654   3.044   3.994   2.884 -1.1697 -1.9560 -1.6341
   55MOL    H67 6655   3.137   4.144   2.825  1.4420 -1.0737 -1.8481
   55MOL    C68 6656   2.925   4.143   2.784 -0.0124 -0.5969  0.1168
   55MOL    C69 6657   2.918   4.260   2.885  0.0127 -0.0039 -0.0677
   55MOL    H70 6658   2.918   4.179   2.681 -2.2193 -0.0274  0.4281
   55MOL    H71 6659   2.837   4.079   2.781  0.0723 -0.6792 -0.5568
   55MOL    H72 6660   2.816   4.286   2.912  0.0162 -0.0030 -0.0565
   55MOL    H73 6661   2.960   4.221   2.978  1.4463  2.8787  0.5596
   55MOL    C74 6662   2.991   4.384   2.832 -0.5390  0.8648  0.3438
   55MOL    C75 6663   2.960   4.501   2.921  0.0568 -0.0956 -0.6791
   55MOL    H76 6664   3.098   4.365   2.821 -0.5038  1.3625 -0.1753
   55MOL    H77 6665   2.956   4.404   2.731 -0.2573  0.8929  0.2519
   55MOL    H78 6666   2.857   4.535   2.926 -0.0022 -0.2517 -0.8392
   55MOL    H79 6667   2.978   4.469   3.024  0.1175  0.3328 -0.5538
   55MOL    C80 6668   3.061   4.615   2.910  0.0601 -0.1431  0.4944
   55MOL    C81 6669   3.039   4.696   2.779  1.1805  0.0612  0.2625
   55MOL    H82 6670   3.052   4.685   2.992 -2.6665  0.0781  0.0604
   55MOL    H83 6671   3.165   4.583   2.921  0.2671  0.3382 -0.0120
   55MOL    H84 6672   3.052   4.620   2.702 -1.0623 -0.3620  0.2813
   55MOL    H85 6673   2.941   4.736   2.757  1.2940 -1.0749 -2.4061
   55MOL    C86 6674   3.143   4.801   2.753 -0.5774  0.2174  0.8998
   55MOL    C87 6675   3.170   4.834   2.603  0.9842 -0.0989 -0.7098
   55MOL    H88 6676   3.123   4.893   2.808 -0.1570  0.2373  1.0245
   55MOL    H89 6677   3.239   4.762   2.788  0.2934  1.2837 -0.2012
   55MOL    H90 6678   3.243   4.759   2.573  1.0062  0.3757 -1.8751
   55MOL    H91 6679   3.080   4.816   2.544  0.2041  0.2574  0.3462
   55MOL    C92 6680   3.232   4.976   2.593  0.3235 -0.4707 -0.6733
   55MOL    C93 6681   3.374   4.980   2.650  0.3009  0.3640  1.0118
   55MOL    H94 6682   3.245   5.007   2.489 -0.9939  1.7229 -0.2254
   55MOL    H95 6683   3.163   5.037   2.652  1.6528 -0.2396  0.6746
   55MOL    H96 6684   3.360   4.976   2.758 -1.2085  1.8559  0.8873
   55MOL    H97 6685   3.428   4.892   2.614 -0.5367  1.2111 -2.5602
   55MOL    C98 6686   3.459   5.100   2.612  0.7632 -0.1415  0.3400
   55MOL    C99 6687   3.596   5.094   2.685  0.2807  0.3149  0.6655
   55MOL   H100 6688   3.474   5.099   2.504 -3.7703 -2.0612 -0.3470
   55MOL   H101 6689   3.393   5.186   2.627  0.8041 -0.0802  0.1652
   55MOL   H102 6690   3.571   5.079   2.790  0.8997  1.4857  1.0003
   55MOL   H103 6691   3.649   5.002   2.663  0.3741  0.4154  0.4666
   55MOL   C104 6692   3.681   5.220   2.683  0.3305  0.4580  0.4483
   55MOL   C105 6693   3.602   5.355   2.723  0.2045  0.6771  0.0719
   55MOL   H106 6694   3.762   5.196   2.752  0.5189  1.8988  0.7397
   55MOL   H107 6695   3.727   5.234   2.585  1.3367 -1.0887  0.6711
   55MOL   H108 6696   3.527   5.383   2.649  0.0827  1.9290  0.6580
   55MOL   H109 6697   3.549   5.343   2.818  0.4536  1.9501  0.3726
   55MOL   C110 6698   3.699   5.467   2.760  0.1104 -0.4573 -0.0228
   55MOL   C111 6699   3.630   5.591   2.795  0.2074 -0.6359  0.2025
   55MOL   H112 6700   3.762   5.432   2.842 -0.1777 -0.3427  0.2445
   55MOL   H113 6701   3.763   5.485   2.674  0.6123  1.1547  0.6766
   55MOL   H114 6702   3.562   5.608   2.712 -0.3558 -0.0595  0.7860
   55MOL   H115 6703   3.570   5.581   2.885  1.0188 -1.7134  0.6297
   55MOL   C116 6704   3.723   5.706   2.811 -0.1007  0.1823 -0.3463
   55MOL   C117 6705   3.666   5.842   2.844  0.2899  0.1035 -0.2290
   55MOL   H118 6706   3.784   5.675   2.897 -3.3496 -3.4162  0.8055
   55MOL   H119 6707   3.796   5.702   2.730 -1.1337 -1.6882 -1.1970
   55MOL   H120 6708   3.631   5.835   2.947  0.2100 -0.4749 -0.2973
   55MOL   H121 6709   3.729   5.928   2.823 -0.5370  0.3196 -1.8864
   55MOL   H122 6710   3.579   5.859   2.780  1.0699 -0.1516 -1.3592
   56MOL     C1 6711   4.890   5.959   6.582 -0.4984 -0.0180 -0.1983
   56MOL     C2 6712   4.932   6.072   6.675  0.0546 -0.0324  0.0832
   56MOL     H3 6713   4.966   5.881   6.588 -0.6375 -0.1589 -0.2712
   56MOL     H4 6714   4.889   5.990   6.477  3.2444  0.4550 -0.1913
   56MOL     H5 6715   4.860   6.154   6.668  0.6709  0.4254 -0.8950
   56MOL     H6 6716   4.934   6.040   6.779 -1.8086 -0.9079 -0.1244
   56MOL     H7 6717   4.798   5.916   6.619 -0.9718 -0.4726 -1.8553
   56MOL     C8 6718   5.073   6.121   6.640 -0.0155  0.1932 -0.1300
   56MOL     C9 6719   5.139   6.220   6.737 -0.0988  0.1227 -0.1762
   56MOL    H10 6720   5.131   6.028   6.647  2.1959  1.5870  0.5032
   56MOL    H11 6721   5.093   6.139   6.535  0.8912 -0.9400 -0.1694
   56MOL    H12 6722   5.078   6.310   6.735  0.1356  0.3389  1.9166
   56MOL    H13 6723   5.135   6.177   6.836  1.7396  0.2283 -0.0277
   56MOL    C14 6724   5.288   6.246   6.701 -0.5650  0.3005  0.5818
   56MOL    C15 6725   5.329   6.354   6.791 -0.5654  0.3058 -0.3571
   56MOL    H16 6726   5.345   6.154   6.711  2.1179  1.7804 -0.5903
   56MOL    H17 6727   5.296   6.286   6.600  1.4996  1.0622  1.0293
   56MOL    H18 6728   5.278   6.448   6.772 -0.8879  0.6064  1.8452
   56MOL    H19 6729   5.302   6.333   6.895 -2.3665  3.4187 -0.1442
   56MOL    C20 6730   5.480   6.370   6.780 -0.7113 -0.4210 -0.2828
   56MOL    C21 6731   5.530   6.484   6.871  0.3273 -0.4112  0.2259
   56MOL    H22 6732   5.517   6.280   6.828 -1.7742 -1.0530 -0.6207
   56MOL    H23 6733   5.515   6.364   6.677 -0.2617 -0.8250 -0.1068
   56MOL    H24 6734   5.478   6.580   6.869  0.0690 -0.5687 -4.0745
   56MOL    H25 6735   5.517   6.465   6.978  3.3666  0.1816  0.7371
   56MOL    C26 6736   5.675   6.517   6.847 -0.3963  0.1244 -0.0709
   56MOL    C27 6737   5.731   6.642   6.929  0.3176 -0.7609  0.0324
   56MOL    H28 6738   5.730   6.424   6.857 -1.4311 -0.4435  0.3727
   56MOL    H29 6739   5.680   6.537   6.740 -2.2871  0.4481 -0.1160
   56MOL    H30 6740   5.663   6.719   6.893  0.2141 -1.2877 -0.9298
   56MOL    H31 6741   5.712   6.640   7.036 -0.7929  0.2317 -0.1378
   56MOL    C32 6742   5.877   6.689   6.909  0.2430  0.2043  0.1023
   56MOL    C33 6743   5.910   6.827   6.965 -0.3277 -1.0603 -0.3767
   56MOL    H34 6744   5.937   6.607   6.948  1.9425  0.5153 -1.8042
   56MOL    H35 6745   5.883   6.700   6.801  0.7369 -1.5934 -0.0537
   56MOL    H36 6746   5.856   6.892   6.896  1.2083 -0.1968 -0.7767
   56MOL    H37 6747   5.864   6.838   7.063  2.5482 -0.7816  0.9920
   56MOL    C38 6748   6.066   6.848   6.966  0.5122 -0.2207 -0.2685
   56MOL    C39 6749   6.101   6.995   7.009  0.6657 -0.1156 -0.5828
   56MOL    H40 6750   6.122   6.778   7.028  1.3671  1.2887  0.6877
   56MOL    H41 6751   6.101   6.827   6.865  0.2725 -2.8359  0.1624
   56MOL    H42 6752   6.075   7.068   6.933  0.7630 -0.5216 -1.0125
   56MOL    H43 6753   6.074   7.024   7.110  0.7565 -0.6468 -0.4040
   56MOL    C44 6754   6.255   6.994   7.011  0.0738  0.0993 -0.3517
   56MOL    C45 6755   6.307   7.140   7.021 -0.5235 -0.0434 -0.2705
   56MOL    H46 6756   6.284   6.934   7.097  0.4206  1.6328  0.5992
   56MOL    H47 6757   6.301   6.937   6.930  4.2548 -0.8709  2.5841
   56MOL    H48 6758   6.303   7.187   6.922 -0.0542  1.4769  0.4219
   56MOL    H49 6759   6.249   7.200   7.091 -0.5174 -0.8797  0.4451
   56MOL    C50 6760   6.456   7.145   7.068  0.2360  0.2432 -0.0626
   56MOL    C51 6761   6.519   7.280   7.063 -0.2350 -0.1263  0.2052
   56MOL    H52 6762   6.456   7.118   7.173 -0.3580  1.4172  0.2420
   56MOL    H53 6763   6.513   7.067   7.017 -1.7954 -0.9736 -0.5696
   56MOL    H54 6764   6.499   7.325   6.966 -3.4282  3.2367  2.3281
   56MOL    H55 6765   6.471   7.338   7.142 -1.5775 -3.1658  1.6919
   56MOL    C56 6766   6.677   7.271   7.082 -0.1549 -0.1677 -0.7557
   56MOL    C57 6767   6.739   7.406   7.089  0.2952  0.7336  0.5421
   56MOL    H58 6768   6.695   7.223   7.179 -1.7914  1.4794  0.4005
   56MOL    H59 6769   6.733   7.208   7.014  2.6776  0.1809  1.1563
   56MOL    H60 6770   6.846   7.400   7.071  0.4086 -0.1918  1.4492
   56MOL    H61 6771   6.696   7.463   7.007 -1.7906  2.0403  2.4805
   56MOL    C62 6772   6.710   7.477   7.232  0.2278 -0.1966  0.0983
   56MOL    C63 6773   6.778   7.440   7.358  0.2911  0.3490 -0.7761
   56MOL    H64 6774   6.748   7.578   7.221 -1.5796  0.4213 -0.6852
   56MOL    H65 6775   6.601   7.481   7.241 -0.2064 -1.7880 -3.4897
   56MOL    H66 6776   6.745   7.343   7.395 -0.7990  1.7924  2.1842
   56MOL    H67 6777   6.885   7.432   7.334  0.1584 -1.2381 -0.9169
   56MOL    C68 6778   6.755   7.549   7.463  0.0685  0.5860 -0.3352
   56MOL    C69 6779   6.809   7.533   7.604  0.1109  0.4146 -0.4182
   56MOL    H70 6780   6.793   7.643   7.422  0.5378 -0.2834 -1.9696
   56MOL    H71 6781   6.648   7.565   7.455  0.3304  1.5247 -2.1171
   56MOL    H72 6782   6.787   7.430   7.635  0.8761  0.1094 -0.8539
   56MOL    H73 6783   6.918   7.538   7.606  0.0368  1.9474 -0.0731
   56MOL    C74 6784   6.750   7.619   0.025  0.3809 -0.3870  0.8118
   56MOL    C75 6785   6.766   7.584   0.179  0.0829  0.1687  0.3953
   56MOL    H76 6786   6.792   0.027   0.011 -1.3546  0.5990  2.5170
   56MOL    H77 6787   6.646   7.637   7.691  0.6982 -0.6740 -0.7525
   56MOL    H78 6788   6.872   7.565   0.192  0.5410 -0.1967 -3.3937
   56MOL    H79 6789   6.730   7.673   0.231 -2.2604 -0.3618 -0.2292
   56MOL    C80 6790   6.702   7.452   0.230  0.6103 -0.1637 -0.1029
   56MOL    C81 6791   6.550   7.469   0.247  0.4290 -0.1707  0.4400
   56MOL    H82 6792   6.724   7.374   0.158 -0.5967 -2.1034  1.5712
   56MOL    H83 6793   6.741   7.431   0.329 -1.2820 -0.5487  0.5822
   56MOL    H84 6794   6.518   7.519   0.338 -0.9626 -0.9025  0.3637
   56MOL    H85 6795   6.510   7.522   0.160 -0.3689 -1.4194  0.0283
   56MOL    C86 6796   6.486   7.330   0.250 -0.0499  0.5856  0.2198
   56MOL    C87 6797   6.332   7.341   0.238  0.3844  0.0969 -0.2123
   56MOL    H88 6798   6.528   7.269   0.170 -1.5022  2.3990 -2.0044
   56MOL    H89 6799   6.507   7.292   0.350  2.7166  1.5004  0.0390
   56MOL    H90 6800   6.293   7.418   0.305  0.5705 -0.4115  0.4869
   56MOL    H91 6801   6.306   7.384   0.142  0.0600  1.3124  0.4058
   56MOL    C92 6802   6.251   7.217   0.266  0.3401 -0.0469  0.2526
   56MOL    C93 6803   6.270   7.098   0.162 -0.0013 -0.1484  0.0408
   56MOL    H94 6804   6.276   7.184   0.367  0.3723 -0.5631  0.0802
   56MOL    H95 6805   6.147   7.249   0.272  0.3414 -0.1946  1.1556
   56MOL    H96 6806   6.255   7.131   0.060 -0.3969  3.3692  1.1670
   56MOL    H97 6807   6.373   7.063   0.172  0.3327  0.5764 -0.8447
   56MOL    C98 6808   6.170   6.987   0.182  0.2934  0.5505 -0.0180
   56MOL    C99 6809   6.195   6.878   0.071  0.3201 -0.5084 -0.7511
   56MOL   H100 6810   6.184   6.945   0.281  1.1111 -0.1301 -0.4169
   56MOL   H101 6811   6.072   7.029   0.156 -0.3112 -0.2801  0.8754
   56MOL   H102 6812   6.165   6.929   7.672  0.8377  0.5177 -0.3499
   56MOL   H103 6813   6.304   6.870   0.066  0.3858  0.1520 -0.3872
   56MOL   C104 6814   6.127   6.745   0.087  0.7020 -0.4467  0.3273
   56MOL   C105 6815   6.189   6.648   0.192 -0.3964  0.1228 -0.2909
   56MOL   H106 6816   6.020   6.755   0.104  0.5693 -2.0102  0.4121
   56MOL   H107 6817   6.141   6.697   7.682 -0.4557 -1.8105  0.8211
   56MOL   H108 6818   6.293   6.628   0.168  0.0475  1.6599  0.2495
   56MOL   H109 6819   6.206   6.698   0.288 -0.4014 -0.5268  0.0471
   56MOL   C110 6820   6.118   6.515   0.208  0.5161  0.5407 -0.1823
   56MOL   C111 6821   6.194   6.421   0.307  0.1344  0.2168  0.4370
   56MOL   H112 6822   6.021   6.541   0.252 -0.3204  0.3289 -1.8774
   56MOL   H113 6823   6.111   6.465   0.112 -0.7492  1.5557 -0.6293
   56MOL   H114 6824   6.295   6.404   0.269  0.4172  1.7122  0.5033
   56MOL   H115 6825   6.188   6.452   0.412  0.2581  1.3795  0.1000
   56MOL   C116 6826   6.121   6.282   0.297 -0.5535  0.3784  0.0992
   56MOL   C117 6827   6.214   6.170   0.352  0.7609 -0.4874 -0.2952
   56MOL   H118 6828   6.031   6.278   0.359 -0.5236 -0.6273  0.0893
   56MOL   H119 6829   6.091   6.262   0.194  0.8310  1.4249 -0.5157
   56MOL   H120 6830   6.297   6.143   0.286  0.0371 -1.0443 -0.9880
   56MOL   H121 6831   6.251   6.198   0.451 -0.1608  1.3335 -0.4420
   56MOL   H122 6832   6.165   6.075   0.373  1.0000 -0.4429  0.4587
   57MOL     C1 6833   4.302   5.002   2.476 -0.5175  1.3242  0.3461
   57MOL     C2 6834   4.446   5.057   2.467 -0.4248  0.6112 -0.8813
   57MOL     H3 6835   4.270   4.943   2.562  0.8702 -0.0577 -0.0586
   57MOL     H4 6836   4.260   4.948   2.391  0.1804  0.0908  0.7682
   57MOL     H5 6837   4.514   4.978   2.434  0.6425  0.9175  0.5575
   57MOL     H6 6838   4.452   5.135   2.392 -1.2685  0.5112 -1.0622
   57MOL     H7 6839   4.232   5.085   2.486 -2.8328 -0.5843  0.3712
   57MOL     C8 6840   4.485   5.128   2.601  0.5518  0.7513 -0.4746
   57MOL     C9 6841   4.589   5.241   2.581  0.3190  0.3456  0.1984
   57MOL    H10 6842   4.388   5.162   2.635  0.4348 -0.5066  0.4968
   57MOL    H11 6843   4.514   5.057   2.678 -5.1268 -3.0853 -1.5724
   57MOL    H12 6844   4.548   5.314   2.510 -1.1568 -1.5902 -1.0004
   57MOL    H13 6845   4.582   5.296   2.675 -0.2788 -0.2905  0.5292
   57MOL    C14 6846   4.731   5.207   2.550  0.0989 -0.1974  0.2560
   57MOL    C15 6847   4.828   5.326   2.556 -0.0015 -0.3553  0.3304
   57MOL    H16 6848   4.768   5.126   2.613  2.6454 -0.4300 -1.4643
   57MOL    H17 6849   4.730   5.162   2.450 -2.5460 -0.4206  0.3578
   57MOL    H18 6850   4.781   5.409   2.504 -0.6975 -0.2371  1.1557
   57MOL    H19 6851   4.843   5.362   2.657  0.1001  0.9291 -0.1305
   57MOL    C20 6852   4.961   5.301   2.491 -0.6322 -0.0237  0.5076
   57MOL    C21 6853   5.053   5.421   2.462 -0.5561 -0.2836 -0.1562
   57MOL    H22 6854   5.010   5.229   2.558 -0.8953 -0.6296  0.0590
   57MOL    H23 6855   4.941   5.250   2.396 -1.2166 -1.5890  1.4405
   57MOL    H24 6856   5.150   5.387   2.425  0.8390  2.3498  0.9549
   57MOL    H25 6857   5.002   5.482   2.387  1.1675  0.2056 -0.9546
   57MOL    C26 6858   5.081   5.512   2.584 -0.3502  0.2412  0.0884
   57MOL    C27 6859   5.147   5.644   2.551  0.5704 -0.1493 -0.8850
   57MOL    H28 6860   4.991   5.525   2.645 -0.0144  0.7534  0.4804
   57MOL    H29 6861   5.153   5.448   2.635 -1.7755  0.8253  2.9413
   57MOL    H30 6862   5.196   5.680   2.641 -1.3061  1.6274 -0.5409
   57MOL    H31 6863   5.222   5.623   2.474  0.6228  1.1960 -1.2135
   57MOL    C32 6864   5.050   5.750   2.489 -0.4928  0.4112 -0.3168
   57MOL    C33 6865   4.983   5.839   2.597 -0.3335  0.2932  0.1562
   57MOL    H34 6866   5.095   5.813   2.412 -1.0954 -0.7677 -1.6504
   57MOL    H35 6867   4.966   5.708   2.435 -1.1183  1.0132  0.1784
   57MOL    H36 6868   4.932   5.776   2.670  0.6998  0.4640  1.0323
   57MOL    H37 6869   5.060   5.884   2.660  0.2779 -0.2727 -0.1733
   57MOL    C38 6870   4.907   5.956   2.537  0.8965 -0.0355  0.1916
   57MOL    C39 6871   4.851   6.057   2.633  0.0569  0.3859  0.2082
   57MOL    H40 6872   4.958   6.003   2.453  1.1999 -1.5024 -0.4657
   57MOL    H41 6873   4.816   5.909   2.498 -1.0775  1.3938  2.8762
   57MOL    H42 6874   4.800   6.003   2.713 -0.0255 -2.2834 -1.6066
   57MOL    H43 6875   4.931   6.107   2.689  0.9275  1.4104 -1.9036
   57MOL    C44 6876   4.754   6.151   2.574  0.0076 -0.0041 -0.1287
   57MOL    C45 6877   4.809   6.266   2.500 -0.1381  0.1344 -0.5445
   57MOL    H46 6878   4.663   6.107   2.534 -0.0626 -0.8046  0.8663
   57MOL    H47 6879   4.707   6.193   2.663  1.4112  0.8640  0.2087
   57MOL    H48 6880   4.887   6.317   2.557  0.8966  0.3196 -2.0921
   57MOL    H49 6881   4.853   6.227   2.408 -0.3342 -0.1328 -0.5252
   57MOL    C50 6882   4.710   6.381   2.476 -0.2339  0.2725 -0.5833
   57MOL    C51 6883   4.773   6.495   2.389  0.2513  0.1051  0.0132
   57MOL    H52 6884   4.619   6.335   2.439 -1.2942  0.9846  1.0901
   57MOL    H53 6885   4.687   6.422   2.574 -1.0608 -0.5169 -0.4422
   57MOL    H54 6886   4.839   6.559   2.447  2.6384 -0.4113 -2.0853
   57MOL    H55 6887   4.840   6.450   2.316 -0.6058  1.0687 -1.3835
   57MOL    C56 6888   4.666   6.577   2.316 -0.1149 -0.5026 -0.5560
   57MOL    C57 6889   4.727   6.656   2.201  0.4210 -0.2775  0.2003
   57MOL    H58 6890   4.589   6.518   2.267 -1.1786  0.4589 -0.0674
   57MOL    H59 6891   4.618   6.631   2.398  0.8286 -1.2422  0.4965
   57MOL    H60 6892   4.797   6.730   2.240 -0.7780  1.6938 -1.2878
   57MOL    H61 6893   4.782   6.587   2.137 -1.4066 -0.4131 -1.2736
   57MOL    C62 6894   4.614   6.714   2.111  0.4485 -0.2244  0.0091
   57MOL    C63 6895   4.662   6.814   1.999  0.1797 -0.0876 -0.2877
   57MOL    H64 6896   4.546   6.637   2.073  0.2363 -0.5886  1.0996
   57MOL    H65 6897   4.549   6.771   2.178  2.5070  1.0171  1.0074
   57MOL    H66 6898   4.583   6.881   1.964  1.6083  1.0587 -1.3883
   57MOL    H67 6899   4.740   6.880   2.038 -0.9200 -0.6559  3.0084
   57MOL    C68 6900   4.720   6.747   1.870  0.0339  0.8126 -0.3317
   57MOL    C69 6901   4.870   6.690   1.876  0.4301 -0.5716 -0.4128
   57MOL    H70 6902   4.660   6.659   1.844  1.1749  0.4318 -1.7153
   57MOL    H71 6903   4.707   6.815   1.786 -1.0610  1.5254  0.4004
   57MOL    H72 6904   4.892   6.666   1.980 -0.1712 -0.3596 -0.2333
   57MOL    H73 6905   4.879   6.600   1.814  0.0655 -0.7779 -0.1724
   57MOL    C74 6906   4.978   6.795   1.831 -0.7898 -0.2301 -0.0431
   57MOL    C75 6907   5.117   6.726   1.811 -0.3495  0.1187 -0.0514
   57MOL    H76 6908   4.952   6.841   1.736 -0.4312  2.9314  1.3380
   57MOL    H77 6909   4.983   6.869   1.911 -2.4087 -2.6493  2.4256
   57MOL    H78 6910   5.106   6.625   1.773  0.0658  0.6626 -1.6829
   57MOL    H79 6911   5.181   6.783   1.743  0.3950 -2.7289 -1.8130
   57MOL    C80 6912   5.196   6.708   1.939 -0.3411 -0.1447 -0.5919
   57MOL    C81 6913   5.324   6.618   1.916  0.1414 -0.1738 -0.2817
   57MOL    H82 6914   5.231   6.800   1.985 -3.5597  2.2999 -2.8316
   57MOL    H83 6915   5.130   6.659   2.010 -1.4441  0.3431 -1.2727
   57MOL    H84 6916   5.394   6.675   1.856 -2.3827  0.9025 -2.3102
   57MOL    H85 6917   5.363   6.614   2.018  1.7549 -1.9876 -0.9262
   57MOL    C86 6918   5.298   6.471   1.877  0.1200  0.1594  0.5260
   57MOL    C87 6919   5.426   6.377   1.864  0.5531 -0.3769 -0.2840
   57MOL    H88 6920   5.237   6.431   1.957 -0.6054 -2.4639 -1.2703
   57MOL    H89 6921   5.243   6.454   1.784 -0.7560 -0.1937  1.1115
   57MOL    H90 6922   5.495   6.407   1.785 -0.7648 -2.1248 -2.1202
   57MOL    H91 6923   5.482   6.384   1.957  0.6753 -2.1205 -0.2281
   57MOL    C92 6924   5.384   6.230   1.854 -0.2611 -0.4641  0.3807
   57MOL    C93 6925   5.504   6.144   1.801 -0.4701  0.2175 -0.3359
   57MOL    H94 6926   5.353   6.191   1.951 -2.8848 -0.3224 -0.3474
   57MOL    H95 6927   5.297   6.217   1.789 -1.4341 -1.0129  1.9943
   57MOL    H96 6928   5.528   6.164   1.697 -0.0518 -1.6786 -0.6186
   57MOL    H97 6929   5.593   6.185   1.850 -0.9252  0.6649  0.1242
   57MOL    C98 6930   5.493   5.988   1.814 -0.0526 -0.1531  0.5589
   57MOL    C99 6931   5.625   5.917   1.771 -0.7020 -0.6031  0.4422
   57MOL   H100 6932   5.478   5.958   1.917  0.6709  2.1187  1.3462
   57MOL   H101 6933   5.412   5.947   1.753 -0.9155 -1.3017  2.4694
   57MOL   H102 6934   5.640   5.946   1.667 -1.2503 -0.7907  0.3087
   57MOL   H103 6935   5.706   5.976   1.813 -0.0703 -1.7760  0.8941
   57MOL   C104 6936   5.627   5.763   1.791  0.5278  0.1374  0.2957
   57MOL   C105 6937   5.759   5.695   1.763  0.1563  0.3351 -0.4296
   57MOL   H106 6938   5.597   5.748   1.895  0.0750  0.9952  0.2933
   57MOL   H107 6939   5.547   5.721   1.730 -0.2616  0.1098  1.3410
   57MOL   H108 6940   5.836   5.764   1.797 -0.6222  0.9954  0.0127
   57MOL   H109 6941   5.760   5.601   1.818  0.9428  1.1301  0.9494
   57MOL   C110 6942   5.785   5.662   1.615 -0.5512 -0.4397  0.3649
   57MOL   C111 6943   5.923   5.589   1.598 -0.1566  0.7363  0.8044
   57MOL   H112 6944   5.700   5.605   1.578  0.0124 -0.3121 -1.1499
   57MOL   H113 6945   5.792   5.759   1.565  0.2880  1.2113  3.4936
   57MOL   H114 6946   5.915   5.489   1.640  0.3162  0.3573  0.0270
   57MOL   H115 6947   5.948   5.586   1.491  1.4034  0.7570  1.1514
   57MOL   C116 6948   6.041   5.676   1.634 -0.1309 -0.1242  0.3896
   57MOL   C117 6949   6.177   5.609   1.614 -0.2571  0.1970 -0.7467
   57MOL   H118 6950   6.037   5.762   1.567  1.2523 -1.3895 -1.3718
   57MOL   H119 6951   6.031   5.717   1.735 -1.5063  0.1859  0.1320
   57MOL   H120 6952   6.174   5.518   1.675 -0.9402  0.6768 -0.0479
   57MOL   H121 6953   6.209   5.570   1.517  0.3206  0.1964 -0.5577
   57MOL   H122 6954   6.260   5.675   1.641  0.6076 -0.7762 -0.9887
   58MOL     C1 6955   6.536   5.716   5.838 -0.0475  0.1911 -0.6458
   58MOL     C2 6956   6.387   5.700   5.856  0.3313  0.5542  0.5268
   58MOL     H3 6957   6.589   5.667   5.919 -0.4071  0.5636 -0.1797
   58MOL     H4 6958   6.567   5.820   5.830 -1.2361  0.6649  0.6236
   58MOL     H5 6959   6.328   5.722   5.766  0.1493  3.0456  1.2162
   58MOL     H6 6960   6.363   5.595   5.873 -2.8750  0.7785 -2.0405
   58MOL     H7 6961   6.562   5.662   5.747 -0.7298 -2.7717  0.8513
   58MOL     C8 6962   6.330   5.793   5.964 -0.4247 -0.2715 -0.0578
   58MOL     C9 6963   6.380   5.782   6.107  0.0009  0.3429  0.2706
   58MOL    H10 6964   6.340   5.896   5.931  2.7886 -0.6324 -0.2960
   58MOL    H11 6965   6.221   5.782   5.967 -0.1771 -2.4672  2.8652
   58MOL    H12 6966   6.488   5.792   6.109  0.0321 -0.1009  0.9858
   58MOL    H13 6967   6.353   5.872   6.164  0.4206  1.5926 -1.4694
   58MOL    C14 6968   6.335   5.648   6.173 -0.7820 -0.0073 -0.3990
   58MOL    C15 6969   6.397   5.623   6.313  0.5286  0.2778  0.0522
   58MOL    H16 6970   6.226   5.654   6.174 -0.8310 -0.8677 -0.1805
   58MOL    H17 6971   6.367   5.564   6.112  0.1719 -0.5591  0.8396
   58MOL    H18 6972   6.502   5.598   6.296  0.4087  0.0312 -0.3405
   58MOL    H19 6973   6.391   5.712   6.376 -1.3735 -0.1308  0.4814
   58MOL    C20 6974   6.327   5.516   6.396  0.2749 -0.8763  0.6016
   58MOL    C21 6975   6.403   5.495   6.520 -0.1880 -0.8347  0.3573
   58MOL    H22 6976   6.225   5.548   6.417  0.6369  1.6184 -1.2616
   58MOL    H23 6977   6.301   5.433   6.330 -0.5535 -0.2490  0.1326
   58MOL    H24 6978   6.496   5.452   6.482 -0.3618 -1.1112  0.2418
   58MOL    H25 6979   6.439   5.583   6.573 -0.5174 -1.3106  1.3988
   58MOL    C26 6980   6.336   5.399   6.614  0.4883 -0.0593  0.0013
   58MOL    C27 6981   6.424   5.342   6.732  0.1112 -0.3303 -0.6519
   58MOL    H28 6982   6.245   5.440   6.657  0.5948  0.4765 -0.2870
   58MOL    H29 6983   6.299   5.321   6.548 -1.8989 -0.3133  1.5812
   58MOL    H30 6984   6.519   5.303   6.693  0.4562 -0.6648  0.5069
   58MOL    H31 6985   6.450   5.431   6.789 -0.0994  1.0239 -2.6277
   58MOL    C32 6986   6.364   5.230   6.816 -0.5189  0.3847  0.1499
   58MOL    C33 6987   6.474   5.158   6.894 -0.1294  0.2701 -0.0631
   58MOL    H34 6988   6.295   5.278   6.886  0.8928  1.4864  0.7975
   58MOL    H35 6989   6.312   5.150   6.763  0.6680  1.3660 -2.5966
   58MOL    H36 6990   6.543   5.120   6.819 -0.7207 -1.6141  0.3387
   58MOL    H37 6991   6.515   5.231   6.964  1.5873 -0.6457 -0.0958
   58MOL    C38 6992   6.413   5.036   6.970 -0.0124  0.3418 -0.4429
   58MOL    C39 6993   6.526   4.949   7.030  0.5554  0.0257  0.4613
   58MOL    H40 6994   6.357   5.070   7.058  1.0877  0.6597  0.1474
   58MOL    H41 6995   6.344   4.978   6.909 -0.7002 -2.6792  3.0377
   58MOL    H42 6996   6.591   4.915   6.950  0.2341  0.2440  0.1059
   58MOL    H43 6997   6.586   5.004   7.101  1.3941 -0.4152  0.0979
   58MOL    C44 6998   6.485   4.823   7.104  0.6166  0.4182 -0.5655
   58MOL    C45 6999   6.593   4.722   7.146  0.3251 -0.7578  0.4930
   58MOL    H46 7000   6.420   4.849   7.187 -0.6706  0.1530 -1.4859
   58MOL    H47 7001   6.410   4.769   7.046 -2.0554  0.4821  2.7357
   58MOL    H48 7002   6.647   4.683   7.060  0.4793 -2.4801  1.3349
   58MOL    H49 7003   6.664   4.784   7.200  2.1150 -1.3210 -1.1585
   58MOL    C50 7004   6.553   4.597   7.220 -0.1876  0.0229  0.6493
   58MOL    C51 7005   6.680   4.521   7.255  0.0777 -0.3584  0.1382
   58MOL    H52 7006   6.496   4.610   7.312 -0.7548 -1.8888  0.5983
   58MOL    H53 7007   6.489   4.530   7.162 -0.8868  1.7101 -0.5619
   58MOL    H54 7008   6.748   4.523   7.170 -1.9267  1.0811 -1.4936
   58MOL    H55 7009   6.729   4.589   7.324  0.4220  1.4670 -1.8258
   58MOL    C56 7010   6.665   4.377   7.301 -0.0575 -0.1718  0.3395
   58MOL    C57 7011   6.613   4.352   7.444 -0.2676 -0.2905  0.6261
   58MOL    H58 7012   6.614   4.315   7.228 -0.0583 -1.8349  1.7254
   58MOL    H59 7013   6.766   4.337   7.301  0.1217  0.2292 -2.6329
   58MOL    H60 7014   6.506   4.376   7.447  0.1236  1.8931 -1.5145
   58MOL    H61 7015   6.627   4.245   7.461 -0.2922 -0.6476 -1.4824
   58MOL    C62 7016   6.684   4.410   7.568 -0.3329 -0.6038 -1.1099
   58MOL    C63 7017   6.630   4.349   0.013  0.0727 -0.2146 -1.0347
   58MOL    H64 7018   6.790   4.383   7.560 -0.7565 -2.3678 -0.9742
   58MOL    H65 7019   6.677   4.517   7.589 -0.2780 -1.1871  2.1091
   58MOL    H66 7020   6.523   4.360   0.032  0.3226 -0.2413  0.4535
   58MOL    H67 7021   6.656   4.244   0.026  0.0975  0.0262  1.0793
   58MOL    C68 7022   6.697   4.412   0.141 -0.5000 -0.6888 -0.3671
   58MOL    C69 7023   6.680   4.318   0.261 -0.6240 -0.0399  0.1197
   58MOL    H70 7024   6.805   4.417   0.126 -0.5033 -1.4546 -0.6358
   58MOL    H71 7025   6.663   4.509   0.179  1.4008  0.3345 -1.1927
   58MOL    H72 7026   6.571   4.313   0.261 -0.6065 -1.4739 -2.1648
   58MOL    H73 7027   6.713   4.217   0.237  1.9590  0.1343  2.7548
   58MOL    C74 7028   6.738   4.379   0.397  0.2118  0.3622 -0.3766
   58MOL    C75 7029   6.685   4.302   0.527 -0.2746 -0.4570 -0.2608
   58MOL    H76 7030   6.847   4.381   0.400  0.2171 -0.5909  0.3215
   58MOL    H77 7031   6.699   4.480   0.406 -2.3396 -0.7490  1.6932
   58MOL    H78 7032   6.578   4.320   0.534 -0.3972 -1.0276 -0.6622
   58MOL    H79 7033   6.709   4.196   0.528 -2.3407 -0.9610 -1.5722
   58MOL    C80 7034   6.742   4.372   0.656  0.2659 -0.1396 -0.1491
   58MOL    C81 7035   6.704   4.305   0.786 -0.2218 -0.3163 -0.6035
   58MOL    H82 7036   6.850   4.359   0.649  0.4013  0.2444  0.9866
   58MOL    H83 7037   6.731   4.481   0.660 -2.2790 -0.3776  0.3801
   58MOL    H84 7038   6.598   4.321   0.804 -0.0234  0.1807  0.1451
   58MOL    H85 7039   6.708   4.196   0.777  1.3381 -0.5629  2.2976
   58MOL    C86 7040   6.776   4.345   0.925  0.0383 -0.9306  0.1827
   58MOL    C87 7041   6.772   4.494   0.948  0.0490  0.7916  0.3324
   58MOL    H88 7042   6.724   4.292   1.005 -2.0977  1.0535  0.1726
   58MOL    H89 7043   6.872   4.294   0.920  0.6404  0.3112 -1.4040
   58MOL    H90 7044   6.822   4.513   1.043  0.2184 -0.1758  0.4435
   58MOL    H91 7045   6.820   4.549   0.867 -1.1760 -0.0135 -0.9608
   58MOL    C92 7046   6.630   4.552   0.978  0.3167 -0.0970  0.2769
   58MOL    C93 7047   6.619   4.707   0.967 -0.6409  0.2777  0.1459
   58MOL    H94 7048   6.565   4.523   0.896  0.0419  0.0055  0.4596
   58MOL    H95 7049   6.600   4.507   1.072 -3.0768  1.1935 -0.1307
   58MOL    H96 7050   6.701   4.761   1.014  2.8250 -1.3315 -3.7584
   58MOL    H97 7051   6.619   4.732   0.861  2.2881  2.5414  0.6200
   58MOL    C98 7052   6.487   4.755   1.034 -0.6828  0.2491  0.1570
   58MOL    C99 7053   6.452   4.906   1.000 -0.0875  0.6334  0.1276
   58MOL   H100 7054   6.412   4.689   0.992 -1.2244  0.4092  0.8615
   58MOL   H101 7055   6.476   4.728   1.139 -0.3534 -0.1534  0.0887
   58MOL   H102 7056   6.528   4.957   1.060  0.7158 -0.2644 -0.1251
   58MOL   H103 7057   6.470   4.937   0.898 -1.3902  1.9869  0.2895
   58MOL   C104 7058   6.315   4.953   1.054  0.1501  0.0734  1.0101
   58MOL   C105 7059   6.300   5.107   1.067  0.0337 -0.2289 -0.3987
   58MOL   H106 7060   6.239   4.915   0.985 -0.0254  5.1924 -1.9195
   58MOL   H107 7061   6.295   4.903   1.148 -2.5454 -0.2837  0.3170
   58MOL   H108 7062   6.364   5.149   1.144 -1.1431  0.3640  0.2726
   58MOL   H109 7063   6.341   5.153   0.976 -0.5624 -0.4337 -0.7790
   58MOL   C110 7064   6.159   5.163   1.091  0.2486  0.0760 -0.1887
   58MOL   C111 7065   6.130   5.305   1.043 -0.0057 -0.1852  0.1042
   58MOL   H112 7066   6.086   5.103   1.037  3.1927 -2.3960 -1.5700
   58MOL   H113 7067   6.133   5.155   1.197 -1.0506 -0.5773 -0.5415
   58MOL   H114 7068   6.197   5.381   1.086  1.8289 -1.2684 -0.7779
   58MOL   H115 7069   6.145   5.303   0.935  0.4206  1.1520  0.1206
   58MOL   C116 7070   5.982   5.347   1.067 -0.5511  0.8376 -0.2074
   58MOL   C117 7071   5.941   5.464   0.986  0.2710 -0.5891 -0.3150
   58MOL   H118 7072   5.907   5.270   1.048 -1.1396  1.3576 -0.0260
   58MOL   H119 7073   5.972   5.379   1.170 -0.3557 -1.3752  0.5260
   58MOL   H120 7074   6.022   5.536   0.980  1.5455 -2.1312 -2.4535
   58MOL   H121 7075   5.912   5.440   0.884  2.4540  0.9802 -1.3396
   58MOL   H122 7076   5.860   5.516   1.038  1.5913 -0.4560  1.6221
   59MOL     C1 7077   3.508   2.016   3.791  0.7020  0.9065  0.0654
   59MOL     C2 7078   3.581   1.893   3.834  0.2917  0.0394  0.5140
   59MOL     H3 7079   3.420   2.036   3.852 -2.4051  1.1488 -4.2873
   59MOL     H4 7080   3.468   1.997   3.691 -0.7518  1.2401  0.5701
   59MOL     H5 7081   3.596   1.877   3.941 -2.1883  1.6626  1.1404
   59MOL     H6 7082   3.513   1.810   3.811 -1.0087  1.5714 -1.2713
   59MOL     H7 7083   3.574   2.103   3.793  2.0650 -0.1480  1.2664
   59MOL     C8 7084   3.710   1.872   3.764  0.0674  0.6273 -0.2966
   59MOL     C9 7085   3.783   1.733   3.771 -0.1482 -0.2165  0.2422
   59MOL    H10 7086   3.691   1.911   3.664  0.7428  2.2907  0.2160
   59MOL    H11 7087   3.773   1.944   3.816  0.0436 -0.3256  1.0688
   59MOL    H12 7088   3.791   1.699   3.875  1.5987 -2.4125 -0.5595
   59MOL    H13 7089   3.730   1.658   3.713 -0.7811 -0.4276  1.0842
   59MOL    C14 7090   3.931   1.734   3.723  0.4950  0.3811  0.2002
   59MOL    C15 7091   4.012   1.604   3.749  0.5147  0.5304 -0.4162
   59MOL    H16 7092   3.933   1.759   3.617 -1.4102  0.6863  0.2126
   59MOL    H17 7093   3.989   1.810   3.776  3.2134 -1.2310 -0.3644
   59MOL    H18 7094   3.956   1.517   3.716  1.7876 -0.9819  1.3785
   59MOL    H19 7095   4.091   1.593   3.675  1.7546 -1.8848  1.1988
   59MOL    C20 7096   4.059   1.587   3.895  0.3251  0.3474 -0.5630
   59MOL    C21 7097   4.129   1.450   3.929 -0.6750  0.0716  0.5387
   59MOL    H22 7098   4.127   1.664   3.930  2.4469 -1.4921 -0.5710
   59MOL    H23 7099   3.975   1.597   3.964  0.2764  0.6466 -0.6663
   59MOL    H24 7100   4.070   1.364   3.899 -0.0861 -0.0307 -0.3453
   59MOL    H25 7101   4.226   1.448   3.879 -1.5119  0.3551 -1.1576
   59MOL    C26 7102   4.161   1.434   4.078  0.9552 -0.4522 -0.2866
   59MOL    C27 7103   4.253   1.327   4.113 -0.0537  0.1729  0.1142
   59MOL    H28 7104   4.197   1.530   4.117 -2.0776  0.0883  1.3823
   59MOL    H29 7105   4.071   1.409   4.134  0.9931  1.4628  0.6855
   59MOL    H30 7106   4.223   1.232   4.068  1.4392 -0.1125 -0.3090
   59MOL    H31 7107   4.346   1.347   4.060  1.0196  0.9822  2.2731
   59MOL    C32 7108   4.292   1.316   4.263 -0.1964  0.3521 -0.1751
   59MOL    C33 7109   4.392   1.416   4.330  1.0177 -0.6255  0.0505
   59MOL    H34 7110   4.202   1.318   4.324 -0.5430  0.2138 -0.6849
   59MOL    H35 7111   4.343   1.224   4.292 -1.5554 -0.0887  0.8642
   59MOL    H36 7112   4.433   1.373   4.422  0.9274  0.4923  0.6263
   59MOL    H37 7113   4.481   1.437   4.271  0.3862 -0.8927 -1.0120
   59MOL    C38 7114   4.329   1.549   4.361 -0.2759  0.5783  1.1457
   59MOL    C39 7115   4.405   1.637   4.452 -0.2520  0.5581  0.3668
   59MOL    H40 7116   4.307   1.603   4.269  0.8304 -0.5203  0.2063
   59MOL    H41 7117   4.231   1.526   4.400 -0.3555 -0.0241  0.5984
   59MOL    H42 7118   4.411   1.576   4.542  3.1039  0.6061  0.2040
   59MOL    H43 7119   4.504   1.641   4.409 -0.1033  1.8193  0.7895
   59MOL    C44 7120   4.340   1.774   4.481  0.5411 -0.3135  0.2804
   59MOL    C45 7121   4.207   1.765   4.561 -0.8358  0.5346  0.5025
   59MOL    H46 7122   4.423   1.823   4.532  1.6227  0.0664 -1.7715
   59MOL    H47 7123   4.317   1.831   4.391 -0.8591 -1.6185 -0.2067
   59MOL    H48 7124   4.136   1.708   4.501  0.3859 -0.0426 -0.4279
   59MOL    H49 7125   4.230   1.701   4.646  1.1075  0.2754 -0.1799
   59MOL    C50 7126   4.154   1.908   4.603 -0.3290 -0.1220 -0.7639
   59MOL    C51 7127   4.109   2.008   4.496 -0.1699  0.6433 -0.4625
   59MOL    H52 7128   4.067   1.908   4.668  0.7364  2.4846  0.7227
   59MOL    H53 7129   4.225   1.965   4.661  1.1311  0.0673 -2.6705
   59MOL    H54 7130   4.077   2.092   4.557  0.4212 -0.2172  1.0684
   59MOL    H55 7131   4.190   2.043   4.432  1.1166  0.6744  1.1761
   59MOL    C56 7132   3.994   1.949   4.411  0.5882  0.0250  0.7011
   59MOL    C57 7133   4.040   1.903   4.265 -0.5798 -0.1945 -0.9384
   59MOL    H58 7134   3.950   1.857   4.450 -0.9119 -0.4512 -1.9991
   59MOL    H59 7135   3.913   2.022   4.408  0.6284  0.1435  1.9619
   59MOL    H60 7136   4.091   1.989   4.221 -1.1902 -0.4853 -2.2451
   59MOL    H61 7137   4.112   1.824   4.282 -1.1926 -0.3294  1.1560
   59MOL    C62 7138   3.922   1.866   4.169  0.1770 -0.9008  0.6309
   59MOL    C63 7139   3.810   1.773   4.230  0.1935 -0.3766  0.2968
   59MOL    H64 7140   3.885   1.955   4.118 -0.0364 -3.0661 -3.2115
   59MOL    H65 7141   3.962   1.802   4.090 -1.5947 -0.5509 -0.5810
   59MOL    H66 7142   3.783   1.825   4.321 -0.3728  0.8324 -0.5457
   59MOL    H67 7143   3.727   1.783   4.160 -1.3529 -1.1795  1.9788
   59MOL    C68 7144   3.841   1.626   4.244  0.1680 -0.7647  0.6575
   59MOL    C69 7145   3.784   1.550   4.373 -0.4330 -0.3002  0.5942
   59MOL    H70 7146   3.819   1.575   4.151  0.8314  1.1024 -0.5573
   59MOL    H71 7147   3.947   1.606   4.264  0.3914  0.8668  1.1850
   59MOL    H72 7148   3.810   1.595   4.469  1.4935 -0.2985  0.0857
   59MOL    H73 7149   3.676   1.560   4.375 -0.4840 -0.6379 -0.2433
   59MOL    C74 7150   3.826   1.400   4.364 -0.0509  0.0546  0.5839
   59MOL    C75 7151   3.711   1.314   4.422  0.2488  0.7842  0.0092
   59MOL    H76 7152   3.850   1.368   4.262 -0.8862 -2.1189  1.0364
   59MOL    H77 7153   3.918   1.374   4.417  0.1890 -1.8599 -0.7065
   59MOL    H78 7154   3.691   1.338   4.527 -1.8999  1.4795 -0.5248
   59MOL    H79 7155   3.616   1.337   4.373 -0.2861  0.1721  0.7480
   59MOL    C80 7156   3.732   1.166   4.400 -0.2573 -0.1785 -0.0358
   59MOL    C81 7157   3.605   1.078   4.403 -0.4625  0.3421 -0.9330
   59MOL    H82 7158   3.792   1.149   4.311 -1.3694 -1.7659 -0.5092
   59MOL    H83 7159   3.801   1.120   4.471 -0.3330  0.4509  0.4453
   59MOL    H84 7160   3.558   1.076   4.501  0.1114  0.6089 -0.6508
   59MOL    H85 7161   3.530   1.119   4.336 -1.1027  0.5785 -0.0844
   59MOL    C86 7162   3.644   0.937   4.365 -0.2724  0.0811  0.1065
   59MOL    C87 7163   3.518   0.838   4.367 -0.6269  0.2647 -0.8967
   59MOL    H88 7164   3.695   0.928   4.269 -1.4726 -3.9632 -0.2206
   59MOL    H89 7165   3.709   0.885   4.435  0.5648  1.0829  0.0894
   59MOL    H90 7166   3.550   0.734   4.357 -0.6868  0.2273 -0.7075
   59MOL    H91 7167   3.489   0.845   4.472  2.4105 -1.2805  0.1154
   59MOL    C92 7168   3.395   0.863   4.278  0.2313  0.5906  0.0310
   59MOL    C93 7169   3.422   0.854   4.128 -0.5106 -0.4861  0.1501
   59MOL    H94 7170   3.320   0.787   4.302 -1.2370  1.5472 -1.4090
   59MOL    H95 7171   3.334   0.950   4.307 -2.7458 -1.1160 -0.8499
   59MOL    H96 7172   3.457   0.951   4.092 -1.7196  0.1365  0.6304
   59MOL    H97 7173   3.508   0.789   4.114 -1.8252 -1.8449 -1.7989
   59MOL    C98 7174   3.313   0.806   4.033  0.2449  1.0491 -0.4551
   59MOL    C99 7175   3.341   0.816   3.875 -0.5105 -0.6346  0.7270
   59MOL   H100 7176   3.295   0.703   4.063  1.0332  1.0359 -0.0087
   59MOL   H101 7177   3.221   0.859   4.056  1.6976  2.2036  3.0646
   59MOL   H102 7178   3.360   0.911   3.825 -1.0124 -1.2708 -0.7236
   59MOL   H103 7179   3.424   0.751   3.849 -1.6705 -1.5994 -0.6879
   59MOL   C104 7180   3.219   0.755   3.820 -0.1641 -0.4088 -0.3113
   59MOL   C105 7181   3.210   0.734   3.668 -0.6128  0.0907  0.3725
   59MOL   H106 7182   3.195   0.656   3.859  0.9630 -1.0936 -1.3266
   59MOL   H107 7183   3.139   0.822   3.852 -0.1923 -0.8514  0.5601
   59MOL   H108 7184   3.231   0.825   3.612 -1.6316 -0.8932 -1.6953
   59MOL   H109 7185   3.291   0.664   3.645  0.0988  1.3546 -1.1136
   59MOL   C110 7186   3.094   0.661   3.608  0.4501  0.0678  0.7887
   59MOL   C111 7187   3.096   0.661   3.456 -1.4710 -0.4843  0.2832
   59MOL   H112 7188   3.103   0.558   3.642 -4.0091 -0.1174  1.6313
   59MOL   H113 7189   2.998   0.706   3.631 -1.2691 -2.4209 -1.1666
   59MOL   H114 7190   3.196   0.652   3.415 -1.2537 -0.8090  0.8718
   59MOL   H115 7191   3.028   0.586   3.416 -2.2079  0.0845  0.4491
   59MOL   C116 7192   3.051   0.783   3.383  0.0016  0.1361 -0.1093
   59MOL   C117 7193   3.052   0.770   3.232  0.3110  0.0304  0.1959
   59MOL   H118 7194   2.949   0.803   3.415 -0.9221  0.4104 -3.0644
   59MOL   H119 7195   3.115   0.868   3.406 -0.5261  0.1364  1.4173
   59MOL   H120 7196   3.071   0.862   3.178  0.5301 -1.6392 -2.7170
   59MOL   H121 7197   3.133   0.703   3.202  0.0738 -0.8324  1.4591
   59MOL   H122 7198   2.956   0.721   3.215 -0.0413  1.0197 -0.6884
   60MOL     C1 7199   4.436   6.212   2.906  0.4253  0.3904 -0.3180
   60MOL     C2 7200   4.305   6.201   2.981 -0.3565  0.0699 -0.4585
   60MOL     H3 7201   4.435   6.294   2.834  3.6383  1.8174  1.1839
   60MOL     H4 7202   4.473   6.120   2.861  0.8182  0.5375 -0.2924
   60MOL     H5 7203   4.232   6.158   2.912  0.3513  1.0892 -1.8590
   60MOL     H6 7204   4.318   6.136   3.068 -2.9476  1.4256  1.0008
   60MOL     H7 7205   4.520   6.238   2.970 -0.8254  2.9423  0.3450
   60MOL     C8 7206   4.255   6.337   3.036 -0.1502  0.4326  0.2029
   60MOL     C9 7207   4.125   6.322   3.110 -0.6311  0.0238 -0.2070
   60MOL    H10 7208   4.326   6.372   3.112 -1.9980 -0.4844  2.4026
   60MOL    H11 7209   4.245   6.411   2.956  2.5314 -0.6884 -1.2237
   60MOL    H12 7210   4.154   6.260   3.195 -0.8389 -1.6032 -1.2908
   60MOL    H13 7211   4.083   6.412   3.154  0.4226  0.7145 -0.6131
   60MOL    C14 7212   4.010   6.261   3.026  0.5602  0.6186 -0.0103
   60MOL    C15 7213   3.905   6.187   3.113 -0.6121  0.0643 -0.4749
   60MOL    H16 7214   3.959   6.343   2.974  1.9168  2.0438  0.8403
   60MOL    H17 7215   4.042   6.196   2.944  1.4622  1.6355 -0.4877
   60MOL    H18 7216   3.838   6.149   3.037 -0.0090 -0.0399 -0.9585
   60MOL    H19 7217   3.950   6.102   3.165  1.4356  1.1855 -0.3269
   60MOL    C20 7218   3.828   6.279   3.205 -0.0971 -0.0718 -0.2125
   60MOL    C21 7219   3.707   6.201   3.272  0.3384 -0.3311  0.2663
   60MOL    H22 7220   3.889   6.318   3.287  1.4139 -0.3260 -1.1899
   60MOL    H23 7221   3.799   6.368   3.148 -1.4216 -0.3774 -0.0300
   60MOL    H24 7222   3.653   6.142   3.197 -0.7829  0.3322  0.5334
   60MOL    H25 7223   3.749   6.149   3.357 -0.1677 -1.6503 -0.2713
   60MOL    C26 7224   3.605   6.296   3.337 -0.7548  0.9530 -0.2885
   60MOL    C27 7225   3.520   6.377   3.236  0.1466  0.3507  0.1095
   60MOL    H28 7226   3.544   6.242   3.410  0.2802  1.8712  1.2799
   60MOL    H29 7227   3.657   6.369   3.399 -1.7059  0.2266  1.3985
   60MOL    H30 7228   3.595   6.448   3.200  1.2479 -1.2473 -0.8381
   60MOL    H31 7229   3.492   6.325   3.144  1.3204 -0.5641  0.2555
   60MOL    C32 7230   3.394   6.436   3.305  0.8578 -0.2250  0.0944
   60MOL    C33 7231   3.331   6.545   3.216  0.3570  0.0900  0.2502
   60MOL    H34 7232   3.328   6.353   3.334  1.8598 -0.5266  1.6135
   60MOL    H35 7233   3.417   6.479   3.403 -1.5118  1.6691 -0.1352
   60MOL    H36 7234   3.283   6.605   3.294  0.6385 -0.7865  1.1095
   60MOL    H37 7235   3.404   6.612   3.171 -0.9986  1.2331 -0.2530
   60MOL    C38 7236   3.231   6.503   3.106  0.4100  0.5745 -0.0033
   60MOL    C39 7237   3.185   6.619   3.020 -0.6198  0.2483 -0.2546
   60MOL    H40 7238   3.285   6.436   3.038  1.9515  1.9346 -0.1606
   60MOL    H41 7239   3.141   6.458   3.147  0.7809 -2.9387 -2.8043
   60MOL    H42 7240   3.143   6.694   3.087 -0.7746  0.1179 -0.2079
   60MOL    H43 7241   3.273   6.675   2.987  0.7605 -1.0766  1.0596
   60MOL    C44 7242   3.090   6.588   2.909 -0.3307 -0.3878 -0.3172
   60MOL    C45 7243   3.154   6.511   2.783  0.3539 -0.4714 -0.1323
   60MOL    H46 7244   2.998   6.539   2.939 -1.5395  1.8231 -0.3374
   60MOL    H47 7245   3.065   6.687   2.872  0.5830  0.0644  0.2364
   60MOL    H48 7246   3.243   6.566   2.753 -0.2365  0.8775  0.5310
   60MOL    H49 7247   3.196   6.414   2.808  0.8054 -0.0223  0.8945
   60MOL    C50 7248   3.049   6.497   2.666  0.9479 -0.3586 -0.2628
   60MOL    C51 7249   2.921   6.427   2.710 -0.9718 -0.0947 -0.3587
   60MOL    H52 7250   3.019   6.594   2.627  1.7397 -0.3139 -0.7695
   60MOL    H53 7251   3.091   6.443   2.581 -1.2531 -0.2586 -1.4402
   60MOL    H54 7252   2.874   6.488   2.788 -2.6482 -2.0071  0.2084
   60MOL    H55 7253   2.850   6.430   2.628 -0.5306 -0.4856 -0.7573
   60MOL    C56 7254   2.934   6.286   2.773 -0.0771  0.4766  0.3111
   60MOL    C57 7255   2.804   6.232   2.831 -0.5816  0.6875 -0.3090
   60MOL    H58 7256   2.974   6.222   2.694 -0.3390 -0.3403  0.8337
   60MOL    H59 7257   3.009   6.283   2.852 -0.8122  0.4925  1.0205
   60MOL    H60 7258   2.788   6.292   2.920 -0.7349 -0.4121  0.4047
   60MOL    H61 7259   2.720   6.256   2.765 -0.4750  0.5428 -0.4966
   60MOL    C62 7260   2.819   6.085   2.873  0.3735 -0.3893  0.3764
   60MOL    C63 7261   2.696   6.035   2.956 -0.2138  0.4878  0.0792
   60MOL    H64 7262   2.829   6.026   2.782 -2.2021  2.0910 -1.5928
   60MOL    H65 7263   2.908   6.083   2.937 -0.1338  0.7877  1.1387
   60MOL    H66 7264   2.686   6.092   3.048  1.7954  0.8006  0.1219
   60MOL    H67 7265   2.600   6.053   2.909 -0.4987  3.8278  1.7987
   60MOL    C68 7266   2.703   5.893   3.005 -0.1315 -0.0115  0.1992
   60MOL    C69 7267   2.573   5.838   3.063 -0.1977 -0.3368  0.0794
   60MOL    H70 7268   2.756   5.833   2.931 -2.0707 -1.8585  0.2304
   60MOL    H71 7269   2.765   5.889   3.094 -2.2771  2.1009  1.8421
   60MOL    H72 7270   2.540   5.897   3.148  1.6497 -0.1704  0.7102
   60MOL    H73 7271   2.501   5.868   2.986  0.9444  0.4223 -0.7100
   60MOL    C74 7272   2.576   5.688   3.097  0.4039 -0.8377 -0.0119
   60MOL    C75 7273   2.435   5.637   3.126 -1.3817  0.0692  0.7721
   60MOL    H76 7274   2.615   5.634   3.011 -1.0853 -2.0978  0.0745
   60MOL    H77 7275   2.637   5.666   3.184  0.9099  0.2256 -0.0862
   60MOL    H78 7276   2.394   5.689   3.213 -3.8252 -0.2723 -0.1470
   60MOL    H79 7277   2.372   5.676   3.046 -0.9519 -1.6995 -0.4682
   60MOL    C80 7278   2.430   5.487   3.144 -0.7077 -0.0218  0.0137
   60MOL    C81 7279   2.439   5.416   3.009  0.1970  0.0229 -0.4456
   60MOL    H82 7280   2.508   5.461   3.216 -1.4140  0.4708  0.9649
   60MOL    H83 7281   2.340   5.466   3.202 -0.4277 -1.7292 -0.1373
   60MOL    H84 7282   2.405   5.480   2.928 -2.3145  3.5187  3.1235
   60MOL    H85 7283   2.545   5.393   2.995  1.0415  2.8039  0.8321
   60MOL    C86 7284   2.358   5.288   3.014 -0.0349 -0.0322  0.2115
   60MOL    C87 7285   2.426   5.169   3.080  0.6547  0.0844 -0.3298
   60MOL    H88 7286   2.263   5.306   3.065 -0.0736  3.1193 -0.8627
   60MOL    H89 7287   2.313   5.268   2.917 -0.4577 -2.4664  0.8703
   60MOL    H90 7288   2.516   5.140   3.026  1.1869 -1.5338  1.3509
   60MOL    H91 7289   2.444   5.196   3.184 -2.8188 -0.8225  0.5672
   60MOL    C92 7290   2.329   5.046   3.080  0.5402  0.0887  0.2532
   60MOL    C93 7291   2.377   4.923   3.152  0.7179  0.3148  0.1242
   60MOL    H94 7292   2.245   5.081   3.140  0.7383 -2.3460  2.0386
   60MOL    H95 7293   2.288   5.027   2.981 -1.3639  1.1556  0.8146
   60MOL    H96 7294   2.467   4.893   3.099  0.9863  1.0789  0.1525
   60MOL    H97 7295   2.411   4.948   3.252 -0.1906  0.9729  0.2743
   60MOL    C98 7296   2.270   4.814   3.158  0.5236  0.5257 -0.2063
   60MOL    C99 7297   2.311   4.694   3.242 -0.6570 -0.3784  0.2100
   60MOL   H100 7298   2.183   4.856   3.209  0.1702  1.5270 -1.6101
   60MOL   H101 7299   2.245   4.782   3.057  2.2497  1.5149 -0.9673
   60MOL   H102 7300   2.413   4.665   3.217 -1.1218 -0.7468 -1.3299
   60MOL   H103 7301   2.310   4.731   3.345  1.1794  0.6725 -0.1179
   60MOL   C104 7302   2.227   4.579   3.224 -0.5344  0.1711 -0.1209
   60MOL   C105 7303   2.258   4.449   3.299 -0.0925  0.6958  0.2614
   60MOL   H106 7304   2.122   4.600   3.245 -0.0202  2.2186  0.5868
   60MOL   H107 7305   2.214   4.556   3.118  0.6361 -2.8513  0.3472
   60MOL   H108 7306   2.357   4.414   3.269 -0.9750 -1.5271 -0.1135
   60MOL   H109 7307   2.253   4.468   3.407  0.0215 -1.2681  0.6292
   60MOL   C110 7308   2.156   4.336   3.260  0.6352  0.0317 -0.3816
   60MOL   C111 7309   2.182   4.211   3.334  0.8287  0.4803  0.0474
   60MOL   H112 7310   2.056   4.371   3.286 -0.4749 -3.6555  0.5660
   60MOL   H113 7311   2.143   4.329   3.152 -0.4836  0.7641 -0.2943
   60MOL   H114 7312   2.205   4.236   3.438  0.7933  0.3942  0.0754
   60MOL   H115 7313   2.082   4.168   3.332 -0.1994  2.7148  1.4121
   60MOL   C116 7314   2.276   4.111   3.265  0.4935  0.9904  0.0427
   60MOL   C117 7315   2.268   3.970   3.324 -0.0573 -0.2819 -0.6862
   60MOL   H118 7316   2.244   4.110   3.161  3.0444 -1.4465 -0.7862
   60MOL   H119 7317   2.376   4.149   3.283  0.6519  1.0435 -0.9519
   60MOL   H120 7318   2.332   3.896   3.276 -0.8979 -0.7818 -1.0369
   60MOL   H121 7319   2.301   3.988   3.427  0.0795 -0.7322 -0.6513
   60MOL   H122 7320   2.168   3.927   3.318 -0.3785  0.2909  0.3376
   61MOL     C1 7321   3.959   7.026   0.364 -0.1263 -0.0119  0.0348
   61MOL     C2 7322   3.853   7.126   0.395  0.2360  0.3314 -0.8244
   61MOL     H3 7323   3.922   6.932   0.406 -0.3425  0.2501  0.4436
   61MOL     H4 7324   4.051   7.057   0.413 -0.5030 -1.5445  1.8085
   61MOL     H5 7325   3.755   7.077   0.397  0.4785 -0.2618 -2.5941
   61MOL     H6 7326   3.868   7.172   0.493  1.5506 -0.4725 -0.6323
   61MOL     H7 7327   3.984   7.023   0.258 -1.2958 -0.9745 -0.2297
   61MOL     C8 7328   3.853   7.235   0.289 -0.2435 -0.3282  0.3325
   61MOL     C9 7329   3.748   7.340   0.318 -0.1144  0.1621  0.3136
   61MOL    H10 7330   3.955   7.275   0.283 -0.1086 -0.7874 -0.4616
   61MOL    H11 7331   3.830   7.195   0.191 -0.6694 -2.9422  1.4621
   61MOL    H12 7332   3.663   7.284   0.357 -0.3348  1.2376  1.4248
   61MOL    H13 7333   3.785   7.396   0.404 -2.0143 -1.0189  1.9523
   61MOL    C14 7334   3.720   7.425   0.198  0.2603 -0.3822  0.6412
   61MOL    C15 7335   3.625   7.546   0.229  0.2417  0.3622  0.0040
   61MOL    H16 7336   3.809   7.447   0.140  0.1652 -1.9070 -0.1164
   61MOL    H17 7337   3.668   7.365   0.123  0.2150  1.1020 -0.5315
   61MOL    H18 7338   3.526   7.506   0.249 -0.0140  0.3351 -1.2464
   61MOL    H19 7339   3.665   7.594   0.318  1.2646  2.0567 -1.3413
   61MOL    C20 7340   3.615   7.625   0.101 -0.7678  0.3155  0.1292
   61MOL    C21 7341   3.531   0.063   0.096 -0.6485  0.0945 -0.0116
   61MOL    H22 7342   3.712   7.644   0.056 -0.2097 -0.9121  0.7935
   61MOL    H23 7343   3.567   7.554   0.033 -1.4208 -0.1136  1.0265
   61MOL    H24 7344   3.443   0.017   0.142 -1.3154  0.1460 -1.2221
   61MOL    H25 7345   3.564   0.139   0.166 -0.4772 -0.2891  0.3258
   61MOL    C26 7346   3.490   0.115   7.647 -0.0287 -0.3731 -0.3161
   61MOL    C27 7347   3.519   0.260   7.624  0.9412  0.3961  0.6632
   61MOL    H28 7348   3.531   0.064   7.561 -0.6295 -0.6759 -0.4284
   61MOL    H29 7349   3.383   0.103   7.632 -0.4406  2.8833 -0.1691
   61MOL    H30 7350   3.462   0.295   7.538  0.7427 -0.4323  0.4505
   61MOL    H31 7351   3.485   0.326   0.012 -1.3948 -1.6583  1.4458
   61MOL    C32 7352   3.668   0.281   7.612 -0.4920 -0.3483 -0.4088
   61MOL    C33 7353   3.732   0.226   7.481 -0.1167 -0.0509 -0.3690
   61MOL    H34 7354   3.671   0.390   7.608  1.5312 -0.4103 -1.1648
   61MOL    H35 7355   3.717   0.239   0.008 -1.5259 -1.0524 -0.1529
   61MOL    H36 7356   3.699   0.125   7.456  0.1244  0.3411 -2.3865
   61MOL    H37 7357   3.698   0.291   7.401  0.0331  0.2921 -0.1545
   61MOL    C38 7358   3.889   0.238   7.474  0.2704 -0.2285  0.3941
   61MOL    C39 7359   3.963   0.164   7.588  0.2089  0.5641 -0.4700
   61MOL    H40 7360   3.931   0.214   7.376  0.5310 -0.4794  0.5668
   61MOL    H41 7361   3.926   0.340   7.481  0.1622 -0.2412  1.2531
   61MOL    H42 7362   4.067   0.195   7.604  1.2588 -3.5917  1.4136
   61MOL    H43 7363   3.921   0.184   7.686 -2.7721 -0.0959 -1.5755
   61MOL    C44 7364   3.973   0.006   7.573  0.1440 -0.8677  0.7034
   61MOL    C45 7365   4.079   7.636   7.664 -0.1509 -0.1618  0.4737
   61MOL    H46 7366   3.872   7.657   7.581 -1.6990  2.7843 -2.3462
   61MOL    H47 7367   3.996   7.662   7.473  3.6562 -2.3352  1.9493
   61MOL    H48 7368   4.177   7.684   7.661 -0.0605 -0.2409  2.0088
   61MOL    H49 7369   4.051   7.642   0.077 -0.2000  2.4789  0.3374
   61MOL    C50 7370   4.091   7.487   7.650  0.0484  0.1360 -0.7064
   61MOL    C51 7371   4.186   7.422   0.055  0.0615 -0.1041  0.2432
   61MOL    H52 7372   3.994   7.438   7.646 -0.0584  0.3996 -1.5414
   61MOL    H53 7373   4.135   7.453   7.556 -0.5978 -0.3952 -0.8231
   61MOL    H54 7374   4.290   7.430   0.025 -0.0813  0.3077 -0.1431
   61MOL    H55 7375   4.172   7.463   0.155  1.2318  0.1604  0.2998
   61MOL    C56 7376   4.161   7.273   0.055  0.1643 -0.1389 -0.0900
   61MOL    C57 7377   4.262   7.197   0.149 -0.1361 -0.0683 -0.1795
   61MOL    H58 7378   4.057   7.253   0.080  0.3119 -1.0990 -0.2295
   61MOL    H59 7379   4.185   7.234   7.648 -2.9072 -2.4126 -0.0109
   61MOL    H60 7380   4.359   7.247   0.139 -0.4807  0.4647 -0.8876
   61MOL    H61 7381   4.228   7.204   0.253 -1.1023 -2.1333 -0.3434
   61MOL    C62 7382   4.285   7.052   0.132 -0.6091  0.6123 -0.2092
   61MOL    C63 7383   4.397   6.999   0.230 -0.0450  0.1089  0.3152
   61MOL    H64 7384   4.191   7.002   0.159  0.2231 -0.7578  0.1770
   61MOL    H65 7385   4.311   7.029   0.029  2.3406  3.0457 -0.0862
   61MOL    H66 7386   4.490   7.053   0.214 -0.3634  0.6195  0.1795
   61MOL    H67 7387   4.377   7.020   0.336  0.6254  1.3851  0.2028
   61MOL    C68 7388   4.416   6.849   0.224  0.6899  0.5013 -0.2802
   61MOL    C69 7389   4.498   6.782   0.340 -0.2328  0.6235 -0.4853
   61MOL    H70 7390   4.317   6.805   0.234  1.0003 -0.2400 -0.4412
   61MOL    H71 7391   4.463   6.815   0.132  1.0026 -0.6397  0.2950
   61MOL    H72 7392   4.588   6.841   0.360  0.2946  0.0269 -1.0387
   61MOL    H73 7393   4.434   6.797   0.427 -1.0159  1.2402 -1.1597
   61MOL    C74 7394   4.533   6.637   0.313 -0.1604  0.0204 -1.3892
   61MOL    C75 7395   4.632   6.569   0.410  0.0746  0.0700 -0.5125
   61MOL    H76 7396   4.442   6.578   0.314 -1.2087  1.5896  2.8308
   61MOL    H77 7397   4.586   6.637   0.217  1.1195 -0.3475 -0.6965
   61MOL    H78 7398   4.723   6.629   0.407 -0.2369  0.6150  0.5956
   61MOL    H79 7399   4.591   6.564   0.511  1.4075 -1.5689 -0.0369
   61MOL    C80 7400   4.669   6.423   0.374  0.2121 -0.0580  0.1394
   61MOL    C81 7401   4.792   6.372   0.459  0.5454  0.0401 -0.9818
   61MOL    H82 7402   4.583   6.364   0.404 -0.0270  0.5430  0.6574
   61MOL    H83 7403   4.696   6.423   0.268 -1.5261 -1.6127 -0.3170
   61MOL    H84 7404   4.873   6.445   0.458 -0.5278  1.3269  1.2030
   61MOL    H85 7405   4.773   6.350   0.564  0.1553  1.7062 -0.6934
   61MOL    C86 7406   4.844   6.241   0.410  0.1653  0.0765  0.3610
   61MOL    C87 7407   4.958   6.188   0.499  0.3129  0.1797  0.4103
   61MOL    H88 7408   4.762   6.169   0.409 -1.1006  1.4183  3.2942
   61MOL    H89 7409   4.875   6.246   0.305 -0.2298  2.1449  0.3191
   61MOL    H90 7410   5.036   6.265   0.496 -1.2066  1.7769  1.1214
   61MOL    H91 7411   4.929   6.191   0.603 -1.4903  2.0563 -0.1094
   61MOL    C92 7412   5.013   6.056   0.462 -0.4697  0.5209  0.3797
   61MOL    C93 7413   5.148   6.029   0.533  0.2541 -0.2936  0.1356
   61MOL    H94 7414   4.940   5.975   0.472  0.8364 -0.6514  0.4380
   61MOL    H95 7415   5.052   6.061   0.361 -0.4061  0.5107  0.4035
   61MOL    H96 7416   5.228   6.066   0.469 -0.4974  1.0315 -0.0630
   61MOL    H97 7417   5.155   6.092   0.622 -0.6763  0.4306 -0.2998
   61MOL    C98 7418   5.173   5.879   0.564  0.0019 -0.2270  0.5937
   61MOL    C99 7419   5.298   5.839   0.629  0.4915  0.0201  0.3409
   61MOL   H100 7420   5.087   5.831   0.611  0.3526  0.0262  1.4870
   61MOL   H101 7421   5.170   5.825   0.469  0.7613 -1.5860  1.3237
   61MOL   H102 7422   5.382   5.885   0.576 -0.0986  0.5599 -0.1274
   61MOL   H103 7423   5.300   5.878   0.731 -2.0860 -2.2427  1.3020
   61MOL   C104 7424   5.320   5.688   0.644 -0.6919 -0.4173 -0.3585
   61MOL   C105 7425   5.456   5.652   0.697  0.3653  1.1687 -0.3755
   61MOL   H106 7426   5.238   5.660   0.710 -1.8699 -2.6817 -2.7231
   61MOL   H107 7427   5.297   5.635   0.552  1.2572  0.4543 -1.3685
   61MOL   H108 7428   5.539   5.684   0.634  0.5688 -0.3297 -0.8835
   61MOL   H109 7429   5.470   5.704   0.792 -1.2094  1.9004 -0.5351
   61MOL   C110 7430   5.489   5.499   0.723 -0.1378 -0.6117 -0.4375
   61MOL   C111 7431   5.633   5.466   0.758 -0.2239 -0.4529 -0.5330
   61MOL   H112 7432   5.433   5.462   0.808  0.5061  3.1227  1.7179
   61MOL   H113 7433   5.474   5.444   0.630  0.6968 -0.1134 -0.8734
   61MOL   H114 7434   5.683   5.497   0.667 -0.9410 -0.1035 -0.8079
   61MOL   H115 7435   5.675   5.520   0.843  1.6660 -1.9168 -0.4782
   61MOL   C116 7436   5.663   5.314   0.755  0.1837  0.1389  0.1280
   61MOL   C117 7437   5.612   5.245   0.878  0.1579  0.5142 -0.2679
   61MOL   H118 7438   5.615   5.271   0.668 -1.9214 -0.5580  1.5881
   61MOL   H119 7439   5.767   5.283   0.758 -0.5741 -2.5308 -0.2690
   61MOL   H120 7440   5.607   5.304   0.970 -1.4503  2.0154 -1.2836
   61MOL   H121 7441   5.506   5.223   0.866  0.2240  0.0230  0.0556
   61MOL   H122 7442   5.640   5.144   0.908 -3.3329  0.4590  3.1999
   62MOL     C1 7443   1.956   3.658   4.972 -0.0236  0.2946 -0.6571
   62MOL     C2 7444   1.893   3.524   4.985  0.8263 -0.3371  0.4394
   62MOL     H3 7445   1.941   3.694   4.870 -1.6843 -2.1242 -1.3324
   62MOL     H4 7446   2.062   3.653   4.997 -0.3798  0.0689  0.8719
   62MOL     H5 7447   1.917   3.461   4.899  0.8516  0.3354 -0.0546
   62MOL     H6 7448   1.908   3.478   5.083  1.3762 -0.6285  0.2246
   62MOL     H7 7449   1.911   3.725   5.045  0.2826  1.8628 -1.8943
   62MOL     C8 7450   1.740   3.533   4.972  0.0891 -0.1838  0.0756
   62MOL     C9 7451   1.661   3.413   4.935  0.6624 -0.0762  0.2662
   62MOL    H10 7452   1.697   3.567   5.066  3.3432 -0.1740  1.6575
   62MOL    H11 7453   1.719   3.614   4.901  1.4989 -0.0485 -0.2046
   62MOL    H12 7454   1.685   3.377   4.834 -0.1115 -1.1257  0.4497
   62MOL    H13 7455   1.700   3.329   4.992 -2.6537 -1.3338  0.7955
   62MOL    C14 7456   1.509   3.431   4.961 -0.0792  0.0941 -0.1809
   62MOL    C15 7457   1.416   3.322   4.906  0.4171  0.3574  0.1239
   62MOL    H16 7458   1.484   3.442   5.067  0.1169  1.1491 -0.2436
   62MOL    H17 7459   1.478   3.528   4.925  1.4608 -0.5349 -3.3964
   62MOL    H18 7460   1.411   3.313   4.797 -0.4676  1.4678  0.0670
   62MOL    H19 7461   1.444   3.222   4.940  1.4304  1.2132  1.8245
   62MOL    C20 7462   1.275   3.354   4.926 -0.1307  0.0380 -1.1310
   62MOL    C21 7463   1.231   3.322   5.065 -0.0085  0.6188 -0.1681
   62MOL    H22 7464   1.279   3.461   4.904  1.9486 -0.0811 -1.4452
   62MOL    H23 7465   1.209   3.299   4.860  0.5068  0.4375 -2.1001
   62MOL    H24 7466   1.214   3.215   5.067 -0.3129  0.6800  0.8421
   62MOL    H25 7467   1.309   3.341   5.140  0.0025  2.2617 -0.5702
   62MOL    C26 7468   1.098   3.393   5.101  0.9070 -0.5453  0.4306
   62MOL    C27 7469   1.035   3.329   5.227  0.1354 -0.0986 -0.4190
   62MOL    H28 7470   1.118   3.496   5.131  2.5446 -0.7218 -0.0159
   62MOL    H29 7471   1.023   3.405   5.023 -1.0127 -1.4179  2.0978
   62MOL    H30 7472   1.027   3.220   5.216 -0.0786 -0.1608  0.3034
   62MOL    H31 7473   1.118   3.336   5.297 -0.0913 -0.1334 -0.1425
   62MOL    C32 7474   0.896   3.405   5.264  0.1178 -0.3875  0.6835
   62MOL    C33 7475   0.845   3.354   5.398 -0.1055 -0.6227  0.5375
   62MOL    H34 7476   0.903   3.514   5.269 -0.3730 -0.3766  1.2676
   62MOL    H35 7477   0.825   3.382   5.185  1.1943  1.7521 -0.9322
   62MOL    H36 7478   0.823   3.248   5.386  1.4805 -0.8223 -0.7679
   62MOL    H37 7479   0.925   3.353   5.472  0.6742 -1.5720 -0.3116
   62MOL    C38 7480   0.725   3.419   5.449  0.0364  0.5358 -0.6947
   62MOL    C39 7481   0.703   3.367   5.594 -0.0285  0.4122 -0.0988
   62MOL    H40 7482   0.739   3.527   5.462 -2.1736  0.8482 -0.6954
   62MOL    H41 7483   0.640   3.391   5.387  0.7751 -2.2830 -0.5053
   62MOL    H42 7484   0.765   3.282   5.625 -2.1080 -2.2219 -2.7959
   62MOL    H43 7485   0.738   3.438   5.668 -0.7503  0.3767  0.2803
   62MOL    C44 7486   0.563   3.315   5.618 -0.1002  0.1766  0.5229
   62MOL    C45 7487   0.535   3.260   5.759 -0.4116 -0.4026  0.3467
   62MOL    H46 7488   0.504   3.406   5.603  1.1599  0.8805 -0.2529
   62MOL    H47 7489   0.532   3.241   5.545  2.7984 -1.0922  0.4844
   62MOL    H48 7490   0.589   3.165   5.765  0.6656  0.2967  1.9307
   62MOL    H49 7491   0.578   3.320   5.839  0.5692  0.2508 -0.6605
   62MOL    C50 7492   0.379   3.237   5.777 -0.2668  0.1115 -0.2456
   62MOL    C51 7493   0.340   3.168   5.910  0.4870 -0.3667  0.2342
   62MOL    H52 7494   0.326   3.333   5.781  0.6526  0.7849 -3.3232
   62MOL    H53 7495   0.335   3.172   5.702 -2.2294 -0.9443  1.7675
   62MOL    H54 7496   0.399   3.077   5.910 -0.8813 -1.2713  1.9368
   62MOL    H55 7497   0.377   3.213   6.002  0.9874 -1.7194  0.6940
   62MOL    C56 7498   0.190   3.139   5.919  0.6442 -0.1210  0.8396
   62MOL    C57 7499   0.148   3.096   6.059 -0.6539 -0.0104 -0.6984
   62MOL    H58 7500   0.132   3.225   5.887 -1.2573 -0.7060  2.6157
   62MOL    H59 7501   0.159   3.060   5.850 -1.8971  0.4652  1.2441
   62MOL    H60 7502   0.207   3.011   6.093  1.5747  2.3601  1.6080
   62MOL    H61 7503   0.183   3.186   6.111  0.0012 -0.8987  0.4319
   62MOL    C62 7504   7.691   3.070   6.080  0.0585 -0.4057 -0.5223
   62MOL    C63 7505   7.664   3.021   6.227  0.3414  0.2052  0.4028
   62MOL    H64 7506   7.633   3.158   6.052 -1.0170 -0.3778  1.7179
   62MOL    H65 7507   7.664   2.991   6.009 -3.0806  0.3566 -0.2295
   62MOL    H66 7508   0.025   2.928   6.248  1.3109  0.8204  0.7279
   62MOL    H67 7509   0.017   3.085   6.303 -1.3946 -2.2669  3.6315
   62MOL    C68 7510   7.519   2.991   6.234 -0.0137 -0.3110  0.1862
   62MOL    C69 7511   7.471   2.976   6.384 -0.2182 -0.7933 -0.0973
   62MOL    H70 7512   7.469   3.083   6.202 -0.6921 -0.0799  1.8697
   62MOL    H71 7513   7.488   2.905   6.176  1.0715 -0.9160  0.4982
   62MOL    H72 7514   7.493   3.067   6.440 -0.6241 -0.8747  0.2009
   62MOL    H73 7515   7.363   2.967   6.382 -0.2643 -0.0831 -0.7496
   62MOL    C74 7516   7.527   2.857   6.467  0.2700 -0.2558  0.0513
   62MOL    C75 7517   7.667   2.880   6.527  0.6514  0.4588 -0.2586
   62MOL    H76 7518   7.462   2.839   6.552  0.1088 -3.0266 -0.5897
   62MOL    H77 7519   7.518   2.765   6.409  1.9898  0.4054 -1.2941
   62MOL    H78 7520   0.052   2.905   6.454  3.9189 -2.7632  1.9415
   62MOL    H79 7521   7.667   2.966   6.593 -0.4493 -0.3619  0.8435
   62MOL    C80 7522   0.012   2.752   6.609 -0.9674 -0.1025 -0.4210
   62MOL    C81 7523   0.143   2.782   6.688 -0.3017 -0.6320  1.1222
   62MOL    H82 7524   7.627   2.730   6.683 -0.2681 -1.5854 -0.1373
   62MOL    H83 7525   0.017   2.667   6.542  0.5809 -1.5811  1.5144
   62MOL    H84 7526   0.214   2.817   6.613 -2.7582 -1.9287 -1.9273
   62MOL    H85 7527   0.117   2.861   6.759 -1.4120  0.3607 -0.3625
   62MOL    C86 7528   0.189   2.657   6.771  0.5830 -0.3421 -0.3887
   62MOL    C87 7529   0.312   2.682   6.865 -0.2842  0.4776  1.0487
   62MOL    H88 7530   0.102   2.622   6.826  2.3434 -4.2858  0.0280
   62MOL    H89 7531   0.216   2.570   6.711 -0.7740 -0.8773 -0.2382
   62MOL    H90 7532   0.398   2.727   6.816  0.6189 -0.2570  1.9274
   62MOL    H91 7533   0.272   2.750   6.941 -0.0033  0.6974  1.0022
   62MOL    C92 7534   0.361   2.554   6.941 -0.1139  0.0135 -0.3343
   62MOL    C93 7535   0.481   2.579   7.037  0.8778 -0.1512  0.4949
   62MOL    H94 7536   0.273   2.512   6.989 -0.6839 -0.5694 -1.8322
   62MOL    H95 7537   0.394   2.476   6.872  0.3668 -0.3973  0.3586
   62MOL    H96 7538   0.526   2.483   7.061  0.4662 -0.2593  0.8497
   62MOL    H97 7539   0.565   2.614   6.977  1.0626  0.9896  1.4008
   62MOL    C98 7540   0.452   2.666   7.165 -0.1925 -0.0989 -0.8351
   62MOL    C99 7541   0.585   2.695   7.239 -0.4206  0.0633  1.0005
   62MOL   H100 7542   0.405   2.760   7.135  0.5670  1.0367  1.4065
   62MOL   H101 7543   0.376   2.619   7.227  0.1776  0.2390 -0.1091
   62MOL   H102 7544   0.648   2.607   7.250  1.4633  1.2809  0.2255
   62MOL   H103 7545   0.646   2.760   7.177  0.1971  0.8628  2.4136
   62MOL   C104 7546   0.570   2.756   7.381 -0.6066  0.1491 -0.7305
   62MOL   C105 7547   0.707   2.781   7.454 -0.0190  0.2730  0.3701
   62MOL   H106 7548   0.521   2.853   7.388 -1.2430 -0.2023 -0.1779
   62MOL   H107 7549   0.502   2.683   7.426  1.3553 -0.0440  2.0443
   62MOL   H108 7550   0.779   2.701   7.434  0.6990  0.6717  1.3184
   62MOL   H109 7551   0.743   2.873   7.410  0.5585 -0.6559 -1.1475
   62MOL   C110 7552   0.691   2.808   7.602 -0.5221 -0.4765  0.3004
   62MOL   C111 7553   0.826   2.867   7.651  0.4726  0.8306  0.6705
   62MOL   H112 7554   0.608   2.876   7.623 -1.6183 -1.5939 -0.3063
   62MOL   H113 7555   0.668   2.715   7.655  0.8003 -2.3017 -2.2065
   62MOL   H114 7556   0.899   2.793   7.618  0.2326  0.8151  0.1635
   62MOL   H115 7557   0.863   2.954   7.596 -1.5458  1.2566 -0.0774
   62MOL   C116 7558   0.831   2.882   0.116 -0.4681 -0.2962 -0.2480
   62MOL   C117 7559   0.978   2.918   0.159  0.1945 -0.2203  0.4042
   62MOL   H118 7560   0.757   2.955   0.151  0.8813  0.4561  1.0684
   62MOL   H119 7561   0.800   2.785   0.153 -1.6180  0.6059  1.2102
   62MOL   H120 7562   1.056   2.852   0.122 -0.7090 -1.6965  1.0725
   62MOL   H121 7563   0.997   3.020   0.126 -0.4037 -0.2125  0.0800
   62MOL   H122 7564   0.983   2.917   0.268  0.2269  1.3643  0.4312
   63MOL     C1 7565   5.705   2.751   3.440 -0.0768  0.2214  0.1381
   63MOL     C2 7566   5.727   2.647   3.549  0.3309  0.1897 -0.2776
   63MOL     H3 7567   5.792   2.747   3.374 -0.5813  1.0088 -0.5875
   63MOL     H4 7568   5.691   2.855   3.469 -0.3000  0.6021 -1.2926
   63MOL     H5 7569   5.639   2.639   3.612  0.1677 -0.0480 -0.5315
   63MOL     H6 7570   5.743   2.548   3.507 -1.0699 -0.4743  0.7243
   63MOL     H7 7571   5.623   2.720   3.376  0.3058  1.2057 -0.8408
   63MOL     C8 7572   5.859   2.682   3.630  0.0300 -0.1089  0.7856
   63MOL     C9 7573   5.906   2.564   3.715 -0.5817 -0.3016 -0.0528
   63MOL    H10 7574   5.945   2.686   3.563  1.1364  0.1116  2.1947
   63MOL    H11 7575   5.848   2.775   3.686  0.2939 -0.3797  1.2885
   63MOL    H12 7576   5.825   2.537   3.783 -0.9708  1.2621  0.1221
   63MOL    H13 7577   5.923   2.471   3.661 -0.8907  0.2616 -1.1087
   63MOL    C14 7578   6.023   2.595   3.799 -0.6006 -0.0156 -0.2030
   63MOL    C15 7579   6.050   2.475   3.891  0.5877  0.5570  0.0930
   63MOL    H16 7580   6.114   2.600   3.738 -0.1575 -1.7154  0.3083
   63MOL    H17 7581   6.021   2.690   3.853 -0.6049  0.0053 -0.2393
   63MOL    H18 7582   5.962   2.475   3.955  0.4276  0.1504 -0.1265
   63MOL    H19 7583   6.054   2.376   3.845  3.3219  0.9539 -0.5865
   63MOL    C20 7584   6.173   2.492   3.986 -0.3956  0.1273  0.1245
   63MOL    C21 7585   6.189   2.377   4.091  0.6922  0.3723  0.1772
   63MOL    H22 7586   6.261   2.487   3.922 -0.1457  1.4315  0.3449
   63MOL    H23 7587   6.167   2.593   4.027 -0.8919  0.8458 -1.6320
   63MOL    H24 7588   6.091   2.380   4.139  0.8179  1.8955  0.3589
   63MOL    H25 7589   6.183   2.277   4.049  4.0472  0.1784  0.0569
   63MOL    C26 7590   6.308   2.386   4.188 -0.2787  0.2095 -0.1164
   63MOL    C27 7591   6.442   2.374   4.115 -0.0584 -0.1768  0.6109
   63MOL    H28 7592   6.306   2.479   4.245  0.6477  1.6084 -2.3251
   63MOL    H29 7593   6.292   2.307   4.262 -1.6251  0.1014 -0.5132
   63MOL    H30 7594   6.420   2.297   4.042 -0.6378 -1.6766  2.3347
   63MOL    H31 7595   6.460   2.465   4.058 -0.5985 -0.4800 -0.0431
   63MOL    C32 7596   6.558   2.329   4.216  0.8230  0.2664 -0.6072
   63MOL    C33 7597   6.691   2.309   4.138 -0.2540  0.2027 -0.8567
   63MOL    H34 7598   6.560   2.394   4.303  1.4182 -3.0978  1.9971
   63MOL    H35 7599   6.528   2.232   4.257  0.2373  1.0292  0.7900
   63MOL    H36 7600   6.673   2.226   4.070 -0.9889  1.8768 -2.7517
   63MOL    H37 7601   6.705   2.398   4.077 -0.5227  2.5420  2.3468
   63MOL    C38 7602   6.821   2.282   4.216  0.5550 -0.1072 -0.2643
   63MOL    C39 7603   6.833   2.374   4.328 -0.6639 -0.3949  0.0935
   63MOL    H40 7604   6.822   2.179   4.254 -0.6323  0.1651  0.5233
   63MOL    H41 7605   6.906   2.290   4.148 -0.1780 -0.7313 -1.2582
   63MOL    H42 7606   6.821   2.478   4.298  3.5143 -0.0111 -0.5686
   63MOL    H43 7607   6.760   2.338   4.400  1.8445  0.3295  3.1159
   63MOL    C44 7608   6.974   2.366   4.402 -0.4875  0.3603 -0.0065
   63MOL    C45 7609   6.956   2.422   4.539  0.3775  0.7954 -1.3083
   63MOL    H46 7610   7.004   2.263   4.415 -1.5914  0.0097 -0.1763
   63MOL    H47 7611   7.048   2.417   4.340  0.8753 -1.7734 -0.1818
   63MOL    H48 7612   6.911   2.521   4.535 -0.0748  0.5802 -1.6475
   63MOL    H49 7613   6.899   2.353   4.600  1.3426  1.7150  0.6566
   63MOL    C50 7614   7.096   2.434   4.611  0.1298 -0.1873  0.4456
   63MOL    C51 7615   7.084   2.455   4.762  0.2602  0.1135 -0.1710
   63MOL    H52 7616   7.140   2.336   4.593 -0.1839 -0.7027  2.3414
   63MOL    H53 7617   7.162   2.505   4.561 -0.4723  0.2801  0.3081
   63MOL    H54 7618   7.044   2.363   4.804 -2.4286  1.4088  0.1315
   63MOL    H55 7619   7.188   2.467   4.794  0.5720  1.3938 -1.6011
   63MOL    C56 7620   7.003   2.575   4.802 -0.5918 -0.4804  0.7122
   63MOL    C57 7621   6.982   2.591   4.953  0.6378  0.0050  0.5786
   63MOL    H58 7622   7.053   2.663   4.762 -1.1282 -1.1840 -1.6214
   63MOL    H59 7623   6.911   2.573   4.743  0.7978  1.7475 -1.6595
   63MOL    H60 7624   7.072   2.560   5.007  1.2382 -0.2408 -0.5559
   63MOL    H61 7625   6.975   2.699   4.965 -0.0805  0.0072  0.1484
   63MOL    C62 7626   6.857   2.523   5.017  0.3440  0.6110  0.2134
   63MOL    C63 7627   6.842   2.562   5.168 -0.1124  0.1305  0.6745
   63MOL    H64 7628   6.765   2.532   4.959  0.8937  1.7153 -0.4786
   63MOL    H65 7629   6.870   2.415   5.013 -0.3245  0.5429 -0.2849
   63MOL    H66 7630   6.931   2.546   5.228 -0.1906  0.2297  0.8155
   63MOL    H67 7631   6.832   2.671   5.174  0.5873  0.2357 -0.0597
   63MOL    C68 7632   6.716   2.507   5.233 -0.0703  0.6344 -0.4676
   63MOL    C69 7633   6.709   2.524   5.383  0.3301  0.2273 -0.1156
   63MOL    H70 7634   6.637   2.547   5.171  0.8869 -0.5821 -2.5093
   63MOL    H71 7635   6.721   2.402   5.204  0.6543  0.4712  0.2117
   63MOL    H72 7636   6.796   2.478   5.430 -0.4270 -1.2627 -0.1248
   63MOL    H73 7637   6.723   2.632   5.392  1.3906  0.3550 -2.7081
   63MOL    C74 7638   6.592   2.456   5.462 -0.2569  0.3081  0.5523
   63MOL    C75 7639   6.583   2.504   5.609 -0.2138  0.2664  0.7505
   63MOL    H76 7640   6.497   2.485   5.418 -0.8383 -0.1093  1.5220
   63MOL    H77 7641   6.611   2.349   5.460  0.0039  0.3746 -1.2114
   63MOL    H78 7642   6.677   2.474   5.656  0.3152 -0.8141 -0.9489
   63MOL    H79 7643   6.584   2.613   5.609  0.1019  0.2644  0.9726
   63MOL    C80 7644   6.461   2.456   5.679  0.6272 -0.4164 -0.3096
   63MOL    C81 7645   6.462   2.481   5.829  0.1147  0.5169 -0.7242
   63MOL    H82 7646   6.376   2.510   5.638  0.3771  0.7266  1.6981
   63MOL    H83 7647   6.449   2.348   5.662 -2.2562 -0.2522  0.4758
   63MOL    H84 7648   6.563   2.463   5.867 -0.7734 -1.5224  0.7427
   63MOL    H85 7649   6.441   2.586   5.852 -3.6302  0.1918 -2.3165
   63MOL    C86 7650   6.355   2.408   5.910 -0.0111 -0.0263 -0.3469
   63MOL    C87 7651   6.305   2.481   6.039 -0.3796 -0.9657 -0.3007
   63MOL    H88 7652   6.273   2.390   5.840  0.1599 -1.1680 -0.2774
   63MOL    H89 7653   6.390   2.306   5.930 -0.4538 -0.1782 -0.3280
   63MOL    H90 7654   6.381   2.489   6.116 -2.3129 -0.2957  1.6006
   63MOL    H91 7655   6.276   2.585   6.022  0.5753 -0.2342  2.3840
   63MOL    C92 7656   6.193   2.411   6.102 -0.4103 -0.3724  0.2615
   63MOL    C93 7657   6.232   2.289   6.183  0.5677  0.1620 -0.5423
   63MOL    H94 7658   6.155   2.492   6.165 -2.4640 -0.5889 -0.6785
   63MOL    H95 7659   6.110   2.400   6.033  0.1803  1.0592 -0.6994
   63MOL    H96 7660   6.294   2.213   6.136  0.1542 -0.1955 -0.5167
   63MOL    H97 7661   6.293   2.324   6.266  2.1198 -1.8635 -0.7814
   63MOL    C98 7662   6.106   2.221   6.240 -0.6324 -0.3676  0.0229
   63MOL    C99 7663   6.150   2.124   6.352 -0.8949 -0.4998 -0.0055
   63MOL   H100 7664   6.045   2.303   6.278  0.2377  0.5481 -0.5262
   63MOL   H101 7665   6.049   2.172   6.162 -1.0464 -2.3430  1.5125
   63MOL   H102 7666   6.247   2.076   6.336 -0.9805 -0.7693  0.2602
   63MOL   H103 7667   6.172   2.184   6.440  0.9119 -0.6479 -0.3378
   63MOL   C104 7668   6.047   2.013   6.363  0.2646 -0.3655 -0.2132
   63MOL   C105 7669   5.924   2.054   6.437  0.1203 -0.1366  0.3044
   63MOL   H106 7670   6.035   1.972   6.263 -1.4076  3.4358 -1.6432
   63MOL   H107 7671   6.091   1.936   6.427 -0.0737 -0.1332  0.2964
   63MOL   H108 7672   5.946   2.047   6.543 -0.5580 -0.0962  0.4518
   63MOL   H109 7673   5.896   2.151   6.396  0.8374  0.3952  1.0753
   63MOL   C110 7674   5.800   1.965   6.402 -0.0709  0.1028 -0.4749
   63MOL   C111 7675   5.670   2.000   6.464 -0.3658  0.1753  0.2334
   63MOL   H112 7676   5.788   1.972   6.293 -0.6627  0.9267 -0.3628
   63MOL   H113 7677   5.824   1.859   6.409 -0.1869  0.1734  1.1393
   63MOL   H114 7678   5.684   1.987   6.572 -0.0144 -0.3728  0.1195
   63MOL   H115 7679   5.650   2.107   6.454 -1.1290 -0.0380 -0.5854
   63MOL   C116 7680   5.544   1.918   6.415 -0.3226 -0.5249  0.3032
   63MOL   C117 7681   5.410   1.967   6.473 -0.8142  0.4012  1.0012
   63MOL   H118 7682   5.532   1.932   6.307 -0.4701  3.5401  0.7700
   63MOL   H119 7683   5.555   1.813   6.441 -0.3414  0.0510  2.7102
   63MOL   H120 7684   5.401   2.074   6.455 -0.8446 -0.3148 -4.0187
   63MOL   H121 7685   5.338   1.910   6.414  1.7345 -1.1629 -0.7273
   63MOL   H122 7686   5.409   1.950   6.580  0.6372  2.7442  1.4337
   64MOL     C1 7687   4.354   3.121   6.068 -0.5531 -0.4104  0.5208
   64MOL     C2 7688   4.332   3.128   6.222 -0.3096 -0.6140 -0.2798
   64MOL     H3 7689   4.296   3.040   6.024 -1.9451  1.5161 -1.3058
   64MOL     H4 7690   4.459   3.105   6.043 -0.4435 -1.0739  1.3698
   64MOL     H5 7691   4.225   3.145   6.230 -0.2937 -0.1556 -0.9501
   64MOL     H6 7692   4.356   3.031   6.264 -0.9395 -0.4648  0.4364
   64MOL     H7 7693   4.342   3.220   6.024  1.2501 -1.0983 -1.5958
   64MOL     C8 7694   4.409   3.238   6.294  0.2256  0.2511  0.0489
   64MOL     C9 7695   4.558   3.209   6.301  0.6053 -0.3756  0.3697
   64MOL    H10 7696   4.404   3.331   6.237  0.6447  1.7657  2.4105
   64MOL    H11 7697   4.377   3.247   6.398 -1.7615 -2.0979 -0.3375
   64MOL    H12 7698   4.569   3.120   6.362  0.2927 -1.2405 -0.8128
   64MOL    H13 7699   4.602   3.198   6.201  1.3456  1.8890  0.4169
   64MOL    C14 7700   4.631   3.322   6.373  0.8491  0.6107 -0.2816
   64MOL    C15 7701   4.777   3.287   6.388 -0.2517 -0.8508  0.4799
   64MOL    H16 7702   4.623   3.417   6.319 -0.8619  1.1681  0.8976
   64MOL    H17 7703   4.578   3.336   6.467 -1.1235  0.2105 -1.3052
   64MOL    H18 7704   4.779   3.196   6.449  0.8872 -2.5957 -2.0697
   64MOL    H19 7705   4.838   3.269   6.299 -0.1220  0.2958  0.3328
   64MOL    C20 7706   4.861   3.404   6.451 -0.1208  0.6625  0.1403
   64MOL    C21 7707   5.009   3.387   6.477  0.3066  0.0023 -0.2589
   64MOL    H22 7708   4.851   3.496   6.393 -2.6840 -0.5777 -1.4866
   64MOL    H23 7709   4.813   3.412   6.549  2.2823 -0.2443  1.4240
   64MOL    H24 7710   5.024   3.286   6.518 -1.7988 -0.1544  0.1679
   64MOL    H25 7711   5.059   3.388   6.380 -0.4764 -0.0284 -0.6629
   64MOL    C26 7712   5.062   3.496   6.571 -0.6121  0.3822 -0.4302
   64MOL    C27 7713   5.218   3.494   6.593  0.7592  0.0928 -0.0176
   64MOL    H28 7714   5.023   3.589   6.531  0.1621  1.5905  1.5853
   64MOL    H29 7715   5.011   3.487   6.666  0.5794  2.7848  0.4582
   64MOL    H30 7716   5.248   3.404   6.647  0.4966  0.1313  0.1920
   64MOL    H31 7717   5.270   3.495   6.497 -2.1025 -0.8302 -1.6200
   64MOL    C32 7718   5.272   3.619   6.665  0.2915  0.4739 -0.0044
   64MOL    C33 7719   5.248   3.753   6.598  0.0652  0.9551  0.6262
   64MOL    H34 7720   5.245   3.614   6.771 -0.1784  0.2327 -0.1338
   64MOL    H35 7721   5.380   3.609   6.666  0.3227  0.8854  2.4413
   64MOL    H36 7722   5.275   3.743   6.493  3.8929 -3.1232  1.8984
   64MOL    H37 7723   5.142   3.778   6.609 -0.1705  0.8822 -1.3695
   64MOL    C38 7724   5.301   3.879   6.676  0.0212  0.6459  0.1224
   64MOL    C39 7725   5.252   3.883   6.822  0.3090  0.4270  0.3473
   64MOL    H40 7726   5.409   3.890   6.668 -0.1978  2.1986 -1.0394
   64MOL    H41 7727   5.275   3.977   6.636  0.3454  0.5279 -0.3811
   64MOL    H42 7728   5.146   3.905   6.831  0.5298  0.7088  2.4250
   64MOL    H43 7729   5.249   3.785   6.869  1.3781 -0.2275 -0.9044
   64MOL    C44 7730   5.331   3.973   6.914 -0.3363  0.1018  0.3822
   64MOL    C45 7731   5.260   3.996   7.049 -0.1181 -0.3001  0.1662
   64MOL    H46 7732   5.428   3.927   6.935  1.5229  2.9939 -1.4481
   64MOL    H47 7733   5.346   4.069   6.865  0.4718  1.0126  2.3321
   64MOL    H48 7734   5.184   4.073   7.029 -1.3983 -1.9328 -1.4707
   64MOL    H49 7735   5.209   3.904   7.077 -1.0482  0.3916  0.7697
   64MOL    C50 7736   5.361   4.053   7.154 -0.2289  0.1899  0.0283
   64MOL    C51 7737   5.299   4.080   7.291 -0.6552 -0.4057  0.0261
   64MOL    H52 7738   5.442   3.981   7.163 -0.4056 -0.0053  0.0722
   64MOL    H53 7739   5.418   4.140   7.124  1.5612 -1.0423 -0.2077
   64MOL    H54 7740   5.284   4.185   7.313  0.0291 -0.3920  0.4589
   64MOL    H55 7741   5.206   4.025   7.306 -0.4885 -0.4055  1.1191
   64MOL    C56 7742   5.390   4.024   7.404 -0.3653  0.4749  0.1795
   64MOL    C57 7743   5.328   4.060   7.541  0.1708  0.6145 -0.3187
   64MOL    H58 7744   5.415   3.919   7.391 -2.6777 -0.4408  2.5504
   64MOL    H59 7745   5.480   4.084   7.392 -2.0325  3.3384  1.4333
   64MOL    H60 7746   5.325   4.167   7.561  0.3653  0.3803  0.9608
   64MOL    H61 7747   5.225   4.024   7.541  1.0635 -2.0911 -1.8814
   64MOL    C62 7748   5.408   3.999   7.650 -0.0872 -0.1595 -0.0984
   64MOL    C63 7749   5.352   4.018   0.097 -0.6298 -0.9434 -0.8694
   64MOL    H64 7750   5.424   3.892   7.632 -0.3861  0.0028 -1.3467
   64MOL    H65 7751   5.509   4.038   7.639 -1.5243  3.0946 -2.2131
   64MOL    H66 7752   5.329   4.124   0.107  0.5807 -0.9702  3.2779
   64MOL    H67 7753   5.253   3.977   0.116 -1.8942  1.5395 -1.9782
   64MOL    C68 7754   5.445   3.958   0.209  0.2043 -0.2498 -0.6432
   64MOL    C69 7755   5.400   3.970   0.359  0.2283  1.2725  0.3195
   64MOL    H70 7756   5.454   3.851   0.188 -2.0757 -0.5063 -0.4916
   64MOL    H71 7757   5.541   4.008   0.207  0.1750 -0.0441  1.4905
   64MOL    H72 7758   5.369   4.073   0.376 -0.4925  1.2082 -0.5353
   64MOL    H73 7759   5.315   3.902   0.371  0.3433  0.3838 -3.1712
   64MOL    C74 7760   5.514   3.925   0.451 -0.4696 -0.0140 -0.1329
   64MOL    C75 7761   5.469   3.942   0.600 -0.1613  0.1855 -0.6620
   64MOL    H76 7762   5.558   3.826   0.438 -0.3281 -0.4953  3.4800
   64MOL    H77 7763   5.597   3.992   0.429  0.5958 -1.5694 -0.9700
   64MOL    H78 7764   5.452   4.048   0.618  1.4971  0.7146 -2.0288
   64MOL    H79 7765   5.377   3.888   0.621 -0.0907  0.4165  0.2738
   64MOL    C80 7766   5.571   3.877   0.699  0.0602 -0.1541  0.8201
   64MOL    C81 7767   5.525   3.899   0.847  0.4147 -0.2008 -0.6280
   64MOL    H82 7768   5.598   3.776   0.668 -1.0835 -0.8517  2.1021
   64MOL    H83 7769   5.654   3.949   0.696 -1.6636  1.8734  0.1945
   64MOL    H84 7770   5.501   4.001   0.880  1.0056 -0.0885 -0.5501
   64MOL    H85 7771   5.425   3.859   0.866  0.6866 -1.2419 -1.3777
   64MOL    C86 7772   5.637   3.845   0.939  0.1389  0.7556  0.5220
   64MOL    C87 7773   5.581   3.825   1.083 -0.2434 -0.5539  0.0941
   64MOL    H88 7774   5.682   3.756   0.895 -3.7206 -0.5574 -0.9160
   64MOL    H89 7775   5.711   3.926   0.941  0.9457  0.0281  0.4910
   64MOL    H90 7776   5.540   3.925   1.101  0.9902 -0.1801  0.8795
   64MOL    H91 7777   5.495   3.758   1.084  0.8300 -2.0768 -3.4946
   64MOL    C92 7778   5.686   3.790   1.195 -0.1423  0.3656 -0.4582
   64MOL    C93 7779   5.605   3.782   1.324 -0.3751 -0.3578 -0.3416
   64MOL    H94 7780   5.738   3.696   1.177  0.5406  0.6815 -0.1379
   64MOL    H95 7781   5.763   3.866   1.205 -0.6156  0.7499  0.2624
   64MOL    H96 7782   5.550   3.874   1.342  1.5468  0.8444 -0.4161
   64MOL    H97 7783   5.535   3.699   1.318  1.8969 -2.3542 -0.2795
   64MOL    C98 7784   5.703   3.756   1.436 -0.3250 -0.5286  0.2394
   64MOL    C99 7785   5.643   3.742   1.570 -0.4221  0.4191  0.5366
   64MOL   H100 7786   5.755   3.663   1.415  0.5113 -0.3349  1.4682
   64MOL   H101 7787   5.782   3.830   1.432  2.2736 -3.3107 -3.1297
   64MOL   H102 7788   5.580   3.830   1.574  0.2711  0.9414 -0.0021
   64MOL   H103 7789   5.573   3.659   1.580  2.1015 -1.6519  1.8868
   64MOL   C104 7790   5.744   3.741   1.676  0.1007  0.0566 -0.0765
   64MOL   C105 7791   5.672   3.709   1.802  0.4117  0.6072 -0.2272
   64MOL   H106 7792   5.823   3.667   1.661 -0.4648 -0.6560  0.3932
   64MOL   H107 7793   5.788   3.840   1.685 -0.0612 -0.0054  1.3973
   64MOL   H108 7794   5.597   3.786   1.818  0.5371  0.6800  0.0037
   64MOL   H109 7795   5.618   3.615   1.796 -0.1416  0.9421 -0.4726
   64MOL   C110 7796   5.768   3.690   1.925 -0.3680 -0.7675  0.8307
   64MOL   C111 7797   5.695   3.635   2.044 -0.6657 -0.1178 -0.7219
   64MOL   H112 7798   5.839   3.620   1.880 -0.4262 -0.9780  1.0643
   64MOL   H113 7799   5.829   3.777   1.950 -1.1581 -0.5879  2.2079
   64MOL   H114 7800   5.615   3.701   2.077 -0.5813  1.0443 -2.7364
   64MOL   H115 7801   5.646   3.542   2.015 -0.3637 -0.6394  0.4375
   64MOL   C116 7802   5.796   3.585   2.158  0.6952 -0.2825  0.3229
   64MOL   C117 7803   5.710   3.546   2.278 -0.2456 -0.2173 -0.1700
   64MOL   H118 7804   5.866   3.505   2.136 -0.1024 -0.9577  0.2432
   64MOL   H119 7805   5.862   3.671   2.176  3.0408 -1.0449 -3.9532
   64MOL   H120 7806   5.765   3.564   2.370 -0.4620 -0.5221  0.0180
   64MOL   H121 7807   5.630   3.619   2.282  0.3638  0.3785  1.2328
   64MOL   H122 7808   5.681   3.442   2.260  1.2924 -0.5745 -0.7537
   65MOL     C1 7809   4.476   5.944   0.526  0.3740 -0.5202 -0.1203
   65MOL     C2 7810   4.378   5.975   0.417 -0.1478  0.3449 -0.3018
   65MOL     H3 7811   4.474   5.838   0.549  2.2816 -0.3499  0.9332
   65MOL     H4 7812   4.452   5.992   0.621  0.2898  0.0448 -0.4204
   65MOL     H5 7813   4.417   5.940   0.322 -0.4200  2.3425 -1.1894
   65MOL     H6 7814   4.283   5.925   0.432  1.5933 -2.4860  1.7196
   65MOL     H7 7815   4.580   5.964   0.500  0.1493 -0.0148 -0.6393
   65MOL     C8 7816   4.344   6.122   0.410  0.0461  0.1221  0.0387
   65MOL     C9 7817   4.282   6.159   0.277  0.0804  0.7490 -0.1769
   65MOL    H10 7818   4.273   6.140   0.490 -1.0812  0.3825 -1.0078
   65MOL    H11 7819   4.430   6.189   0.421 -0.8375  1.2702  0.1080
   65MOL    H12 7820   4.357   6.145   0.199 -0.2268 -3.3202  0.1506
   65MOL    H13 7821   4.197   6.095   0.255 -1.4438  1.2641  3.8811
   65MOL    C14 7822   4.255   6.309   0.289 -0.3664 -0.3885 -0.4080
   65MOL    C15 7823   4.197   6.368   0.162  0.6281 -0.6919  0.1423
   65MOL    H16 7824   4.196   6.333   0.377 -0.5000 -0.8155 -0.3778
   65MOL    H17 7825   4.350   6.355   0.316 -0.1771 -0.4389 -0.9727
   65MOL    H18 7826   4.279   6.366   0.091  0.1564 -1.2955 -0.3806
   65MOL    H19 7827   4.120   6.293   0.142 -2.2029  1.7184  1.5651
   65MOL    C20 7828   4.151   6.512   0.195 -0.0669 -0.5105  0.2160
   65MOL    C21 7829   4.080   6.582   0.073 -0.3140  0.0204  0.0091
   65MOL    H22 7830   4.090   6.517   0.285 -2.8046 -2.5277 -1.4425
   65MOL    H23 7831   4.239   6.575   0.214  0.4745 -1.3125  0.3688
   65MOL    H24 7832   4.133   6.571   7.671 -0.3732  1.6108 -0.2276
   65MOL    H25 7833   3.983   6.533   0.069  1.2641 -3.2960  0.7226
   65MOL    C26 7834   4.056   6.734   0.094 -0.4142  0.3899 -0.3295
   65MOL    C27 7835   3.960   6.786   7.673 -0.0583  0.4826 -0.0849
   65MOL    H28 7836   4.017   6.777   0.187 -0.0638  0.6689 -0.3062
   65MOL    H29 7837   4.153   6.785   0.089 -0.8698  1.2515 -0.4852
   65MOL    H30 7838   3.981   6.750   7.572 -3.4788  1.0391 -1.0551
   65MOL    H31 7839   3.859   6.752   0.004  0.4948 -1.6937 -0.7320
   65MOL    C32 7840   3.956   6.940   7.665  0.5561  0.4801  0.2767
   65MOL    C33 7841   3.862   6.985   7.554  0.4342  0.5601 -0.6913
   65MOL    H34 7842   3.939   6.994   0.066  1.3979 -2.4468  2.2136
   65MOL    H35 7843   4.060   6.967   7.648  1.8123 -3.8321  0.5127
   65MOL    H36 7844   3.873   6.941   7.455  2.3074 -4.8910  1.7061
   65MOL    H37 7845   3.760   6.948   7.568  0.0821  1.2186 -1.5258
   65MOL    C38 7846   3.862   7.138   7.543 -0.4628 -0.4193  0.6233
   65MOL    C39 7847   3.768   7.192   7.433  0.1156  0.4135 -0.7242
   65MOL    H40 7848   3.831   7.180   7.638  0.2764 -0.5308  0.9121
   65MOL    H41 7849   3.962   7.172   7.517 -0.8820 -0.0401 -0.5733
   65MOL    H42 7850   3.818   7.158   7.342 -1.3012 -0.3731 -1.2139
   65MOL    H43 7851   3.668   7.150   7.436 -0.7178  2.3214 -0.9909
   65MOL    C44 7852   3.753   7.348   7.447  0.1904 -0.3041 -0.0035
   65MOL    C45 7853   3.669   7.412   7.337  0.7103  0.2755  0.0094
   65MOL    H46 7854   3.725   7.385   7.545 -0.8291  0.2327 -0.4898
   65MOL    H47 7855   3.853   7.390   7.438 -0.4311  0.9282 -1.3484
   65MOL    H48 7856   3.730   7.393   7.249  1.2952 -2.1922  0.9273
   65MOL    H49 7857   3.575   7.364   7.311  0.1514  0.2637  1.9371
   65MOL    C50 7858   3.623   7.556   7.357  0.0113  0.4116 -0.5120
   65MOL    C51 7859   3.545   7.612   7.233 -0.6913  0.9894  0.6652
   65MOL    H52 7860   3.564   7.575   7.447  0.1164  1.0257 -0.5736
   65MOL    H53 7861   3.715   7.613   7.371  0.1328  0.5311 -1.7170
   65MOL    H54 7862   3.607   7.617   7.144 -1.6172  0.0094 -0.0624
   65MOL    H55 7863   3.463   7.544   7.209 -2.0471  1.6492  3.1997
   65MOL    C56 7864   3.492   0.060   7.249 -0.3820 -0.0510  0.6338
   65MOL    C57 7865   3.408   0.114   7.136  0.0945 -0.9317  0.3773
   65MOL    H58 7866   3.426   0.061   7.336 -1.5607 -0.6630 -0.2298
   65MOL    H59 7867   3.577   0.125   7.270 -0.3956  0.2981 -0.3642
   65MOL    H60 7868   3.457   0.113   7.039 -0.6652 -0.6484 -0.0116
   65MOL    H61 7869   3.320   0.051   7.123  0.6131 -1.1148 -2.7558
   65MOL    C62 7870   3.369   0.259   7.173 -0.0100 -0.2893 -0.5546
   65MOL    C63 7871   3.266   0.318   7.083  0.0173 -0.0395 -0.6615
   65MOL    H64 7872   3.331   0.266   7.275 -1.8969  0.2459 -1.2758
   65MOL    H65 7873   3.455   0.325   7.184  0.2963 -0.7426 -0.2634
   65MOL    H66 7874   3.283   0.316   6.975 -0.4816 -0.5702 -0.7331
   65MOL    H67 7875   3.170   0.268   7.097  1.3387 -2.6701 -0.6968
   65MOL    C68 7876   3.250   0.466   7.114  0.6761 -0.5990 -0.0266
   65MOL    C69 7877   3.163   0.535   7.017 -0.0993  0.2064  0.4996
   65MOL    H70 7878   3.206   0.490   7.210  1.8520 -0.9341  0.6073
   65MOL    H71 7879   3.346   0.518   7.120 -0.6310  1.6918  2.5333
   65MOL    H72 7880   3.171   0.640   7.046  0.1890 -0.1509  1.7418
   65MOL    H73 7881   3.216   0.517   6.924  1.1303  2.3697  0.7457
   65MOL    C74 7882   3.019   0.486   7.002 -0.2271 -0.7298  0.0649
   65MOL    C75 7883   2.919   0.575   6.933 -0.2610  0.9116  0.2109
   65MOL    H76 7884   3.020   0.384   6.963  1.9607 -1.1154  1.0397
   65MOL    H77 7885   2.978   0.465   7.101 -0.2581  2.2005  0.7162
   65MOL    H78 7886   2.929   0.677   6.970  0.4614  1.4677 -1.4582
   65MOL    H79 7887   2.940   0.577   6.826  0.0824  1.0740  0.2831
   65MOL    C80 7888   2.772   0.522   6.935  0.2397  0.0974  0.1259
   65MOL    C81 7889   2.699   0.537   7.068  0.3671  0.3022  0.4027
   65MOL    H82 7890   2.708   0.576   6.865 -1.7511 -1.2285  0.8952
   65MOL    H83 7891   2.762   0.422   6.891  1.2776  0.1725 -0.2919
   65MOL    H84 7892   2.729   0.463   7.142 -2.2393  0.5587  1.7631
   65MOL    H85 7893   2.715   0.640   7.102 -0.6909 -0.1730  2.4057
   65MOL    C86 7894   2.550   0.519   7.054 -0.1499 -0.6238  0.5498
   65MOL    C87 7895   2.466   0.510   7.188 -0.5902 -0.4288 -0.3231
   65MOL    H88 7896   2.514   0.595   6.985 -0.9153 -0.5966  0.9738
   65MOL    H89 7897   2.531   0.428   6.996 -0.9972  1.0193 -1.8524
   65MOL    H90 7898   2.525   0.456   7.262  1.2650  1.0597 -0.6654
   65MOL    H91 7899   2.450   0.607   7.235 -0.5664 -0.6582  0.1544
   65MOL    C92 7900   2.338   0.447   7.171 -0.3151  0.2535 -0.3787
   65MOL    C93 7901   2.222   0.537   7.154  0.4859 -0.5807  0.1606
   65MOL    H94 7902   2.351   0.372   7.094  1.3832 -0.8911  0.9856
   65MOL    H95 7903   2.323   0.390   7.263 -0.2753  1.7982  0.6094
   65MOL    H96 7904   2.200   0.592   7.245 -0.8886 -1.3285  0.2879
   65MOL    H97 7905   2.250   0.618   7.087  0.1739 -0.7015 -0.1145
   65MOL    C98 7906   2.089   0.457   7.105 -0.6594 -0.3823 -0.2635
   65MOL    C99 7907   1.969   0.547   7.089  0.3043 -0.3374 -0.6178
   65MOL   H100 7908   2.089   0.415   7.004  0.3169  0.6751 -0.7276
   65MOL   H101 7909   2.062   0.380   7.177 -0.2883 -0.5394 -0.2901
   65MOL   H102 7910   1.887   0.488   7.047 -0.3985  1.1351 -1.3616
   65MOL   H103 7911   1.931   0.573   7.187  2.6705 -0.2072  0.2850
   65MOL   C104 7912   1.991   0.674   6.994  0.9715  0.3781 -0.5007
   65MOL   C105 7913   1.863   0.749   6.964 -0.7410  0.6509 -0.0706
   65MOL   H106 7914   2.075   0.738   7.020 -0.5383  1.9461  0.6862
   65MOL   H107 7915   2.023   0.625   6.903  0.4310  1.2157 -1.1552
   65MOL   H108 7916   1.779   0.679   6.968 -2.3036  2.5808  2.9259
   65MOL   H109 7917   1.844   0.819   7.045  1.9731  0.2967  0.8901
   65MOL   C110 7918   1.865   0.831   6.834 -0.5927 -0.8204 -0.4834
   65MOL   C111 7919   1.724   0.865   6.788 -0.3618 -0.1616  0.3780
   65MOL   H112 7920   1.923   0.921   6.855  3.0341 -3.0411 -0.6125
   65MOL   H113 7921   1.925   0.779   6.760  1.0932  0.3609  0.0275
   65MOL   H114 7922   1.650   0.789   6.812 -1.1775  0.3038 -0.6263
   65MOL   H115 7923   1.689   0.955   6.840 -1.1157  0.2504 -0.8198
   65MOL   C116 7924   1.714   0.902   6.642  0.8389 -0.3809 -0.0422
   65MOL   C117 7925   1.774   1.038   6.603 -0.1914  0.2334  0.7687
   65MOL   H118 7926   1.746   0.820   6.577 -0.0254  0.4100 -1.4837
   65MOL   H119 7927   1.609   0.908   6.614  1.4760  1.1636 -2.2904
   65MOL   H120 7928   1.801   1.040   6.498  0.0210  0.1834  0.8215
   65MOL   H121 7929   1.713   1.125   6.628 -1.5866 -0.1544 -1.1799
   65MOL   H122 7930   1.866   1.049   6.660  0.0443 -2.2719  0.9287
   66MOL     C1 7931   0.818   4.094   7.285 -0.1835  0.1662 -0.8355
   66MOL     C2 7932   0.684   4.067   7.341 -0.1360  0.0087 -0.4492
   66MOL     H3 7933   0.850   4.198   7.288  0.4232 -0.0754  1.5074
   66MOL     H4 7934   0.818   4.086   7.176  1.6669  1.3765 -0.9366
   66MOL     H5 7935   0.604   4.120   7.290 -0.0385  0.5827 -0.0062
   66MOL     H6 7936   0.646   3.964   7.339 -0.2321  0.0534 -1.3729
   66MOL     H7 7937   0.889   4.030   7.337  0.8985  2.0818  0.0753
   66MOL     C8 7938   0.673   4.107   7.491 -0.0297 -0.1700 -0.7101
   66MOL     C9 7939   0.537   4.074   7.553 -1.1207 -0.1471 -0.3072
   66MOL    H10 7940   0.759   4.053   7.531  0.5284  0.6874 -0.7266
   66MOL    H11 7941   0.702   4.211   7.509  1.1219 -0.8873  1.7396
   66MOL    H12 7942   0.452   4.116   7.499  0.3406 -0.0359 -2.5564
   66MOL    H13 7943   0.538   3.965   7.545 -1.2946 -0.1591 -0.1871
   66MOL    C14 7944   0.525   4.121   0.006  0.1450 -0.0643 -0.6009
   66MOL    C15 7945   0.393   4.068   0.061  0.2052 -0.9630 -0.2091
   66MOL    H16 7946   0.613   4.092   0.065 -0.1507 -0.4856 -0.3607
   66MOL    H17 7947   0.517   4.229   0.018 -0.0456  0.0592 -1.8050
   66MOL    H18 7948   0.308   4.123   0.021  1.1101  1.6810  1.3184
   66MOL    H19 7949   0.380   3.963   0.035  0.3558 -1.4730  1.6382
   66MOL    C20 7950   0.399   4.075   0.214  0.4487 -0.0014  0.3231
   66MOL    C21 7951   0.283   3.996   0.286  0.5690 -0.1644 -0.1024
   66MOL    H22 7952   0.495   4.037   0.250  0.1613 -0.6581  0.4062
   66MOL    H23 7953   0.399   4.177   0.251 -1.9175  0.6009 -1.1987
   66MOL    H24 7954   0.190   4.050   0.271 -0.4049 -1.7844  0.0251
   66MOL    H25 7955   0.269   3.894   0.250 -0.8729  0.6159 -1.8678
   66MOL    C26 7956   0.319   3.986   0.441 -0.0148  0.4189  0.5631
   66MOL    C27 7957   0.214   3.916   0.528 -0.2989 -0.0585  0.3246
   66MOL    H28 7958   0.413   3.931   0.432 -0.7494 -0.3477 -3.6600
   66MOL    H29 7959   0.326   4.089   0.475  0.1530  0.6014 -0.0170
   66MOL    H30 7960   0.127   3.981   0.540  1.0749  1.4928  2.0663
   66MOL    H31 7961   0.187   3.815   0.496  0.6355 -0.7962  1.7766
   66MOL    C32 7962   0.270   3.902   0.673 -0.0788 -0.5315  0.0498
   66MOL    C33 7963   0.183   3.817   0.757  0.3757 -0.1288  0.2694
   66MOL    H34 7964   0.369   3.857   0.673 -0.0685 -0.5063 -0.8708
   66MOL    H35 7965   0.287   4.006   0.702 -3.0869  0.4409 -1.4831
   66MOL    H36 7966   0.089   3.870   0.773  0.4578 -0.2564  1.2314
   66MOL    H37 7967   0.164   3.719   0.712 -0.0097  1.0469 -2.2213
   66MOL    C38 7968   0.225   3.794   0.900  0.1074 -0.0406  0.2633
   66MOL    C39 7969   0.127   3.708   0.979 -0.1971  0.3001 -0.0136
   66MOL    H40 7970   0.324   3.748   0.904  0.8047  1.3765 -0.4940
   66MOL    H41 7971   0.243   3.891   0.946  1.7825  0.1737 -0.8009
   66MOL    H42 7972   0.035   3.766   0.981  0.6163  1.9369 -4.0943
   66MOL    H43 7973   0.118   3.610   0.931  1.9193  0.3559 -0.6076
   66MOL    C44 7974   0.178   3.685   1.125 -0.7259 -0.3478  0.0372
   66MOL    C45 7975   0.084   3.606   1.216  0.6716 -0.5734  0.2567
   66MOL    H46 7976   0.267   3.622   1.121  1.0994  2.0795  0.2931
   66MOL    H47 7977   0.205   3.779   1.175  2.1286 -2.5554  2.9266
   66MOL    H48 7978   7.681   3.661   1.218 -0.4523 -2.5024  1.2560
   66MOL    H49 7979   0.064   3.507   1.175 -0.8072 -0.6329  1.0662
   66MOL    C50 7980   0.134   3.597   1.366 -0.3465 -0.3493  0.4020
   66MOL    C51 7981   0.035   3.524   1.463 -0.2634 -0.2740  0.3630
   66MOL    H52 7982   0.228   3.542   1.373 -0.6907 -1.0726 -0.4442
   66MOL    H53 7983   0.151   3.696   1.408 -1.2447  0.3512 -0.8532
   66MOL    H54 7984   0.020   3.418   1.440 -2.3527  0.0454  0.1550
   66MOL    H55 7985   0.096   3.533   1.553  2.4545  1.7449 -1.5807
   66MOL    C56 7986   7.596   3.586   1.487 -0.1732 -0.1195  0.0925
   66MOL    C57 7987   7.579   3.724   1.547 -0.4536 -0.0825 -0.3020
   66MOL    H58 7988   7.543   3.582   1.392 -1.2588 -0.0583  0.6946
   66MOL    H59 7989   7.540   3.512   1.544  0.4674  1.3163  2.6781
   66MOL    H60 7990   7.633   3.750   1.638 -0.6799 -0.5890 -0.0264
   66MOL    H61 7991   7.627   3.789   1.474 -0.5328  1.7544  1.2540
   66MOL    C62 7992   7.434   3.760   1.573  0.3640  0.7498  0.2391
   66MOL    C63 7993   7.420   3.907   1.611 -0.0048 -0.5628 -0.6863
   66MOL    H64 7994   7.373   3.741   1.485  0.1925 -2.4974  0.9861
   66MOL    H65 7995   7.387   3.689   1.641 -0.9458  0.7998 -0.5951
   66MOL    H66 7996   7.475   3.933   1.702 -2.4609  0.6427  0.5065
   66MOL    H67 7997   7.460   3.976   1.536  0.7657 -0.8540 -0.5529
   66MOL    C68 7998   7.277   3.954   1.638  0.4119  0.3123  0.8434
   66MOL    C69 7999   7.249   4.085   1.709 -0.0022  1.0592  0.3968
   66MOL    H70 8000   7.226   3.954   1.541 -0.2799  2.4653  1.1686
   66MOL    H71 8001   7.239   3.879   1.707 -1.6688  0.5022 -0.0432
   66MOL    H72 8002   7.296   4.077   1.807 -0.4408 -1.3483  0.4421
   66MOL    H73 8003   7.298   4.171   1.664  0.3650  0.6434 -0.0039
   66MOL    C74 8004   7.103   4.117   1.717 -0.5138 -0.1480 -0.3184
   66MOL    C75 8005   7.082   4.251   1.782 -0.8158 -0.2978 -0.2540
   66MOL    H76 8006   7.055   4.103   1.621 -1.6225  0.1080  0.1933
   66MOL    H77 8007   7.053   4.045   1.782 -2.2750  1.3944  0.0764
   66MOL    H78 8008   7.149   4.244   1.867 -0.5194  1.5234 -0.3326
   66MOL    H79 8009   7.135   4.329   1.727  3.6100 -0.6996  3.2692
   66MOL    C80 8010   6.945   4.294   1.830 -0.4655 -0.7548 -0.0136
   66MOL    C81 8011   6.851   4.348   1.706 -0.0154 -0.5516  0.1387
   66MOL    H82 8012   6.906   4.204   1.876 -0.1792 -0.7649  0.2146
   66MOL    H83 8013   6.952   4.378   1.899  0.3646 -0.1208 -0.8486
   66MOL    H84 8014   6.887   4.291   1.620 -0.9417 -1.6365  0.4576
   66MOL    H85 8015   6.752   4.321   1.743  0.1812  0.1194  1.1874
   66MOL    C86 8016   6.884   4.486   1.656  0.1697  0.2672  0.2022
   66MOL    C87 8017   6.806   4.531   1.534  0.2021  0.4164  0.0690
   66MOL    H88 8018   6.864   4.554   1.738  2.9095 -1.0123  1.9906
   66MOL    H89 8019   6.989   4.497   1.629  0.2457  1.3790  0.9529
   66MOL    H90 8020   6.800   4.457   1.454  0.4333  1.6231 -1.0815
   66MOL    H91 8021   6.701   4.528   1.565  0.0398 -2.8335 -0.6120
   66MOL    C92 8022   6.854   4.665   1.473 -1.1186 -0.4633  0.1055
   66MOL    C93 8023   6.750   4.728   1.376 -0.6910  0.5120 -0.0279
   66MOL    H94 8024   6.892   4.737   1.546  0.2159 -2.2213  1.1740
   66MOL    H95 8025   6.941   4.647   1.410 -2.3146 -3.0003 -0.8802
   66MOL    H96 8026   6.802   4.770   1.290 -1.5044 -0.4961 -1.0218
   66MOL    H97 8027   6.683   4.659   1.325 -0.1563  0.9066 -1.2706
   66MOL    C98 8028   6.667   4.828   1.461 -0.0667 -0.1108  0.8055
   66MOL    C99 8029   6.569   4.920   1.385 -0.3196  0.6621 -0.3260
   66MOL   H100 8030   6.621   4.780   1.548 -0.5251  1.5263  1.4855
   66MOL   H101 8031   6.733   4.892   1.520 -1.3144  3.1584 -1.2746
   66MOL   H102 8032   6.628   4.985   1.320 -3.5990  1.3649 -2.6811
   66MOL   H103 8033   6.518   4.860   1.310  1.8789  0.6241 -1.8234
   66MOL   C104 8034   6.483   5.008   1.474  0.1733 -1.0052  0.5715
   66MOL   C105 8035   6.368   4.933   1.526 -0.9465  0.6103  0.4092
   66MOL   H106 8036   6.543   5.040   1.559 -0.0929  0.9210  0.0471
   66MOL   H107 8037   6.456   5.095   1.414  0.1481 -1.6584 -0.3845
   66MOL   H108 8038   6.324   4.868   1.450  0.2979  1.2806 -0.9250
   66MOL   H109 8039   6.398   4.863   1.603  1.8288  1.1700 -0.0964
   66MOL   C110 8040   6.266   5.025   1.592  0.3028  0.3229 -0.3614
   66MOL   C111 8041   6.166   5.083   1.491  0.0262 -0.1177 -0.7294
   66MOL   H112 8042   6.213   4.969   1.669 -1.8687  1.4835 -0.9484
   66MOL   H113 8043   6.320   5.103   1.645  1.6144  0.9160 -2.5074
   66MOL   H114 8044   6.228   5.153   1.435 -1.6104  0.1036 -2.3096
   66MOL   H115 8045   6.131   5.008   1.420 -0.5604 -0.3076 -0.2402
   66MOL   C116 8046   6.044   5.163   1.547 -0.1798  0.5838  0.4208
   66MOL   C117 8047   5.950   5.228   1.441 -0.4785  0.1848  0.2416
   66MOL   H118 8048   5.995   5.097   1.619 -2.3600  0.8160 -0.8204
   66MOL   H119 8049   6.083   5.238   1.616  3.1361 -0.2671 -0.4273
   66MOL   H120 8050   6.016   5.282   1.374  0.0856  0.6268  1.1428
   66MOL   H121 8051   5.897   5.156   1.378 -1.4802  1.4716 -0.3912
   66MOL   H122 8052   5.874   5.291   1.487  0.2969  1.3607 -0.0681
   67MOL     C1 8053   2.594   4.597   0.647 -0.5382  0.2289  0.6104
   67MOL     C2 8054   2.649   4.738   0.664  0.3543  0.3455  0.4917
   67MOL     H3 8055   2.585   4.550   0.745 -0.3057 -1.6491 -0.2571
   67MOL     H4 8056   2.650   4.532   0.581 -0.4179  2.2846 -1.3913
   67MOL     H5 8057   2.752   4.737   0.701  0.9504 -0.6398 -1.1187
   67MOL     H6 8058   2.664   4.782   0.565 -0.7863 -1.3824 -0.4642
   67MOL     H7 8059   2.491   4.600   0.610  0.2007  1.4723 -1.4038
   67MOL     C8 8060   2.551   4.815   0.758 -0.4897 -0.1280 -0.0436
   67MOL     C9 8061   2.596   4.954   0.784  0.0396  0.5158 -0.4727
   67MOL    H10 8062   2.452   4.815   0.712 -1.2393 -0.2328  1.5409
   67MOL    H11 8063   2.549   4.760   0.852 -2.0089 -0.1422 -0.0670
   67MOL    H12 8064   2.695   4.959   0.830  0.1275 -0.2506 -0.5838
   67MOL    H13 8065   2.617   5.000   0.688 -0.2554 -0.4792 -1.0174
   67MOL    C14 8066   2.492   5.041   0.863 -0.8660 -0.5735  0.3721
   67MOL    C15 8067   2.558   5.181   0.870 -0.4058 -0.4152 -0.3350
   67MOL    H16 8068   2.400   5.055   0.806 -1.7465  0.9682  2.1134
   67MOL    H17 8069   2.476   4.980   0.952  1.3314 -2.0617 -0.2157
   67MOL    H18 8070   2.655   5.165   0.916 -0.6653 -0.7667  0.0976
   67MOL    H19 8071   2.581   5.225   0.773 -1.0708 -1.8553 -1.1683
   67MOL    C20 8072   2.472   5.287   0.947 -0.4268  0.7261 -0.4934
   67MOL    C21 8073   2.522   5.424   0.927  0.0939 -0.4400  0.1111
   67MOL    H22 8074   2.371   5.265   0.913 -1.8290  3.4989  1.6364
   67MOL    H23 8075   2.482   5.263   1.053 -1.2484  0.0582 -0.5639
   67MOL    H24 8076   2.621   5.433   0.971 -0.1500  2.8867  0.1132
   67MOL    H25 8077   2.532   5.448   0.821 -0.4374  1.5184  0.4891
   67MOL    C26 8078   2.441   5.526   1.003 -1.2021 -0.1787  0.8106
   67MOL    C27 8079   2.474   5.670   0.973  0.2985  1.0858 -0.4171
   67MOL    H28 8080   2.336   5.502   0.993 -0.7691 -1.3011 -1.3479
   67MOL    H29 8081   2.472   5.517   1.107 -0.0534 -3.2635  0.2509
   67MOL    H30 8082   2.578   5.682   1.002  0.7239 -2.3149 -0.3720
   67MOL    H31 8083   2.469   5.683   0.864  2.5050 -0.8590 -0.7776
   67MOL    C32 8084   2.400   5.781   1.045 -0.3464 -0.5936 -0.0520
   67MOL    C33 8085   2.438   5.926   0.997 -0.3740  0.3497 -0.6852
   67MOL    H34 8086   2.291   5.774   1.050 -0.3851  0.7111  1.1512
   67MOL    H35 8087   2.436   5.765   1.147  1.2639  0.7173 -0.3977
   67MOL    H36 8088   2.547   5.940   0.998 -0.5654  2.0362  1.3342
   67MOL    H37 8089   2.413   5.943   0.892  0.0921  0.7757 -0.7306
   67MOL    C38 8090   2.361   6.029   1.080 -0.6616 -0.2312  0.1263
   67MOL    C39 8091   2.381   6.171   1.032 -0.2557  0.3647 -0.4460
   67MOL    H40 8092   2.258   5.994   1.075 -0.3228 -0.9636 -2.2225
   67MOL    H41 8093   2.394   6.020   1.184  1.0644 -1.4650 -0.5160
   67MOL    H42 8094   2.487   6.194   1.019 -0.0252  0.7572  1.9324
   67MOL    H43 8095   2.348   6.179   0.929 -0.9738 -1.8629 -0.4184
   67MOL    C44 8096   2.302   6.281   1.110 -0.1667 -0.1118  0.5315
   67MOL    C45 8097   2.275   6.418   1.034 -0.1805  0.1657  0.5911
   67MOL    H46 8098   2.201   6.242   1.126 -0.0194 -0.7274 -0.0125
   67MOL    H47 8099   2.334   6.287   1.214 -0.4087 -4.8739  0.9649
   67MOL    H48 8100   2.372   6.466   1.020 -0.9908  1.1751 -1.7906
   67MOL    H49 8101   2.245   6.398   0.931  1.3272 -1.4708  0.4493
   67MOL    C50 8102   2.179   6.520   1.098 -0.4639 -0.3239 -0.2466
   67MOL    C51 8103   2.237   6.590   1.223 -0.0779 -0.4574  0.2145
   67MOL    H52 8104   2.150   6.584   1.015  1.7265 -0.7387 -1.3758
   67MOL    H53 8105   2.089   6.467   1.127  0.9994 -3.2584 -0.9566
   67MOL    H54 8106   2.273   6.513   1.290  0.4235  0.1145  0.6041
   67MOL    H55 8107   2.320   6.649   1.183  0.2862  0.2491  1.9851
   67MOL    C56 8108   2.142   6.679   1.307 -0.2176  0.2855  0.3407
   67MOL    C57 8109   2.107   6.817   1.230 -0.1763 -0.7512  0.1963
   67MOL    H58 8110   2.048   6.627   1.325  0.5207 -1.3200 -0.2964
   67MOL    H59 8111   2.188   6.698   1.404  0.0816 -0.2160  0.2999
   67MOL    H60 8112   2.204   6.867   1.220 -0.3843 -0.7445 -2.0592
   67MOL    H61 8113   2.077   6.811   1.126 -0.8985  0.0066  0.3519
   67MOL    C62 8114   2.015   6.920   1.303 -0.5978  0.2325 -0.1433
   67MOL    C63 8115   1.871   6.881   1.343 -0.3097  0.3901 -0.4602
   67MOL    H64 8116   2.067   6.938   1.397  0.2807  0.5993 -0.6892
   67MOL    H65 8117   2.008   7.015   1.250  0.0044 -0.3887 -1.3378
   67MOL    H66 8118   1.867   6.793   1.408 -1.2138  2.0307  1.7687
   67MOL    H67 8119   1.831   6.950   1.417 -0.8113  0.5545 -0.8885
   67MOL    C68 8120   1.771   6.859   1.221 -0.0001 -0.6949  0.3498
   67MOL    C69 8121   1.619   6.879   1.250 -0.1604 -0.4589  0.1403
   67MOL    H70 8122   1.797   6.931   1.143  0.8933 -1.2124  0.1668
   67MOL    H71 8123   1.793   6.762   1.178  0.8054  0.0947 -1.0415
   67MOL    H72 8124   1.599   6.826   1.344 -0.7721 -0.3636  0.0631
   67MOL    H73 8125   1.599   6.986   1.249 -1.3551 -0.6441  1.9812
   67MOL    C74 8126   1.541   6.825   1.128 -0.0264  0.5997 -0.5355
   67MOL    C75 8127   1.391   6.856   1.135  0.5260 -0.3780  0.3564
   67MOL    H76 8128   1.586   6.878   1.044  1.0654  1.9391  0.8517
   67MOL    H77 8129   1.555   6.721   1.100 -0.0725  0.3264  0.4366
   67MOL    H78 8130   1.374   6.962   1.153 -2.2711 -1.0652  2.0241
   67MOL    H79 8131   1.347   6.831   1.039 -0.5515 -1.5067  1.1397
   67MOL    C80 8132   1.316   6.773   1.244 -0.3325 -0.6298 -0.1387
   67MOL    C81 8133   1.307   6.617   1.213 -0.0033 -0.8805  0.8035
   67MOL    H82 8134   1.380   6.774   1.332  1.0114 -1.2570 -1.0793
   67MOL    H83 8135   1.216   6.813   1.261  0.1288  0.1016  0.8816
   67MOL    H84 8136   1.276   6.611   1.109 -0.7498  2.0494  0.7989
   67MOL    H85 8137   1.403   6.566   1.219 -0.5537 -2.1635 -0.7871
   67MOL    C86 8138   1.205   6.542   1.307 -0.1039  0.1511  0.8318
   67MOL    C87 8139   1.263   6.514   1.446 -0.1042  0.2900 -0.8435
   67MOL    H88 8140   1.115   6.603   1.321  0.6383  1.0645  1.8050
   67MOL    H89 8141   1.169   6.453   1.257 -1.8404  1.0928  0.3882
   67MOL    H90 8142   1.362   6.467   1.438  0.9105  1.8594  1.7536
   67MOL    H91 8143   1.263   6.605   1.506 -2.1895 -1.1559  1.4391
   67MOL    C92 8144   1.169   6.419   1.518 -0.6704 -0.4020  0.1649
   67MOL    C93 8145   1.198   6.397   1.669  0.0757 -0.3543  0.8244
   67MOL    H94 8146   1.067   6.456   1.516  0.0854  1.7069  0.0759
   67MOL    H95 8147   1.152   6.326   1.464 -0.2323 -0.6689  0.4750
   67MOL    H96 8148   1.301   6.373   1.698 -0.3830 -1.8532  1.2695
   67MOL    H97 8149   1.195   6.493   1.720 -2.1987 -0.3007  0.6417
   67MOL    C98 8150   1.094   6.312   1.746  0.2786  0.2745  0.2444
   67MOL    C99 8151   1.141   6.281   1.884  0.0394  0.8221 -0.0674
   67MOL   H100 8152   0.995   6.357   1.755 -1.2511 -3.2207  1.6729
   67MOL   H101 8153   1.066   6.221   1.693  1.8904  0.3622 -0.7939
   67MOL   H102 8154   1.236   6.228   1.874 -0.1566  0.1129  1.6622
   67MOL   H103 8155   1.170   6.369   1.942  3.0175 -0.3219  0.2974
   67MOL   C104 8156   1.039   6.204   1.963 -0.3296 -0.0127 -0.2768
   67MOL   C105 8157   1.056   6.193   2.118 -0.4312  0.0850  0.3211
   67MOL   H106 8158   0.941   6.247   1.944  0.0726  1.1699  0.3036
   67MOL   H107 8159   1.015   6.106   1.921 -1.6298  0.5826 -0.9613
   67MOL   H108 8160   1.057   6.294   2.160 -1.6320 -0.6076  2.0777
   67MOL   H109 8161   0.972   6.143   2.167 -1.5689  0.7170 -0.9431
   67MOL   C110 8162   1.181   6.117   2.170 -0.0994  0.4792  0.4053
   67MOL   C111 8163   1.215   6.134   2.317  0.0225 -0.5106  0.8712
   67MOL   H112 8164   1.160   6.012   2.153 -1.4095  1.2591 -3.3737
   67MOL   H113 8165   1.259   6.149   2.102  1.0377 -1.5462  0.7424
   67MOL   H114 8166   1.237   6.237   2.345 -1.1881  0.3780 -1.3041
   67MOL   H115 8167   1.126   6.105   2.373 -0.4446  0.4895  0.6559
   67MOL   C116 8168   1.332   6.039   2.360 -0.3015  0.5635 -0.5887
   67MOL   C117 8169   1.473   6.103   2.339  0.2941  0.3369 -0.3182
   67MOL   H118 8170   1.336   6.009   2.465  1.8931 -0.4337 -0.9356
   67MOL   H119 8171   1.320   5.952   2.296 -0.1256  0.1706 -0.0953
   67MOL   H120 8172   1.555   6.033   2.356 -0.7923 -0.7692  0.4381
   67MOL   H121 8173   1.483   6.134   2.235 -0.1933  1.1528 -0.1237
   67MOL   H122 8174   1.489   6.197   2.391 -0.7834  1.5884 -2.1696
   68MOL     C1 8175   5.860   6.295   1.851 -0.6384  0.4385  0.3736
   68MOL     C2 8176   6.003   6.283   1.906  0.2538  0.5206  0.0218
   68MOL     H3 8177   5.793   6.342   1.923  0.3888  0.6625  1.2014
   68MOL     H4 8178   5.811   6.205   1.814  0.0973  0.3077 -0.2990
   68MOL     H5 8179   6.028   6.377   1.955 -0.0801 -0.3771  1.9393
   68MOL     H6 8180   6.012   6.220   1.994  1.6452  0.0940 -0.4138
   68MOL     H7 8181   5.860   6.368   1.770 -0.2981  1.4820  1.3007
   68MOL     C8 8182   6.112   6.253   1.797 -0.7961  0.1105 -0.5577
   68MOL     C9 8183   6.178   6.113   1.798  0.0169  0.2610  0.6450
   68MOL    H10 8184   6.072   6.260   1.695  2.0662  0.8812 -1.6759
   68MOL    H11 8185   6.192   6.325   1.814  0.5671 -1.8776  1.7064
   68MOL    H12 8186   6.223   6.076   1.890  0.9758 -1.5035 -0.5052
   68MOL    H13 8187   6.102   6.047   1.757 -1.3421  1.0682  1.8086
   68MOL    C14 8188   6.288   6.099   1.698  0.1937  0.0587  0.1004
   68MOL    C15 8189   6.309   5.947   1.662  0.0055 -0.4115  0.6851
   68MOL    H16 8190   6.301   6.166   1.613  0.4208  1.3098  1.1091
   68MOL    H17 8191   6.374   6.140   1.751 -0.8640  4.0246 -1.0323
   68MOL    H18 8192   6.346   5.888   1.746  1.3055  0.2931  0.6203
   68MOL    H19 8193   6.216   5.895   1.641  0.9023 -1.9162  0.3985
   68MOL    C20 8194   6.414   5.929   1.548 -0.4998 -0.3433  0.4089
   68MOL    C21 8195   6.557   5.957   1.592  0.8161  0.4528  0.1786
   68MOL    H22 8196   6.409   5.825   1.517 -0.4421 -0.4193  0.6595
   68MOL    H23 8197   6.391   6.005   1.473  0.0064  1.1740  1.7708
   68MOL    H24 8198   6.552   6.049   1.650  1.5961  0.9957 -0.5972
   68MOL    H25 8199   6.600   5.881   1.657  1.0945 -0.1382 -0.6849
   68MOL    C26 8200   6.649   5.950   1.471 -1.6246 -0.0628 -0.0792
   68MOL    C27 8201   6.665   5.808   1.413 -0.3008 -0.1024 -0.1484
   68MOL    H28 8202   6.622   6.015   1.388 -3.0933 -0.0010  0.4243
   68MOL    H29 8203   6.744   5.978   1.516 -1.5157  1.2180 -1.0933
   68MOL    H30 8204   6.644   5.738   1.494 -1.2680 -0.6197 -0.8488
   68MOL    H31 8205   6.588   5.793   1.338 -1.1271  2.6012  0.1116
   68MOL    C32 8206   6.811   5.770   1.379  1.0020 -0.4805 -0.2310
   68MOL    C33 8207   6.861   5.822   1.250 -0.7197  0.0219 -0.0312
   68MOL    H34 8208   6.873   5.817   1.455 -1.9202  2.5164  0.4288
   68MOL    H35 8209   6.814   5.662   1.368  0.9929 -0.4898 -0.1407
   68MOL    H36 8210   6.858   5.931   1.245 -1.4901 -0.0667 -2.5453
   68MOL    H37 8211   6.959   5.779   1.233 -0.7162 -0.3796  0.9570
   68MOL    C38 8212   6.776   5.775   1.125  0.0982 -0.4948 -0.9589
   68MOL    C39 8213   6.831   5.844   0.990  0.0519 -0.3828 -0.0857
   68MOL    H40 8214   6.763   5.667   1.126 -2.0442 -0.2526  1.0821
   68MOL    H41 8215   6.679   5.818   1.146  0.3624 -0.0530 -0.6402
   68MOL    H42 8216   6.754   5.825   0.915 -0.2557 -1.7972  0.5906
   68MOL    H43 8217   6.838   5.953   0.990 -0.1517 -0.3714  0.3303
   68MOL    C44 8218   6.965   5.786   0.943 -0.4667  0.4919 -0.0430
   68MOL    C45 8219   6.960   5.640   0.898 -0.2071  0.0012  0.1284
   68MOL    H46 8220   6.999   5.840   0.855 -1.7254 -0.5840 -1.2242
   68MOL    H47 8221   7.040   5.792   1.022 -1.6858 -0.5590  1.2403
   68MOL    H48 8222   6.906   5.583   0.973  0.0092  0.0889  0.3520
   68MOL    H49 8223   6.898   5.651   0.809 -1.6310 -0.7137  1.0303
   68MOL    C50 8224   7.092   5.581   0.853 -0.1062 -0.3125 -0.5373
   68MOL    C51 8225   7.099   5.427   0.841  0.1867 -0.6091  0.1829
   68MOL    H52 8226   7.111   5.626   0.756  2.4455  0.0167  0.0760
   68MOL    H53 8227   7.178   5.618   0.907  0.9644  1.2785 -3.2265
   68MOL    H54 8228   7.085   5.379   0.938 -0.8332 -0.2385  0.2225
   68MOL    H55 8229   7.026   5.385   0.773  0.0370 -0.6156  0.3458
   68MOL    C56 8230   7.237   5.387   0.794 -0.2374 -0.2228  0.5636
   68MOL    C57 8231   7.267   5.243   0.834 -0.1544 -0.4554  0.9431
   68MOL    H58 8232   7.235   5.416   0.689 -0.6489 -1.6296  0.1771
   68MOL    H59 8233   7.306   5.451   0.849  1.3695 -0.3430 -1.2590
   68MOL    H60 8234   7.233   5.225   0.936  0.3532 -1.8836  0.8824
   68MOL    H61 8235   7.208   5.164   0.788 -1.2222  0.7014  0.3262
   68MOL    C62 8236   7.422   5.212   0.824  0.0523 -0.4965 -0.2023
   68MOL    C63 8237   7.457   5.073   0.881 -0.1646 -0.1172  0.0925
   68MOL    H64 8238   7.434   5.197   0.717  2.2337  0.5162 -0.1117
   68MOL    H65 8239   7.485   5.295   0.857  0.6307 -0.2731 -1.8348
   68MOL    H66 8240   7.441   5.094   0.987 -0.0261  0.6221 -0.0344
   68MOL    H67 8241   7.385   5.008   0.829  0.7047 -1.5618  0.6612
   68MOL    C68 8242   7.599   5.030   0.860  0.5500  0.7723  1.0903
   68MOL    C69 8243   0.013   5.137   0.910 -0.6462  0.4985 -0.8913
   68MOL    H70 8244   7.613   4.940   0.920 -0.6973 -0.6830 -0.7428
   68MOL    H71 8245   7.637   5.021   0.758  2.1499  1.3403  1.6179
   68MOL    H72 8246   0.012   5.229   0.852  0.7012  0.5353 -0.8685
   68MOL    H73 8247   7.685   5.169   1.012 -1.8291 -1.2599 -0.5557
   68MOL    C74 8248   0.150   5.079   0.921  0.2534  0.2948  0.0603
   68MOL    C75 8249   0.255   5.173   0.980  0.3632 -0.5671 -0.3535
   68MOL    H76 8250   0.154   4.989   0.983  0.9099 -0.1378 -0.6044
   68MOL    H77 8251   0.174   5.044   0.821 -0.0036  0.5135 -0.0786
   68MOL    H78 8252   0.255   5.272   0.934  0.6413 -0.6273 -0.4831
   68MOL    H79 8253   0.220   5.185   1.083 -0.5025 -1.3353 -0.5506
   68MOL    C80 8254   0.408   5.132   0.966  0.0331 -0.3162  1.0020
   68MOL    C81 8255   0.445   5.029   1.066  0.1646  0.0562  0.5950
   68MOL    H82 8256   0.426   5.090   0.867  1.4396 -0.5484  1.3556
   68MOL    H83 8257   0.465   5.225   0.973  1.0025 -0.9314  1.2356
   68MOL    H84 8258   0.412   5.066   1.163 -0.2888  0.1465  0.4076
   68MOL    H85 8259   0.391   4.934   1.057  0.9408 -0.4766  1.4866
   68MOL    C86 8260   0.593   5.001   1.064  0.3568  0.2504  0.1944
   68MOL    C87 8261   0.634   4.896   1.172  0.0288  0.2512 -0.3919
   68MOL    H88 8262   0.626   4.962   0.968  2.6465  0.8019  0.7298
   68MOL    H89 8263   0.654   5.088   1.084  1.6483 -0.3089 -1.2497
   68MOL    H90 8264   0.588   4.921   1.268 -0.8051 -0.4932 -0.5865
   68MOL    H91 8265   0.597   4.796   1.149 -1.2213  0.7237 -0.4792
   68MOL    C92 8266   0.789   4.888   1.178  0.1824  0.4050  0.4436
   68MOL    C93 8267   0.825   4.789   1.287  0.3533  1.2227 -0.7390
   68MOL    H94 8268   0.824   4.859   1.079 -1.9935  0.6114 -0.3948
   68MOL    H95 8269   0.835   4.985   1.199  0.1361  0.6985 -0.7602
   68MOL    H96 8270   0.752   4.709   1.287 -1.4084  2.7912 -2.0282
   68MOL    H97 8271   0.916   4.738   1.256 -0.4924 -0.3976 -0.6347
   68MOL    C98 8272   0.837   4.862   1.426  0.6576  0.3446 -0.0260
   68MOL    C99 8273   0.886   4.771   1.529 -0.4054 -0.1011 -0.4120
   68MOL   H100 8274   0.900   4.951   1.419  3.1468 -1.4258 -0.6830
   68MOL   H101 8275   0.741   4.908   1.452 -0.4651 -1.7915 -0.2460
   68MOL   H102 8276   0.825   4.681   1.526 -2.6935  1.3587  1.1177
   68MOL   H103 8277   0.990   4.741   1.514 -0.2837  0.4235 -0.6132
   68MOL   C104 8278   0.858   4.840   1.667  0.5916 -0.3294 -0.2754
   68MOL   C105 8279   0.959   4.952   1.700  0.1704  0.7811 -0.1611
   68MOL   H106 8280   0.752   4.856   1.684  0.7201  0.1637  0.0896
   68MOL   H107 8281   0.861   4.757   1.738 -0.0003  0.8252  1.1240
   68MOL   H108 8282   1.051   4.896   1.691  0.3639  0.9915  0.5049
   68MOL   H109 8283   0.957   5.040   1.636 -0.5107 -1.8120 -3.8840
   68MOL   C110 8284   0.956   4.985   1.849 -0.3061 -0.3122 -0.0554
   68MOL   C111 8285   1.044   5.107   1.889  0.3029 -0.3209  0.3241
   68MOL   H112 8286   0.850   5.001   1.868  0.3163  0.6959  2.7020
   68MOL   H113 8287   0.981   4.902   1.914 -1.5236 -1.3775 -0.9206
   68MOL   H114 8288   1.144   5.073   1.861 -0.7297 -1.4241 -2.1603
   68MOL   H115 8289   1.014   5.181   1.816 -1.7738 -2.8019 -1.4229
   68MOL   C116 8290   1.032   5.146   2.036 -0.3791  0.1457  0.0256
   68MOL   C117 8291   1.101   5.277   2.066 -0.5072 -0.1574  0.3792
   68MOL   H118 8292   0.926   5.149   2.060 -0.6074  1.2955 -1.0744
   68MOL   H119 8293   1.074   5.070   2.102  0.6385 -0.1391 -0.9395
   68MOL   H120 8294   1.207   5.265   2.089 -0.7569 -0.2787  1.4920
   68MOL   H121 8295   1.092   5.344   1.980  2.6743  0.6368  0.6029
   68MOL   H122 8296   1.047   5.309   2.155 -1.7825  2.4850 -1.2639
   69MOL     C1 8297   3.979   2.394   0.350  0.1016 -0.4524 -0.0165
   69MOL     C2 8298   4.053   2.387   0.217 -0.2297  0.6550  0.3098
   69MOL     H3 8299   4.047   2.455   0.410  0.5277 -1.9782  1.0547
   69MOL     H4 8300   3.963   2.298   0.399 -0.4962  0.3928  1.4848
   69MOL     H5 8301   4.065   2.491   0.185  1.2061 -0.4835 -2.9774
   69MOL     H6 8302   4.154   2.349   0.225  0.7223  3.2335  1.1901
   69MOL     H7 8303   3.878   2.436   0.352  0.5853  0.7174  1.0708
   69MOL     C8 8304   3.975   2.318   0.100 -0.0015 -0.2005 -0.1593
   69MOL     C9 8305   4.053   2.317   7.665  0.1824  0.5053 -0.9886
   69MOL    H10 8306   3.936   2.217   0.111  1.4974 -1.2098 -3.6383
   69MOL    H11 8307   3.886   2.380   0.089 -0.3000 -0.9051 -1.7107
   69MOL    H12 8308   4.087   2.418   7.642  1.0725  0.8108  1.5010
   69MOL    H13 8309   4.146   2.261   7.672 -0.0504  0.1569 -0.6930
   69MOL    C14 8310   3.971   2.279   7.539  0.6735 -0.0729  0.4784
   69MOL    C15 8311   3.903   2.140   7.544 -0.0412  0.5540  0.0262
   69MOL    H16 8312   3.887   2.347   7.519  2.1999  1.5044 -0.7319
   69MOL    H17 8313   4.021   2.282   7.443 -2.2480  2.3908 -1.0730
   69MOL    H18 8314   3.850   2.130   7.639  0.6077 -2.7025  0.1223
   69MOL    H19 8315   3.837   2.124   7.459  0.9072 -0.4636 -0.5391
   69MOL    C20 8316   4.010   2.029   7.525 -0.2639 -0.0865 -0.4796
   69MOL    C21 8317   3.962   1.886   7.561  0.1145 -0.2227 -0.3752
   69MOL    H22 8318   4.036   2.028   7.419  0.1623  0.5568 -0.3822
   69MOL    H23 8319   4.096   2.048   7.590  0.1515 -0.9121 -0.7802
   69MOL    H24 8320   3.909   1.883   7.656  0.0869  0.0624 -0.3831
   69MOL    H25 8321   3.881   1.851   7.497  0.1362  0.1134 -0.5850
   69MOL    C26 8322   4.091   1.797   7.556  0.4973  0.1669 -0.5573
   69MOL    C27 8323   4.082   1.667   7.631  0.8728  0.0596 -0.1272
   69MOL    H28 8324   4.105   1.772   7.451 -3.0682  0.1730 -1.0940
   69MOL    H29 8325   4.181   1.853   7.581  0.9434 -1.3611  1.4405
   69MOL    H30 8326   4.049   1.679   0.042  1.5594 -0.2279  0.1310
   69MOL    H31 8327   4.007   1.610   7.577 -0.2419  1.0010  0.4072
   69MOL    C32 8328   4.212   1.589   7.653 -0.4269 -0.4879  0.0386
   69MOL    C33 8329   4.185   1.463   0.033  0.0981  0.2542 -0.0005
   69MOL    H34 8330   4.245   1.549   7.558 -0.5727 -1.0404  0.2195
   69MOL    H35 8331   4.299   1.634   0.008  0.6075 -0.8546 -1.4827
   69MOL    H36 8332   4.185   1.483   0.140  0.9956 -1.1863  0.2711
   69MOL    H37 8333   4.080   1.436   0.017 -0.0690  1.6004 -1.3208
   69MOL    C38 8334   4.283   1.350   0.002 -0.2169  0.2648  0.9082
   69MOL    C39 8335   4.434   1.380   0.028 -0.7140 -0.3616  0.2705
   69MOL    H40 8336   4.242   1.261   0.050  2.2482 -1.3724  0.1209
   69MOL    H41 8337   4.273   1.318   7.591  0.4184 -2.5469  1.6837
   69MOL    H42 8338   4.468   1.459   7.652 -1.1196 -0.2306  0.2137
   69MOL    H43 8339   4.447   1.423   0.126 -1.8495 -2.0478  1.1968
   69MOL    C44 8340   4.525   1.258   0.032 -0.4864 -0.0523 -0.0217
   69MOL    C45 8341   4.666   1.298   7.682 -0.5727 -0.4485  0.2589
   69MOL    H46 8342   4.526   1.207   0.128  1.3105 -0.0912 -0.0522
   69MOL    H47 8343   4.487   1.178   7.660  3.8507 -0.1896 -2.5948
   69MOL    H48 8344   4.665   1.322   7.576  1.2447  0.7183  0.4745
   69MOL    H49 8345   4.700   1.395   0.026 -3.7821  0.7496  0.1942
   69MOL    C50 8346   4.774   1.197   0.016  0.9161 -0.0141  0.1700
   69MOL    C51 8347   4.904   1.251   7.664  0.5986  0.0235  0.1532
   69MOL    H52 8348   4.762   1.184   0.123  0.2312 -0.4374  0.0464
   69MOL    H53 8349   4.760   1.104   7.652  0.4386 -0.0361  0.3212
   69MOL    H54 8350   4.891   1.286   7.561 -0.5689  2.2826  1.0333
   69MOL    H55 8351   4.940   1.339   0.026  2.1833  0.8323 -2.1646
   69MOL    C56 8352   5.011   1.143   7.666  0.4955  0.0647 -0.4887
   69MOL    C57 8353   5.145   1.182   7.607  0.5760 -0.4441 -0.2253
   69MOL    H58 8354   5.016   1.125   0.081 -1.0981 -1.0773 -0.5835
   69MOL    H59 8355   4.976   1.053   7.615 -3.0562  0.5898  0.8584
   69MOL    H60 8356   5.128   1.194   7.500  0.5077  0.1049 -0.1537
   69MOL    H61 8357   5.170   1.280   7.647  1.2710 -1.2499  1.3402
   69MOL    C62 8358   5.246   1.072   7.625 -0.6832  0.3651 -0.2080
   69MOL    C63 8359   5.382   1.143   7.597 -0.2041  0.0398  0.3488
   69MOL    H64 8360   5.245   1.024   0.032 -0.2326 -0.3077 -0.5249
   69MOL    H65 8361   5.234   0.989   7.556  0.9297  1.5784 -1.9914
   69MOL    H66 8362   5.372   1.196   7.502 -0.6272 -1.6005 -0.5604
   69MOL    H67 8363   5.403   1.216   7.674  1.2535 -0.5321  0.5048
   69MOL    C68 8364   5.509   1.055   7.604 -0.1724 -0.4462 -0.8660
   69MOL    C69 8365   5.573   1.045   0.052 -0.2477  0.5535  0.3855
   69MOL    H70 8366   5.473   0.954   7.581 -2.5620  0.6638 -2.1867
   69MOL    H71 8367   5.572   1.086   7.521 -0.9440 -0.6254 -1.5364
   69MOL    H72 8368   5.602   1.148   0.075 -0.3581  0.7584 -0.3845
   69MOL    H73 8369   5.497   1.021   0.126 -0.2665  3.8413  1.5240
   69MOL    C74 8370   5.701   0.968   0.058 -0.0073 -0.1607  0.0826
   69MOL    C75 8371   5.758   0.955   0.199  0.0244  0.0600  0.8241
   69MOL    H76 8372   5.689   0.873   0.006  1.2910  0.0298 -0.5931
   69MOL    H77 8373   5.764   1.018   7.676  1.4310 -1.1487  0.6266
   69MOL    H78 8374   5.867   0.953   0.196 -0.0188 -0.6843 -0.5778
   69MOL    H79 8375   5.735   1.044   0.258  0.1293 -0.2621  1.3556
   69MOL    C80 8376   5.709   0.823   0.261 -0.1995  0.6478 -0.7395
   69MOL    C81 8377   5.754   0.812   0.407 -0.2508  0.1710 -0.4839
   69MOL    H82 8378   5.601   0.807   0.262  0.1509 -1.8596  1.2710
   69MOL    H83 8379   5.740   0.734   0.207 -1.9217 -1.1601  1.1746
   69MOL    H84 8380   5.863   0.806   0.412 -0.2802 -0.7818 -0.7859
   69MOL    H85 8381   5.724   0.897   0.469  1.0675 -0.6292  1.3052
   69MOL    C86 8382   5.697   0.681   0.475  0.0788 -0.4982  0.3836
   69MOL    C87 8383   5.711   0.684   0.627  0.0172  0.6540 -0.2441
   69MOL    H88 8384   5.591   0.680   0.448  0.2378  0.3969 -0.3038
   69MOL    H89 8385   5.746   0.597   0.426  1.5439  0.4529  0.1781
   69MOL    H90 8386   5.792   0.624   0.669 -1.8542 -0.7684  1.4339
   69MOL    H91 8387   5.741   0.782   0.663  0.8612  0.1354  0.4930
   69MOL    C92 8388   5.579   0.647   0.689  0.4192  0.5422 -0.4804
   69MOL    C93 8389   5.583   0.661   0.843 -1.1100 -0.3711 -0.2462
   69MOL    H94 8390   5.515   0.728   0.653 -0.9542 -0.8264 -1.1421
   69MOL    H95 8391   5.562   0.548   0.648  1.4898 -0.1561  0.7450
   69MOL    H96 8392   5.661   0.589   0.871 -1.2438 -0.4549 -0.0848
   69MOL    H97 8393   5.620   0.757   0.879 -1.2727 -0.2377 -0.4354
   69MOL    C98 8394   5.447   0.627   0.908 -0.2299 -0.2735 -0.2379
   69MOL    C99 8395   5.338   0.737   0.897 -0.0086 -0.0459  0.7731
   69MOL   H100 8396   5.419   0.532   0.862 -0.8888 -0.3457  0.2967
   69MOL   H101 8397   5.478   0.606   1.010 -0.8153 -2.5368 -0.4937
   69MOL   H102 8398   5.371   0.837   0.924 -1.5277  0.9681 -0.9795
   69MOL   H103 8399   5.307   0.747   0.792 -0.6007  0.1911  0.9669
   69MOL   C104 8400   5.210   0.708   0.991 -0.1245 -0.4404 -0.6361
   69MOL   C105 8401   5.104   0.823   0.988 -0.4099  0.1667 -0.2874
   69MOL   H106 8402   5.149   0.623   0.961  1.2923 -1.1225 -1.6608
   69MOL   H107 8403   5.232   0.671   1.091 -0.1236 -2.1417 -1.2633
   69MOL   H108 8404   5.142   0.910   1.042  1.2901 -0.1184 -0.9690
   69MOL   H109 8405   5.092   0.861   0.886 -0.4283  2.0657  0.4135
   69MOL   C110 8406   4.970   0.783   1.051  0.1294  0.4458 -0.4983
   69MOL   C111 8407   4.871   0.904   1.044 -0.7377  0.0119  0.0021
   69MOL   H112 8408   4.929   0.688   1.018  2.8250  0.7017 -4.9481
   69MOL   H113 8409   4.995   0.763   1.156  1.5117 -1.6726 -1.2019
   69MOL   H114 8410   4.935   0.991   1.061 -0.0094 -0.6225  0.5058
   69MOL   H115 8411   4.833   0.918   0.943 -0.0027 -1.5242 -0.5013
   69MOL   C116 8412   4.760   0.903   1.147 -0.5265  0.0970 -0.8003
   69MOL   C117 8413   4.685   1.037   1.167 -0.0367 -0.1870  0.1433
   69MOL   H118 8414   4.682   0.832   1.119 -2.5380  0.2784  3.9048
   69MOL   H119 8415   4.803   0.876   1.244  1.2950  1.4319 -1.2282
   69MOL   H120 8416   4.621   1.019   1.253 -1.8446 -0.0427 -1.1369
   69MOL   H121 8417   4.756   1.118   1.186 -2.4201  1.4056  2.7028
   69MOL   H122 8418   4.623   1.056   1.079  2.7538 -0.9463 -2.0675
   70MOL     C1 8419   3.459   6.383   0.916  0.1185  0.2189 -0.7395
   70MOL     C2 8420   3.454   6.433   1.059 -0.2841 -0.2587  0.0456
   70MOL     H3 8421   3.506   6.285   0.908  0.8667  0.2782  2.2159
   70MOL     H4 8422   3.508   6.452   0.848 -1.3873  2.4521  0.3752
   70MOL     H5 8423   3.381   6.512   1.079  1.4338  1.3809  0.0029
   70MOL     H6 8424   3.435   6.350   1.126  0.0834 -0.2910  0.1126
   70MOL     H7 8425   3.358   6.369   0.877  0.5519 -2.6613 -0.9612
   70MOL     C8 8426   3.581   6.495   1.106  0.2334  0.3396  0.5148
   70MOL     C9 8427   3.577   6.544   1.252 -0.1625  0.5023 -0.1125
   70MOL    H10 8428   3.657   6.418   1.101 -0.0132 -0.0154  1.8625
   70MOL    H11 8429   3.604   6.581   1.043 -1.4790 -0.5826 -1.4042
   70MOL    H12 8430   3.488   6.607   1.258 -1.6242 -1.6105  0.9996
   70MOL    H13 8431   3.554   6.464   1.322 -0.1649 -0.6953 -1.4446
   70MOL    C14 8432   3.700   6.618   1.301 -0.2228 -0.0145  0.5229
   70MOL    C15 8433   3.667   6.687   1.434  0.3466 -0.0400 -0.4219
   70MOL    H16 8434   3.769   6.537   1.323  0.8798  0.6191 -0.5978
   70MOL    H17 8435   3.744   6.688   1.231  1.8502  1.5875  3.3117
   70MOL    H18 8436   3.589   6.763   1.426 -0.4596 -0.6730  1.2421
   70MOL    H19 8437   3.626   6.616   1.506 -0.2557  2.7231  2.0816
   70MOL    C20 8438   3.794   6.761   1.483  0.2110  0.0535 -0.6922
   70MOL    C21 8439   3.790   6.844   1.612 -0.6791  0.3072 -0.2646
   70MOL    H22 8440   3.877   6.693   1.503  0.6235  0.7914  0.1767
   70MOL    H23 8441   3.814   6.816   1.391  1.1017  0.8227 -0.0534
   70MOL    H24 8442   3.785   6.775   1.696  1.0812 -0.4797 -0.7731
   70MOL    H25 8443   3.887   6.893   1.623 -0.3874 -0.3892  0.2741
   70MOL    C26 8444   3.678   6.952   1.613 -0.1122 -0.0290  0.1435
   70MOL    C27 8445   3.671   7.034   1.744 -0.4763 -0.7045 -0.0038
   70MOL    H28 8446   3.683   7.022   1.530 -2.1290  0.4327  0.3874
   70MOL    H29 8447   3.581   6.904   1.598 -0.1566 -0.3405  1.3232
   70MOL    H30 8448   3.681   6.966   1.829  0.2530 -1.1115 -0.4077
   70MOL    H31 8449   3.756   7.103   1.753 -1.8305  0.8998  0.8364
   70MOL    C32 8450   3.539   7.111   1.753  1.0912 -0.2560  0.0684
   70MOL    C33 8451   3.517   7.176   1.889 -0.0376  0.8495 -0.1151
   70MOL    H34 8452   3.529   7.178   1.669  0.6331 -1.2456 -0.6809
   70MOL    H35 8453   3.450   7.048   1.744  0.4858  0.7190 -0.8577
   70MOL    H36 8454   3.496   7.096   1.961  0.3674 -0.4445 -1.4250
   70MOL    H37 8455   3.605   7.231   1.921  2.1362  0.3119 -4.7876
   70MOL    C38 8456   3.386   7.267   1.868  1.0956 -0.3352 -0.4435
   70MOL    C39 8457   3.318   7.326   1.996 -0.6168 -0.8443 -0.4380
   70MOL    H40 8458   3.424   7.348   1.806 -0.0915 -0.5578 -1.4824
   70MOL    H41 8459   3.304   7.231   1.806  0.7916 -0.0926 -0.1849
   70MOL    H42 8460   3.306   7.248   2.071 -2.3304  1.5517  1.8951
   70MOL    H43 8461   3.381   7.401   2.043  0.0995 -2.3158  0.9675
   70MOL    C44 8462   3.179   7.383   1.976 -0.5202  0.1794  0.4807
   70MOL    C45 8463   3.140   7.459   2.097 -0.1359 -0.3452 -0.7593
   70MOL    H46 8464   3.171   7.451   1.892  0.1412  0.1092  0.3554
   70MOL    H47 8465   3.112   7.298   1.968  2.9599 -2.7718  1.0065
   70MOL    H48 8466   3.111   7.394   2.178 -1.6051  2.8222  1.3537
   70MOL    H49 8467   3.217   7.529   2.131 -1.6258  0.4676  1.0044
   70MOL    C50 8468   3.011   7.542   2.075 -0.0368  0.7770 -0.5542
   70MOL    C51 8469   2.953   7.604   2.207 -0.0168 -0.2175  0.2140
   70MOL    H52 8470   3.031   7.617   1.999  1.5016  0.4022 -0.5293
   70MOL    H53 8471   2.928   7.482   2.036 -0.9599  0.7394  1.3795
   70MOL    H54 8472   2.937   7.537   2.292 -0.5007 -0.2514  0.1007
   70MOL    H55 8473   3.031   7.675   2.233  0.4627 -0.2491 -1.1098
   70MOL    C56 8474   2.825   7.689   2.184 -0.1091  0.7754  0.0485
   70MOL    C57 8475   2.778   0.068   2.316  0.3700  0.1443  0.4220
   70MOL    H58 8476   2.841   0.073   2.107 -2.0885  2.0337  0.8278
   70MOL    H59 8477   2.757   7.615   2.141  2.0393 -1.6442  0.7443
   70MOL    H60 8478   2.741   7.686   2.387  1.9692 -0.3251  0.7931
   70MOL    H61 8479   2.870   0.114   2.353 -0.2076  0.0202  2.0944
   70MOL    C62 8480   2.677   0.172   2.290  0.6619  0.2309  0.4059
   70MOL    C63 8481   2.546   0.108   2.238  0.2888  0.5125 -0.0028
   70MOL    H64 8482   2.664   0.230   2.381 -0.7264  0.1555  0.2598
   70MOL    H65 8483   2.709   0.245   2.216  2.7100 -1.7488 -0.7596
   70MOL    H66 8484   2.549   0.081   2.133  1.1099  0.9336 -0.0890
   70MOL    H67 8485   2.539   0.018   2.299 -0.3787 -1.1966 -2.5541
   70MOL    C68 8486   2.425   0.194   2.270 -0.3675 -0.1443 -0.6078
   70MOL    C69 8487   2.300   0.124   2.221  0.7143  0.2838  0.1046
   70MOL    H70 8488   2.426   0.210   2.378  1.8085 -0.2308 -0.5780
   70MOL    H71 8489   2.444   0.288   2.217  1.1686  1.0014  1.8797
   70MOL    H72 8490   2.318   0.104   2.115 -2.1266 -0.5605 -0.2750
   70MOL    H73 8491   2.287   0.026   2.266 -1.5434 -0.4327 -1.9806
   70MOL    C74 8492   2.174   0.218   2.233 -0.3688  0.7305 -0.1563
   70MOL    C75 8493   2.127   0.276   2.367 -0.5738  0.5573 -0.2876
   70MOL    H76 8494   2.193   0.303   2.168  1.8771 -1.9605 -3.2211
   70MOL    H77 8495   2.096   0.171   2.173 -0.1700  2.4020 -1.7797
   70MOL    H78 8496   2.123   0.202   2.447 -1.3821 -0.3555 -1.1533
   70MOL    H79 8497   2.202   0.351   2.391 -1.6735  1.3242  0.8003
   70MOL    C80 8498   1.980   0.331   2.346  0.3629  0.3693 -0.5187
   70MOL    C81 8499   1.950   0.444   2.449  0.2801  0.6138  0.2413
   70MOL    H82 8500   1.968   0.378   2.249  3.3547 -0.7147 -1.4857
   70MOL    H83 8501   1.899   0.258   2.353 -1.0127  1.8189 -1.0664
   70MOL    H84 8502   1.952   0.387   2.542 -2.5734  0.5027  0.2776
   70MOL    H85 8503   2.022   0.525   2.435  1.1851  0.0886  1.7426
   70MOL    C86 8504   1.802   0.497   2.432 -0.3915  0.8053 -0.4597
   70MOL    C87 8505   1.762   0.602   2.536 -0.2739  0.3058  0.2329
   70MOL    H88 8506   1.790   0.542   2.334  4.9280  1.2562 -1.0282
   70MOL    H89 8507   1.733   0.412   2.437  1.4864 -0.7163  0.1008
   70MOL    H90 8508   1.792   0.569   2.635 -1.2824  2.7643  1.4212
   70MOL    H91 8509   1.817   0.693   2.511  2.3774 -1.7091 -1.3760
   70MOL    C92 8510   1.609   0.632   2.528 -0.9919 -0.0660 -0.3453
   70MOL    C93 8511   1.555   0.720   2.647  0.3605  0.4393  0.3581
   70MOL    H94 8512   1.572   0.670   2.433 -1.9880  1.0143  0.4618
   70MOL    H95 8513   1.564   0.535   2.550 -1.5111  0.5120  1.2051
   70MOL    H96 8514   1.572   0.655   2.733 -0.5695 -0.1095  0.1243
   70MOL    H97 8515   1.613   0.812   2.648 -1.0653  1.3893 -1.5706
   70MOL    C98 8516   1.407   0.747   2.640  0.0553  0.1938 -1.1195
   70MOL    C99 8517   1.347   0.818   2.761  0.6398  0.0932  0.6351
   70MOL   H100 8518   1.371   0.789   2.547 -1.4337 -0.6226 -0.9179
   70MOL   H101 8519   1.362   0.648   2.634  0.2427  0.1505 -1.8820
   70MOL   H102 8520   1.342   0.752   2.847 -0.8768 -0.4287  0.1509
   70MOL   H103 8521   1.403   0.910   2.779  0.3683  0.0334  1.7899
   70MOL   C104 8522   1.197   0.848   2.732 -0.3169  0.5353 -0.3462
   70MOL   C105 8523   1.116   0.894   2.847 -0.1045  0.1505 -0.5075
   70MOL   H106 8524   1.184   0.925   2.656  0.9329  1.9791  0.8623
   70MOL   H107 8525   1.146   0.757   2.700  2.0717 -0.5727 -1.1436
   70MOL   H108 8526   1.115   0.809   2.915 -2.2059 -0.3240 -1.0720
   70MOL   H109 8527   1.163   0.962   2.918  0.5075 -1.3129  0.5110
   70MOL   C110 8528   0.968   0.929   2.812  0.3008  0.0388  0.7707
   70MOL   C111 8529   0.864   0.915   2.925  0.4104  0.1243 -0.3677
   70MOL   H112 8530   0.959   1.032   2.778  1.6760 -0.6863 -2.0032
   70MOL   H113 8531   0.934   0.865   2.730  1.9320 -0.7373  0.6615
   70MOL   H114 8532   0.870   0.809   2.946  1.6219  0.6590  2.0889
   70MOL   H115 8533   0.886   0.960   3.022 -2.5386 -2.4321  1.5754
   70MOL   C116 8534   0.718   0.935   2.881  0.4459 -0.3896 -0.1276
   70MOL   C117 8535   0.634   0.920   3.008  0.4753  0.0420 -0.6583
   70MOL   H118 8536   0.703   1.034   2.837  1.0112 -0.8432 -1.3541
   70MOL   H119 8537   0.678   0.870   2.803 -0.7169  0.7841 -0.5263
   70MOL   H120 8538   0.631   0.813   3.026 -1.6383  0.1353 -0.3173
   70MOL   H121 8539   0.668   0.975   3.096  2.0768  1.7697 -2.3034
   70MOL   H122 8540   0.531   0.946   2.984  0.2052  1.0221  1.4094
   71MOL     C1 8541   3.018   3.759   3.539  0.1813  0.3536  0.6416
   71MOL     C2 8542   3.056   3.873   3.631  0.0253  0.3160 -0.0051
   71MOL     H3 8543   2.911   3.753   3.521  0.2336 -1.6286  0.8609
   71MOL     H4 8544   3.030   3.662   3.586 -1.4652 -0.2497 -0.1227
   71MOL     H5 8545   3.029   3.843   3.732  2.5410  0.0009  0.6139
   71MOL     H6 8546   3.162   3.890   3.646  0.3429  1.2196 -2.9567
   71MOL     H7 8547   3.064   3.770   3.440  0.2222  0.8165  0.7140
   71MOL     C8 8548   2.987   4.007   3.597 -0.0413  0.5636  0.1192
   71MOL     C9 8549   3.026   4.115   3.692  0.0329  0.6241  0.4834
   71MOL    H10 8550   3.015   4.038   3.496 -0.9663  0.0823 -0.2963
   71MOL    H11 8551   2.878   4.001   3.597  0.0927 -3.1400  1.4741
   71MOL    H12 8552   3.021   4.074   3.794  0.4849 -0.7644 -0.0381
   71MOL    H13 8553   3.129   4.149   3.679 -0.3148  2.4399  2.2535
   71MOL    C14 8554   2.922   4.234   3.693 -0.1567 -0.1116 -0.2351
   71MOL    C15 8555   2.975   4.355   3.771 -0.4233 -0.2243 -0.3249
   71MOL    H16 8556   2.899   4.261   3.590 -0.3934 -2.8340 -0.9185
   71MOL    H17 8557   2.827   4.201   3.735 -0.7335  2.4322  0.5528
   71MOL    H18 8558   2.996   4.321   3.873  0.2811 -0.7608 -0.6496
   71MOL    H19 8559   3.071   4.386   3.732 -0.2353  0.7000  0.8615
   71MOL    C20 8560   2.885   4.484   3.757 -0.0378  0.1359 -0.5194
   71MOL    C21 8561   2.956   4.610   3.826  0.0727  0.1810 -0.0089
   71MOL    H22 8562   2.875   4.513   3.653 -2.0207  0.1215 -0.3502
   71MOL    H23 8563   2.789   4.475   3.807  0.1617  0.3423 -0.0905
   71MOL    H24 8564   2.971   4.591   3.933  0.6156  1.2311  0.1009
   71MOL    H25 8565   3.056   4.633   3.792  0.6624  2.4683  3.0402
   71MOL    C26 8566   2.859   4.721   3.807  0.0351  0.0941  0.2551
   71MOL    C27 8567   2.902   4.859   3.861  0.1333 -0.3229 -0.5782
   71MOL    H28 8568   2.839   4.741   3.702  0.5962 -1.7300 -0.2223
   71MOL    H29 8569   2.763   4.696   3.852  0.0233 -0.9274 -0.3306
   71MOL    H30 8570   2.909   4.846   3.969  0.1085  2.1690 -0.2362
   71MOL    H31 8571   3.001   4.885   3.824 -0.1803 -0.5843 -1.6065
   71MOL    C32 8572   2.802   4.972   3.833  0.7151 -0.4376  0.0697
   71MOL    C33 8573   2.854   5.104   3.901 -0.2364 -0.0582  0.0312
   71MOL    H34 8574   2.786   4.977   3.725 -1.8428 -2.3950  0.3080
   71MOL    H35 8575   2.708   4.935   3.874  0.5097  0.0411  0.0372
   71MOL    H36 8576   2.839   5.089   4.008 -2.0112  0.2368 -0.1514
   71MOL    H37 8577   2.954   5.128   3.867  0.1670 -1.8523 -0.0866
   71MOL    C38 8578   2.750   5.216   3.875 -0.2826 -0.2275 -0.1915
   71MOL    C39 8579   2.771   5.328   3.966 -0.8295 -0.6241 -0.2578
   71MOL    H40 8580   2.769   5.261   3.777 -0.9278 -0.2879 -0.3446
   71MOL    H41 8581   2.646   5.187   3.877 -0.2980 -0.1842 -0.3373
   71MOL    H42 8582   2.769   5.292   4.068 -3.1468  2.2212  0.7416
   71MOL    H43 8583   2.865   5.381   3.953 -1.3070 -0.1628 -2.0390
   71MOL    C44 8584   2.659   5.430   3.942 -0.4812  0.1289 -0.1305
   71MOL    C45 8585   2.688   5.566   4.008  0.7395  0.6433  0.2643
   71MOL    H46 8586   2.644   5.447   3.835  0.1205 -2.1950 -0.6138
   71MOL    H47 8587   2.560   5.392   3.967  0.2710 -0.8855  1.3709
   71MOL    H48 8588   2.686   5.566   4.117 -0.4957 -1.6707  0.2697
   71MOL    H49 8589   2.790   5.596   3.983  0.4571  1.0542 -0.4300
   71MOL    C50 8590   2.585   5.676   3.961  0.1155  0.1951 -0.2218
   71MOL    C51 8591   2.615   5.810   4.041 -0.6679  1.0692 -0.5235
   71MOL    H52 8592   2.582   5.698   3.854  2.6937  1.5911 -0.0444
   71MOL    H53 8593   2.480   5.657   3.983  0.9308 -2.4945  1.6539
   71MOL    H54 8594   2.617   5.783   4.147 -5.3771 -0.6999 -0.7885
   71MOL    H55 8595   2.708   5.859   4.012  0.9901 -1.2620  0.6255
   71MOL    C56 8596   2.502   5.914   4.029  0.3913 -0.0566  0.6565
   71MOL    C57 8597   2.521   6.046   4.105 -0.4167 -0.5960 -0.0302
   71MOL    H58 8598   2.498   5.936   3.922 -1.1224  0.7947  0.8815
   71MOL    H59 8599   2.410   5.861   4.051  1.4119 -1.2141  2.2624
   71MOL    H60 8600   2.504   6.021   4.210  2.9299 -1.0422  0.4479
   71MOL    H61 8601   2.618   6.090   4.083 -0.9272 -0.0868 -1.3341
   71MOL    C62 8602   2.429   6.160   4.057  0.1649  0.5610  0.4010
   71MOL    C63 8603   2.442   6.286   4.137  0.1805 -0.2814 -0.6770
   71MOL    H64 8604   2.455   6.181   3.953  1.8465 -0.6909  0.5457
   71MOL    H65 8605   2.328   6.120   4.055  0.2509  0.3475  0.3154
   71MOL    H66 8606   2.420   6.283   4.243  1.9345  0.6043 -0.2706
   71MOL    H67 8607   2.550   6.300   4.137  0.1910 -0.3659 -0.6118
   71MOL    C68 8608   2.371   6.407   4.072 -0.5254 -0.2706  0.9183
   71MOL    C69 8609   2.362   6.533   4.153 -0.2042 -0.0342 -0.1567
   71MOL    H70 8610   2.418   6.425   3.975 -1.9653 -3.1837 -0.3725
   71MOL    H71 8611   2.272   6.380   4.035  0.7490 -0.3229 -2.7164
   71MOL    H72 8612   2.315   6.511   4.249 -0.5275  0.7882 -0.1228
   71MOL    H73 8613   2.465   6.562   4.172 -0.9255  0.6295  2.9670
   71MOL    C74 8614   2.284   6.641   4.080  0.3178  0.4222 -0.2815
   71MOL    C75 8615   2.359   6.713   3.968  0.1914  1.3415 -0.1975
   71MOL    H76 8616   2.195   6.593   4.041 -0.8157  1.0666  1.4742
   71MOL    H77 8617   2.263   6.712   4.159  1.7529  0.7304 -0.1562
   71MOL    H78 8618   2.440   6.774   4.009  0.9253  0.1810  0.0842
   71MOL    H79 8619   2.410   6.632   3.917  0.4256 -1.2231  3.8337
   71MOL    C80 8620   2.272   6.802   3.886  0.0950 -0.0206 -0.0335
   71MOL    C81 8621   2.177   6.718   3.791  0.2641 -0.6024  0.1305
   71MOL    H82 8622   2.209   6.861   3.954  1.1433  1.5538 -0.4116
   71MOL    H83 8623   2.317   6.877   3.821  0.4416 -0.3769 -0.2002
   71MOL    H84 8624   2.231   6.626   3.773  1.7004 -0.0625  1.5900
   71MOL    H85 8625   2.088   6.695   3.850 -0.1435  1.1440  0.2402
   71MOL    C86 8626   2.145   6.796   3.661 -0.4251 -0.2849  0.3159
   71MOL    C87 8627   2.084   6.938   3.680  0.9742  0.3907 -0.1789
   71MOL    H88 8628   2.230   6.802   3.593 -1.3837 -1.8489 -1.0530
   71MOL    H89 8629   2.076   6.729   3.611 -0.7630  0.0019  0.3947
   71MOL    H90 8630   2.026   6.942   3.772  0.5125  4.0932 -0.5512
   71MOL    H91 8631   2.158   7.012   3.710  1.9520 -1.2076  1.4252
   71MOL    C92 8632   2.001   6.993   3.560 -0.0049  0.5882 -0.5325
   71MOL    C93 8633   1.854   6.954   3.552  0.1273 -0.2131  0.4213
   71MOL    H94 8634   2.019   7.100   3.557 -0.3154  0.6840  1.0524
   71MOL    H95 8635   2.055   6.952   3.474 -1.8228 -0.3130 -1.2892
   71MOL    H96 8636   1.837   6.853   3.513 -2.1900  0.2666  0.0846
   71MOL    H97 8637   1.811   6.947   3.651 -1.3976  0.0393 -0.2113
   71MOL    C98 8638   1.777   7.055   3.465 -0.4079  0.4757  0.0391
   71MOL    C99 8639   1.633   7.023   3.431 -0.4802  0.0470  0.0496
   71MOL   H100 8640   1.768   7.137   3.536  0.2422  1.1825 -0.6905
   71MOL   H101 8641   1.842   7.096   3.388  1.1364  0.9591  1.5746
   71MOL   H102 8642   1.627   6.934   3.368 -1.8462 -0.0396  0.2852
   71MOL   H103 8643   1.580   6.990   3.520 -1.0211  0.5724 -0.0706
   71MOL   C104 8644   1.564   7.127   3.358  0.0030  0.3661 -0.6098
   71MOL   C105 8645   1.425   7.076   3.290 -0.2603  0.2240  0.3176
   71MOL   H106 8646   1.556   7.212   3.425  1.1640 -0.4397  0.5485
   71MOL   H107 8647   1.623   7.165   3.274 -0.0679  1.2051 -0.2862
   71MOL   H108 8648   1.451   6.983   3.240 -1.0487 -0.2559  0.7972
   71MOL   H109 8649   1.353   7.051   3.367  0.1075 -1.7770  0.0263
   71MOL   C110 8650   1.356   7.175   3.197 -1.1913 -0.0158 -0.1757
   71MOL   C111 8651   1.234   7.121   3.122 -0.6293 -0.9723 -0.5841
   71MOL   H112 8652   1.334   7.266   3.253 -0.2721 -1.7101  3.0662
   71MOL   H113 8653   1.421   7.203   3.114 -0.9476 -2.9471 -1.0236
   71MOL   H114 8654   1.258   7.031   3.066  0.2264 -0.5330 -0.9272
   71MOL   H115 8655   1.170   7.091   3.205 -1.1652  0.0522 -0.6049
   71MOL   C116 8656   1.174   7.225   3.019 -0.0547  0.6586  0.9437
   71MOL   C117 8657   1.080   7.342   3.070  0.4306 -1.1569 -0.4892
   71MOL   H118 8658   1.254   7.270   2.961 -0.6777 -0.6473 -0.9886
   71MOL   H119 8659   1.105   7.172   2.953  1.0476 -0.3084  0.5544
   71MOL   H120 8660   1.121   7.408   3.146 -1.6012 -0.2475 -0.1516
   71MOL   H121 8661   1.050   7.401   2.984  0.6546 -0.2584  0.0380
   71MOL   H122 8662   0.989   7.302   3.116  1.1738 -0.1578  1.9387
   72MOL     C1 8663   4.165   1.637   7.037 -0.1871  0.0961  0.4483
   72MOL     C2 8664   4.022   1.679   7.004  0.2936  1.0984  0.2637
   72MOL     H3 8665   4.172   1.544   7.093 -1.1278  0.5645  1.3537
   72MOL     H4 8666   4.230   1.707   7.089  1.2071 -0.3330 -0.6803
   72MOL     H5 8667   4.028   1.769   6.942  1.6298  0.5916 -0.3505
   72MOL     H6 8668   3.983   1.597   6.942  0.0631 -0.4867  2.4668
   72MOL     H7 8669   4.222   1.622   6.945 -0.4328 -1.3111  0.5207
   72MOL     C8 8670   3.935   1.708   7.122  0.0287 -0.2438 -0.2140
   72MOL     C9 8671   3.800   1.771   7.077 -0.0464  0.1893  0.0603
   72MOL    H10 8672   3.918   1.615   7.177  1.0463 -0.7541 -0.7609
   72MOL    H11 8673   3.974   1.781   7.193  1.6017 -1.6261  0.3965
   72MOL    H12 8674   3.820   1.862   7.021 -1.0187 -1.0250 -2.3323
   72MOL    H13 8675   3.747   1.700   7.013  1.2585 -3.3552  2.7308
   72MOL    C14 8676   3.716   1.820   7.197 -0.1443  0.0958 -0.5156
   72MOL    C15 8677   3.580   1.880   7.171  0.8014 -0.5606  0.2955
   72MOL    H16 8678   3.692   1.738   7.265 -1.8051  0.8520 -0.1551
   72MOL    H17 8679   3.771   1.902   7.242 -0.8372  1.0048 -1.2983
   72MOL    H18 8680   3.570   1.943   7.082 -0.4665  0.1250  0.9087
   72MOL    H19 8681   3.512   1.800   7.140  0.6362 -0.0031 -0.8046
   72MOL    C20 8682   3.531   1.961   7.293 -0.9786 -0.0868  0.3409
   72MOL    C21 8683   3.383   2.009   7.279 -0.5148  0.1003 -0.8593
   72MOL    H22 8684   3.556   1.905   7.382  0.6620 -2.2269 -1.4040
   72MOL    H23 8685   3.595   2.049   7.295  0.4700 -1.0891 -0.6346
   72MOL    H24 8686   3.363   2.044   7.177 -0.6169 -2.1411 -1.6604
   72MOL    H25 8687   3.312   1.926   7.285  0.3621 -0.6892 -1.1103
   72MOL    C26 8688   3.342   2.116   7.377 -0.1169  0.3928  0.6775
   72MOL    C27 8689   3.194   2.126   7.392  0.8271  0.0776 -0.3579
   72MOL    H28 8690   3.392   2.091   7.470 -0.0848 -0.3898  0.4481
   72MOL    H29 8691   3.380   2.212   7.340 -0.2260  0.1895  0.0294
   72MOL    H30 8692   3.160   2.129   7.288 -1.1172 -0.5212  0.2580
   72MOL    H31 8693   3.158   2.036   7.441  0.4791 -0.4716 -1.5938
   72MOL    C32 8694   3.130   2.252   7.455  0.2316  0.1277  0.6649
   72MOL    C33 8695   3.192   2.379   7.388 -0.5021 -0.3088  0.0226
   72MOL    H34 8696   3.023   2.239   7.436  0.3613 -1.9601  1.3131
   72MOL    H35 8697   3.151   2.251   7.562 -2.4518  0.3223  1.2436
   72MOL    H36 8698   3.153   2.462   7.446 -2.2788 -0.8252 -0.3860
   72MOL    H37 8699   3.300   2.392   7.391 -0.6069  0.9062 -1.0291
   72MOL    C38 8700   3.159   2.391   7.236 -0.6065  0.3005 -0.5451
   72MOL    C39 8701   3.209   2.527   7.181 -0.3855 -0.3430  0.1502
   72MOL    H40 8702   3.203   2.316   7.171 -0.0252  0.4066 -0.2769
   72MOL    H41 8703   3.051   2.388   7.226 -0.6919 -0.2759  0.5284
   72MOL    H42 8704   3.173   2.610   7.242 -0.5841  1.7555 -2.7185
   72MOL    H43 8705   3.317   2.521   7.196 -0.0711  0.8205 -1.5210
   72MOL    C44 8706   3.164   2.548   7.035 -0.1953  0.6098  0.0472
   72MOL    C45 8707   3.252   2.486   6.931 -0.1773 -0.4684  0.7857
   72MOL    H46 8708   3.060   2.528   7.012  0.4429 -1.3275 -1.3381
   72MOL    H47 8709   3.174   2.655   7.018 -0.0801  0.7170  0.7815
   72MOL    H48 8710   3.357   2.513   6.942 -0.0706 -0.3520 -0.4044
   72MOL    H49 8711   3.245   2.379   6.950 -1.0360 -0.0608  2.8007
   72MOL    C50 8712   3.206   2.516   6.788 -0.2085  0.6370 -0.1671
   72MOL    C51 8713   3.312   2.466   6.690 -0.3748  0.4191 -0.1962
   72MOL    H52 8714   3.112   2.462   6.776  0.8747 -1.7343  1.5861
   72MOL    H53 8715   3.184   2.622   6.775 -0.3037  0.5629 -0.6032
   72MOL    H54 8716   3.417   2.490   6.708 -0.2637  0.7059 -1.1632
   72MOL    H55 8717   3.318   2.358   6.686  0.7240  0.3760  2.1370
   72MOL    C56 8718   3.286   2.520   6.545  0.1743  0.2488 -0.2719
   72MOL    C57 8719   3.391   2.507   6.440 -0.7622 -0.3180  0.4289
   72MOL    H58 8720   3.188   2.480   6.517  1.2073 -3.3205  0.9792
   72MOL    H59 8721   3.279   2.627   6.565  0.9855  0.9441 -3.4355
   72MOL    H60 8722   3.479   2.541   6.495 -2.3631  0.1873  2.7615
   72MOL    H61 8723   3.399   2.406   6.401  0.1163 -0.7990  1.7926
   72MOL    C62 8724   3.350   2.589   6.313 -0.5432 -0.1162  0.2072
   72MOL    C63 8725   3.467   2.589   6.210  0.2612  0.3431 -0.3318
   72MOL    H64 8726   3.258   2.546   6.273  0.1127 -1.2816 -0.0479
   72MOL    H65 8727   3.323   2.690   6.345 -1.7387 -0.2527 -0.3473
   72MOL    H66 8728   3.537   2.661   6.253 -1.6507  1.4346  1.0473
   72MOL    H67 8729   3.529   2.500   6.207 -0.5516 -0.2725  0.5898
   72MOL    C68 8730   3.410   2.638   6.080 -0.2811  0.2297 -0.4131
   72MOL    C69 8731   3.519   2.673   5.974 -0.4631  0.0113  0.3453
   72MOL    H70 8732   3.340   2.571   6.031 -1.3711  2.4350 -1.9345
   72MOL    H71 8733   3.351   2.729   6.088 -0.0144  0.2883  0.9766
   72MOL    H72 8734   3.562   2.766   6.011 -2.2311  2.1274 -2.6739
   72MOL    H73 8735   3.600   2.600   5.972 -0.3264  0.1755 -1.9535
   72MOL    C74 8736   3.463   2.700   5.836  0.1939  0.4621 -0.5362
   72MOL    C75 8737   3.577   2.716   5.737  0.0234 -0.1882 -0.1958
   72MOL    H76 8738   3.388   2.625   5.808  0.4436  0.6643 -1.8009
   72MOL    H77 8739   3.403   2.790   5.846 -0.5028 -0.1988  1.4128
   72MOL    H78 8740   3.638   2.800   5.770  0.6463 -0.2436 -1.1793
   72MOL    H79 8741   3.636   2.625   5.748  0.1260 -0.2111 -0.9247
   72MOL    C80 8742   3.543   2.727   5.586 -0.8022  0.7459  0.0051
   72MOL    C81 8743   3.660   2.757   5.497 -0.3815  0.0466  0.6432
   72MOL    H82 8744   3.480   2.644   5.554  0.5641 -0.4870  0.4280
   72MOL    H83 8745   3.476   2.811   5.567 -0.1865  0.8672 -1.7295
   72MOL    H84 8746   3.700   2.857   5.516 -2.9694  1.5387 -1.2956
   72MOL    H85 8747   3.742   2.687   5.511  0.7894  1.2411 -0.0619
   72MOL    C86 8748   3.616   2.769   5.347  0.1925  0.1361  0.0330
   72MOL    C87 8749   3.732   2.798   5.256 -0.2829  0.3520  0.0209
   72MOL    H88 8750   3.565   2.678   5.316  0.8034  0.7176 -2.7957
   72MOL    H89 8751   3.550   2.855   5.338  1.5739  1.4114  1.6650
   72MOL    H90 8752   3.765   2.894   5.296 -3.4532  1.2329  0.6425
   72MOL    H91 8753   3.820   2.734   5.257  0.6627  1.6408  0.4840
   72MOL    C92 8754   3.692   2.814   5.111 -0.8308 -0.9455 -0.9462
   72MOL    C93 8755   3.816   2.856   5.024 -0.2125 -0.4304  1.1846
   72MOL    H94 8756   3.652   2.720   5.074  1.0189 -2.0413 -0.2379
   72MOL    H95 8757   3.611   2.886   5.098  0.4568  0.1838 -3.0698
   72MOL    H96 8758   3.848   2.956   5.053  4.0478 -1.5124  0.5523
   72MOL    H97 8759   3.898   2.787   5.043  0.8955  0.1992 -1.1997
   72MOL    C98 8760   3.778   2.865   4.876 -0.9111 -0.4947 -0.1754
   72MOL    C99 8761   3.692   2.995   4.844  0.1595  0.1377  0.8390
   72MOL   H100 8762   3.872   2.881   4.822  0.5362  1.5399  2.7840
   72MOL   H101 8763   3.731   2.779   4.830 -1.5784  0.4403 -1.2594
   72MOL   H102 8764   3.591   2.980   4.882 -0.9696  0.8265 -1.8137
   72MOL   H103 8765   3.734   3.086   4.887 -0.7488  0.8456  0.2413
   72MOL   C104 8766   3.675   3.014   4.695  0.4696  0.2391 -0.1792
   72MOL   C105 8767   3.605   3.150   4.665  0.1160  0.3005 -0.3123
   72MOL   H106 8768   3.774   3.007   4.651  1.1585 -2.1361  1.6681
   72MOL   H107 8769   3.623   2.924   4.664  0.9798 -0.5922  1.3549
   72MOL   H108 8770   3.508   3.157   4.714 -0.3884 -1.2263 -1.0846
   72MOL   H109 8771   3.665   3.234   4.702  0.0711  1.0865 -1.9757
   72MOL   C110 8772   3.594   3.177   4.517 -0.0774 -0.0195  0.1754
   72MOL   C111 8773   3.535   3.315   4.481  0.2904  0.0293 -0.5740
   72MOL   H112 8774   3.693   3.165   4.472 -0.3925  0.1799 -0.5747
   72MOL   H113 8775   3.526   3.100   4.481 -0.2324 -0.0179  0.4649
   72MOL   H114 8776   3.437   3.314   4.528  0.3116 -1.4366 -0.5275
   72MOL   H115 8777   3.591   3.394   4.531  0.9882 -0.5657 -0.4058
   72MOL   C116 8778   3.529   3.352   4.332 -0.2614 -0.2467  0.0674
   72MOL   C117 8779   3.406   3.431   4.293 -0.3144 -0.6713 -0.0240
   72MOL   H118 8780   3.625   3.399   4.308  1.2198 -3.2437 -0.1047
   72MOL   H119 8781   3.537   3.260   4.275  1.0749 -0.1217  0.0336
   72MOL   H120 8782   3.318   3.367   4.285 -0.3480 -0.5167 -1.0140
   72MOL   H121 8783   3.374   3.502   4.370  2.7642 -1.1943  1.8264
   72MOL   H122 8784   3.411   3.471   4.191 -0.9534 -0.6695 -0.0557
   73MOL     C1 8785   1.991   1.712   2.012  0.6233  0.5738  0.0832
   73MOL     C2 8786   2.128   1.658   1.981  0.4570  0.3402  0.1353
   73MOL     H3 8787   1.933   1.644   2.074  1.5280 -0.8273 -0.5630
   73MOL     H4 8788   1.930   1.736   1.925  2.4107  0.7942 -1.1308
   73MOL     H5 8789   2.167   1.625   2.077 -0.8095 -2.1428 -0.1535
   73MOL     H6 8790   2.129   1.575   1.910  0.0843 -0.3592  0.9409
   73MOL     H7 8791   1.998   1.812   2.053 -0.5879  0.6045  0.2452
   73MOL     C8 8792   2.229   1.758   1.933  0.0427 -0.2795  0.3594
   73MOL     C9 8793   2.354   1.684   1.894  0.1252  0.5080  0.2176
   73MOL    H10 8794   2.193   1.812   1.846 -0.6701  0.6205  1.2102
   73MOL    H11 8795   2.241   1.832   2.013  1.8621 -1.5502  1.3220
   73MOL    H12 8796   2.411   1.659   1.984 -0.0619  2.2044  0.8254
   73MOL    H13 8797   2.327   1.587   1.852 -0.4252  0.2287  1.2011
   73MOL    C14 8798   2.450   1.758   1.806 -0.1611  0.0296 -0.0883
   73MOL    C15 8799   2.576   1.666   1.789  0.0585  0.4726 -0.2177
   73MOL    H16 8800   2.405   1.775   1.709  0.0618 -0.8454 -0.3463
   73MOL    H17 8801   2.475   1.856   1.847  0.2016  0.3392 -1.0439
   73MOL    H18 8802   2.589   1.631   1.892  1.2493  1.7021  0.0615
   73MOL    H19 8803   2.549   1.576   1.734 -0.1025 -0.5139  1.4192
   73MOL    C20 8804   2.707   1.725   1.730 -0.3375  0.4827 -0.0641
   73MOL    C21 8805   2.816   1.616   1.727  0.2780 -0.1126  0.4280
   73MOL    H22 8806   2.691   1.780   1.637 -2.4470 -1.2394 -0.7598
   73MOL    H23 8807   2.750   1.805   1.790  0.3781  0.9177 -1.1445
   73MOL    H24 8808   2.829   1.577   1.828 -0.6440  1.5160  1.1794
   73MOL    H25 8809   2.781   1.534   1.664 -2.7279 -1.1664  3.3621
   73MOL    C26 8810   2.955   1.644   1.678 -0.7499 -0.0946 -0.2335
   73MOL    C27 8811   3.058   1.534   1.707 -0.8732 -0.1747 -0.1213
   73MOL    H28 8812   2.951   1.651   1.570  0.2803 -2.7821 -0.4849
   73MOL    H29 8813   2.999   1.738   1.711  1.3266 -1.5746  1.4177
   73MOL    H30 8814   3.056   1.512   1.814  2.7051  1.9134  0.4806
   73MOL    H31 8815   3.034   1.447   1.646 -1.0644 -0.4090  0.2851
   73MOL    C32 8816   3.199   1.576   1.676  0.4847  0.5919  0.0022
   73MOL    C33 8817   3.300   1.466   1.719 -0.0787 -0.3855 -0.4841
   73MOL    H34 8818   3.212   1.591   1.569 -3.3634 -0.9290 -0.7554
   73MOL    H35 8819   3.226   1.662   1.737  0.8062  0.1695  0.4607
   73MOL    H36 8820   3.299   1.448   1.826 -1.2945  0.8410 -0.2773
   73MOL    H37 8821   3.256   1.384   1.663 -1.1693  0.2882 -0.6248
   73MOL    C38 8822   3.441   1.500   1.679  0.3092 -0.2844 -0.2364
   73MOL    C39 8823   3.557   1.397   1.680  0.6715 -0.5207  0.4853
   73MOL    H40 8824   3.427   1.548   1.583  0.7409 -2.5521 -1.4703
   73MOL    H41 8825   3.470   1.579   1.749 -1.0363  0.3424 -0.3806
   73MOL    H42 8826   3.572   1.359   1.782  1.1190 -1.0848  0.2167
   73MOL    H43 8827   3.524   1.310   1.623 -1.9376  0.1475  0.9387
   73MOL    C44 8828   3.683   1.473   1.631  0.2349 -1.2702  0.2015
   73MOL    C45 8829   3.799   1.381   1.632  0.7785 -0.2059 -0.3497
   73MOL    H46 8830   3.658   1.522   1.537  1.3096 -2.3426 -0.6684
   73MOL    H47 8831   3.711   1.546   1.707 -0.3096 -0.1478 -0.6669
   73MOL    H48 8832   3.807   1.334   1.730  1.3169  2.2887  0.8487
   73MOL    H49 8833   3.776   1.296   1.568 -1.5799  0.5961 -0.6255
   73MOL    C50 8834   3.933   1.433   1.582 -0.3798 -0.9161 -0.2932
   73MOL    C51 8835   4.037   1.316   1.575 -0.8584 -0.0214  0.6958
   73MOL    H52 8836   3.927   1.488   1.488 -0.4422 -1.0775 -0.3845
   73MOL    H53 8837   3.972   1.511   1.647 -2.0524  0.4015 -0.8206
   73MOL    H54 8838   4.070   1.284   1.674  0.8269 -1.5637 -0.3289
   73MOL    H55 8839   3.994   1.231   1.522  0.7832 -0.0369 -0.6789
   73MOL    C56 8840   4.177   1.342   1.502  0.3207  0.1119 -0.3673
   73MOL    C57 8841   4.249   1.216   1.451  0.1198 -0.1227 -0.6180
   73MOL    H58 8842   4.188   1.414   1.421  2.6366  1.8939  1.4381
   73MOL    H59 8843   4.242   1.399   1.568 -0.5114  0.3643  0.2394
   73MOL    H60 8844   4.349   1.247   1.421 -0.0070  0.5735 -0.3474
   73MOL    H61 8845   4.271   1.155   1.539 -1.3427  0.4892  0.1933
   73MOL    C62 8846   4.185   1.138   1.338  0.2593 -0.3110 -0.1720
   73MOL    C63 8847   4.265   1.008   1.307  0.0482 -0.6242  0.4044
   73MOL    H64 8848   4.092   1.093   1.374 -0.1351  1.9454  1.7612
   73MOL    H65 8849   4.164   1.192   1.246 -2.4410 -0.9801  0.0112
   73MOL    H66 8850   4.370   1.031   1.290 -0.0704 -1.6935 -1.9844
   73MOL    H67 8851   4.272   0.944   1.395 -2.7969 -1.7971 -0.1740
   73MOL    C68 8852   4.197   0.939   1.188 -0.6003  0.4539  0.2863
   73MOL    C69 8853   4.063   0.871   1.216 -0.1523 -0.5953  0.5131
   73MOL    H70 8854   4.172   1.006   1.106 -0.0890 -0.3986 -0.5801
   73MOL    H71 8855   4.260   0.871   1.130  1.7041  1.0438  2.0192
   73MOL    H72 8856   4.068   0.795   1.294  1.5122 -0.5525  0.4545
   73MOL    H73 8857   3.980   0.934   1.247 -2.6554 -2.3128 -2.3785
   73MOL    C74 8858   4.009   0.786   1.093 -0.2173  0.0998 -0.0921
   73MOL    C75 8859   3.890   0.687   1.139 -0.9160 -0.5758 -0.4355
   73MOL    H76 8860   3.978   0.858   1.017  5.5414 -0.5954 -3.3961
   73MOL    H77 8861   4.087   0.728   1.044 -0.4315  2.2197 -3.1172
   73MOL    H78 8862   3.875   0.634   1.045 -0.7237 -1.4411  0.0191
   73MOL    H79 8863   3.928   0.616   1.213  1.9445  1.9404  0.6279
   73MOL    C80 8864   3.767   0.755   1.200  1.0035  0.3599  0.4751
   73MOL    C81 8865   3.669   0.652   1.246 -0.1116 -0.2955  0.2983
   73MOL    H82 8866   3.787   0.820   1.285  0.4820  0.3213  0.6267
   73MOL    H83 8867   3.718   0.821   1.129  1.4798 -0.0816 -0.2686
   73MOL    H84 8868   3.571   0.700   1.258 -0.3694 -0.0778 -2.4450
   73MOL    H85 8869   3.639   0.589   1.163  0.1890 -0.3787  0.2563
   73MOL    C86 8870   3.694   0.577   1.382 -0.2080 -0.1591 -0.0271
   73MOL    C87 8871   3.742   0.431   1.364  0.0057  0.3317 -0.3078
   73MOL    H88 8872   3.767   0.628   1.445  0.7278 -0.4294 -0.8939
   73MOL    H89 8873   3.598   0.570   1.435 -1.8331  0.4032 -2.8076
   73MOL    H90 8874   3.670   0.384   1.297 -1.3675 -0.4635  1.6646
   73MOL    H91 8875   3.839   0.424   1.315 -0.2513  1.1275 -0.9327
   73MOL    C92 8876   3.747   0.359   1.498 -0.0370 -0.0032  0.1007
   73MOL    C93 8877   3.797   0.215   1.497 -0.0779  0.3215  0.1722
   73MOL    H94 8878   3.813   0.414   1.565  0.6300 -0.6468 -0.0168
   73MOL    H95 8879   3.650   0.368   1.546  1.5944  1.4398  3.2339
   73MOL    H96 8880   3.902   0.215   1.471  0.6562 -0.5939  2.9234
   73MOL    H97 8881   3.789   0.170   1.596 -0.3543  1.1513  0.5371
   73MOL    C98 8882   3.723   0.132   1.388  0.0202  0.4398  0.1198
   73MOL    C99 8883   3.774   7.668   1.396  0.1875  0.3416 -0.5911
   73MOL   H100 8884   3.614   0.135   1.401 -0.1593 -0.2666 -1.1255
   73MOL   H101 8885   3.747   0.177   1.292  1.2809 -1.2947 -0.3980
   73MOL   H102 8886   3.882   7.662   1.385  0.3507  1.9425 -0.0092
   73MOL   H103 8887   3.759   7.638   1.499  1.2756  2.3423  0.1656
   73MOL   C104 8888   3.707   7.572   1.295 -0.0611 -0.0374 -0.0054
   73MOL   C105 8889   3.719   7.427   1.330 -0.3027 -0.3121  0.1478
   73MOL   H106 8890   3.604   7.607   1.306  0.2378  1.5047 -1.9838
   73MOL   H107 8891   3.731   7.597   1.192  1.0732  1.0136  0.5057
   73MOL   H108 8892   3.820   7.390   1.314 -1.1519 -2.4674 -0.3586
   73MOL   H109 8893   3.699   7.408   1.436 -0.0331 -0.6060  0.1464
   73MOL   C110 8894   3.627   7.339   1.249 -0.0088 -0.1680  0.0754
   73MOL   C111 8895   3.634   7.184   1.266  0.1158  0.0145 -0.2475
   73MOL   H112 8896   3.528   7.383   1.259 -0.0553 -0.0723 -0.8344
   73MOL   H113 8897   3.651   7.356   1.144 -0.4857  0.3468  0.0502
   73MOL   H114 8898   3.738   7.156   1.277  0.2419  0.7754  0.5952
   73MOL   H115 8899   3.595   7.139   1.357  0.4116  1.1892  0.4733
   73MOL   C116 8900   3.559   7.111   1.154 -0.2210 -0.3328  0.3318
   73MOL   C117 8901   3.563   6.961   1.167 -0.6348 -0.6792  0.0662
   73MOL   H118 8902   3.454   7.137   1.142  0.4199  2.6241  0.6309
   73MOL   H119 8903   3.607   7.132   1.058  0.0093 -4.1884 -0.4571
   73MOL   H120 8904   3.493   6.924   1.092  0.6383 -1.6071 -0.6838
   73MOL   H121 8905   3.657   6.923   1.128 -0.5184  2.1516 -2.6349
   73MOL   H122 8906   3.543   6.920   1.266 -1.0130  0.8290  0.6393
   74MOL     C1 8907   1.134   4.550   4.589  0.3814 -0.0634 -0.3339
   74MOL     C2 8908   1.021   4.597   4.493  0.4662 -0.3026 -0.3845
   74MOL     H3 8909   1.212   4.625   4.604 -0.3213  0.4446  0.9129
   74MOL     H4 8910   1.184   4.466   4.540 -0.3312 -0.9340  0.4129
   74MOL     H5 8911   1.063   4.590   4.393  0.9128 -0.3053 -0.1936
   74MOL     H6 8912   0.933   4.533   4.487 -1.0814  1.7828 -0.5687
   74MOL     H7 8913   1.102   4.521   4.689 -1.0198  0.1838 -0.7045
   74MOL     C8 8914   0.959   4.728   4.539  1.0089  0.5869  0.6516
   74MOL     C9 8915   0.884   4.706   4.677 -0.0731  0.4040  0.1493
   74MOL    H10 8916   1.021   4.818   4.538 -1.7620  2.5323 -0.2697
   74MOL    H11 8917   0.878   4.742   4.468  1.6510  0.3592 -0.1398
   74MOL    H12 8918   0.825   4.614   4.676  1.0325 -0.3205  1.0091
   74MOL    H13 8919   0.956   4.686   4.757 -1.3620 -0.0908  1.2147
   74MOL    C14 8920   0.795   4.822   4.719 -0.0750  0.8041 -0.5385
   74MOL    C15 8921   0.741   4.785   4.863  0.2260  0.4299  0.1657
   74MOL    H16 8922   0.838   4.922   4.718 -2.1811  1.8363  3.0583
   74MOL    H17 8923   0.706   4.823   4.656 -0.7856  0.7358  0.4657
   74MOL    H18 8924   0.700   4.684   4.857 -1.6415  1.2494 -1.2265
   74MOL    H19 8925   0.824   4.775   4.933  0.3417 -0.0315 -0.0333
   74MOL    C20 8926   0.640   4.889   4.915  0.2712 -0.3186  0.5239
   74MOL    C21 8927   0.588   4.844   5.057 -0.3230 -0.5278  0.1398
   74MOL    H22 8928   0.687   4.988   4.916  2.6044 -1.4022  0.4500
   74MOL    H23 8929   0.555   4.892   4.847 -1.8650 -0.7111  3.1309
   74MOL    H24 8930   0.537   4.753   5.026  2.1275 -0.8926 -3.1303
   74MOL    H25 8931   0.665   4.809   5.126 -1.2416 -0.3395  1.2627
   74MOL    C26 8932   0.481   4.948   5.099 -0.5610  0.4204  0.0680
   74MOL    C27 8933   0.417   4.936   5.237 -0.1658  0.9169 -0.3557
   74MOL    H28 8934   0.504   5.052   5.074 -0.0584  0.2711 -0.1060
   74MOL    H29 8935   0.395   4.933   5.034 -1.0932 -0.2149  0.9273
   74MOL    H30 8936   0.361   4.842   5.241  1.6267 -0.2189 -1.0584
   74MOL    H31 8937   0.493   4.913   5.312 -0.0515  1.6186 -0.2527
   74MOL    C32 8938   0.332   5.053   5.287  0.2784  0.2374 -0.3645
   74MOL    C33 8939   0.270   5.023   5.426  0.1575 -0.4696  0.7995
   74MOL    H34 8940   0.390   5.144   5.299  1.5465 -0.4832 -0.8672
   74MOL    H35 8941   0.261   5.074   5.207 -0.2630  0.7954  0.2597
   74MOL    H36 8942   0.216   4.929   5.417 -0.2372  0.0174 -2.8460
   74MOL    H37 8943   0.359   4.999   5.484  1.0516 -1.2220 -0.8615
   74MOL    C38 8944   0.183   5.137   5.490  0.2109  0.9466  0.1741
   74MOL    C39 8945   0.123   5.093   5.625 -0.4437 -0.1194 -0.6301
   74MOL    H40 8946   0.250   5.222   5.489 -1.3690  2.2137  0.7823
   74MOL    H41 8947   0.104   5.159   5.418  0.2837 -1.3508 -0.6531
   74MOL    H42 8948   0.045   5.019   5.610 -0.0010 -0.6154 -0.4828
   74MOL    H43 8949   0.197   5.051   5.692 -1.0446  3.3714  2.4189
   74MOL    C44 8950   0.064   5.223   5.699 -0.0056 -0.0299 -0.0451
   74MOL    C45 8951   7.660   5.179   5.818 -0.1973  0.2366  0.1668
   74MOL    H46 8952   0.147   5.282   5.739  0.2287 -1.1462  1.1342
   74MOL    H47 8953   0.013   5.292   5.632  0.9533  0.7077 -0.0266
   74MOL    H48 8954   7.566   5.140   5.778  0.6221  0.6066 -2.1915
   74MOL    H49 8955   0.008   5.091   5.869 -0.3572 -0.3119 -0.6383
   74MOL    C50 8956   7.633   5.289   5.922  0.2242 -0.1522 -0.6319
   74MOL    C51 8957   7.558   5.224   6.037 -0.4692 -0.2983 -0.4443
   74MOL    H52 8958   0.040   5.317   5.960 -0.8112  1.0094  1.3408
   74MOL    H53 8959   7.582   5.373   5.875  0.6836 -0.1909 -1.1929
   74MOL    H54 8960   7.599   5.129   6.074 -0.6033 -0.6092 -1.0825
   74MOL    H55 8961   7.570   5.288   6.124 -0.7809 -0.1227 -0.5335
   74MOL    C56 8962   7.411   5.201   6.003 -0.3856  0.3463 -0.3041
   74MOL    C57 8963   7.339   5.131   6.116  0.4614 -0.2454 -0.6967
   74MOL    H58 8964   7.381   5.297   5.961  0.8230 -0.1684 -2.3909
   74MOL    H59 8965   7.392   5.127   5.925 -0.2811 -0.9743  0.8936
   74MOL    H60 8966   7.345   5.024   6.100 -1.5343 -0.4024 -0.4965
   74MOL    H61 8967   7.377   5.161   6.214 -1.3382  3.2271 -0.9598
   74MOL    C62 8968   7.192   5.184   6.115 -0.1376  0.1048 -0.4349
   74MOL    C63 8969   7.117   5.168   5.982  0.3817 -0.5567 -0.9815
   74MOL    H64 8970   7.133   5.143   6.197  1.1739 -0.9547 -0.0140
   74MOL    H65 8971   7.194   5.292   6.132  0.0545 -0.0068  0.2497
   74MOL    H66 8972   7.040   5.244   5.988  2.6259  1.7260 -0.2031
   74MOL    H67 8973   7.175   5.199   5.895  1.7504  0.1944  0.1873
   74MOL    C68 8974   7.077   5.020   5.959 -0.5261 -0.1625  0.1322
   74MOL    C69 8975   7.031   5.004   5.818  0.4063 -0.2971  0.3270
   74MOL    H70 8976   7.165   4.960   5.983  1.1539  1.4167 -1.7669
   74MOL    H71 8977   6.998   4.995   6.029 -0.8351 -1.6173 -0.7322
   74MOL    H72 8978   7.109   5.008   5.742 -0.4873  3.9700 -0.4907
   74MOL    H73 8979   7.006   4.899   5.807 -1.1899 -0.2041  2.5835
   74MOL    C74 8980   6.915   5.092   5.783  0.5867 -0.2032  0.0193
   74MOL    C75 8981   6.835   5.029   5.671  0.5156 -0.1634  0.5780
   74MOL    H76 8982   6.849   5.094   5.870 -0.2966  1.7620 -0.6895
   74MOL    H77 8983   6.937   5.196   5.760 -0.1284  0.0556  0.5194
   74MOL    H78 8984   6.913   5.000   5.599 -1.0100 -0.6652 -0.8960
   74MOL    H79 8985   6.798   4.935   5.710  1.3660 -0.2383  1.2254
   74MOL    C80 8986   6.712   5.097   5.607  0.2409  0.2583 -0.4547
   74MOL    C81 8987   6.636   5.016   5.503 -0.6532 -1.0014 -0.4927
   74MOL    H82 8988   6.649   5.117   5.693  0.6856  0.2459 -0.1294
   74MOL    H83 8989   6.732   5.200   5.577 -1.0086  1.2200  1.8898
   74MOL    H84 8990   6.597   4.928   5.554  0.9738 -0.2188  2.2248
   74MOL    H85 8991   6.547   5.073   5.476 -0.6038 -0.2983  0.7745
   74MOL    C86 8992   6.710   4.966   5.374 -0.2448 -0.1927 -0.2836
   74MOL    C87 8993   6.630   4.913   5.257  0.8243 -0.3631  0.5891
   74MOL    H88 8994   6.772   5.051   5.347  1.6742 -1.2523  0.7114
   74MOL    H89 8995   6.789   4.895   5.397 -0.8659 -0.4097  1.2393
   74MOL    H90 8996   6.569   4.826   5.282 -1.8295  0.8829 -1.2639
   74MOL    H91 8997   6.560   4.988   5.220 -0.4990 -1.5611  0.5973
   74MOL    C92 8998   6.718   4.865   5.137  1.0525  0.8799 -0.4045
   74MOL    C93 8999   6.626   4.821   5.022 -1.0664  0.0560  0.9428
   74MOL    H94 9000   6.784   4.944   5.100  0.9465  0.8590 -0.6331
   74MOL    H95 9001   6.786   4.783   5.163 -2.2300 -1.4056  1.2475
   74MOL    H96 9002   6.576   4.727   5.043 -0.2229 -0.8453 -0.9975
   74MOL    H97 9003   6.545   4.894   5.016 -1.0821 -0.0260  0.1934
   74MOL    C98 9004   6.693   4.805   4.891  0.4778  1.2246  1.0340
   74MOL    C99 9005   6.594   4.767   4.777 -0.6849 -0.1394  0.1973
   74MOL   H100 9006   6.740   4.895   4.850  0.7013  0.3821 -0.5786
   74MOL   H101 9007   6.768   4.728   4.906  0.7330  1.2478 -0.0754
   74MOL   H102 9008   6.559   4.665   4.796  1.6857 -1.0877 -0.3331
   74MOL   H103 9009   6.498   4.817   4.790 -0.8603 -0.8794  1.8904
   74MOL   C104 9010   6.635   4.782   4.631 -0.2083  0.4976  1.3002
   74MOL   C105 9011   6.537   4.714   4.537 -0.0461  0.1377 -0.2707
   74MOL   H106 9012   6.636   4.889   4.609 -1.1514  1.1532  4.2392
   74MOL   H107 9013   6.738   4.746   4.621  0.1037  1.7773 -0.5014
   74MOL   H108 9014   6.494   4.621   4.574  2.0494  0.1193  2.2003
   74MOL   H109 9015   6.456   4.784   4.517 -0.1680  0.0107 -0.2126
   74MOL   C110 9016   6.597   4.677   4.399 -0.4424 -0.5507  0.0453
   74MOL   C111 9017   6.500   4.719   4.286  0.2744  0.3319  0.6180
   74MOL   H112 9018   6.688   4.733   4.376 -0.7160 -0.9875 -2.2459
   74MOL   H113 9019   6.624   4.572   4.413 -1.8230 -0.9190 -0.0066
   74MOL   H114 9020   6.482   4.826   4.298  1.2183  0.3697  1.8793
   74MOL   H115 9021   6.547   4.709   4.189  0.2538 -0.2976  0.6683
   74MOL   C116 9022   6.372   4.644   4.282  0.1315 -0.0762  0.4342
   74MOL   C117 9023   6.299   4.659   4.147 -0.1225  0.1132 -0.0090
   74MOL   H118 9024   6.387   4.536   4.290  0.2124 -0.1137 -0.1767
   74MOL   H119 9025   6.307   4.678   4.363  1.6991 -1.8045  2.4692
   74MOL   H120 9026   6.247   4.755   4.157  0.1377  0.2620 -0.0933
   74MOL   H121 9027   6.369   4.656   4.064 -0.5753 -1.9460 -0.3447
   74MOL   H122 9028   6.219   4.585   4.142 -1.0309  1.1292 -0.6339
   75MOL     C1 9029   7.424   5.612   2.121 -0.6383 -0.0190 -0.3028
   75MOL     C2 9030   7.566   5.565   2.167  0.5475  0.0807  0.4454
   75MOL     H3 9031   7.348   5.548   2.167 -0.1521 -0.3445  0.0617
   75MOL     H4 9032   7.418   5.595   2.013  0.6278 -0.6271 -0.2921
   75MOL     H5 9033   7.566   5.534   2.272 -0.2413 -0.1197  0.3898
   75MOL     H6 9034   7.586   5.480   2.101 -2.1262 -2.0040  2.1968
   75MOL     H7 9035   7.406   5.718   2.138  0.5167 -0.0558  1.2414
   75MOL     C8 9036   7.675   5.669   2.154  0.4596  0.2548  0.0178
   75MOL     C9 9037   7.668   5.772   2.269 -0.7645  0.0499 -0.4399
   75MOL    H10 9038   0.078   5.617   2.153  0.5285  0.2229  3.2262
   75MOL    H11 9039   7.653   5.715   2.057  2.3752 -1.2641 -1.1746
   75MOL    H12 9040   7.579   5.836   2.271 -0.7442  0.0791 -0.4634
   75MOL    H13 9041   7.669   5.726   2.368  1.7557  0.5233 -0.2168
   75MOL    C14 9042   0.102   5.866   2.257  0.3917 -0.0323  0.2047
   75MOL    C15 9043   0.118   5.949   2.383 -0.3304 -0.0533 -0.6140
   75MOL    H16 9044   0.195   5.810   2.248 -0.0406 -0.7271  0.0021
   75MOL    H17 9045   0.105   5.930   2.169 -1.0700 -0.6266 -0.2887
   75MOL    H18 9046   0.022   5.995   2.405 -1.6432 -2.3874 -1.3027
   75MOL    H19 9047   0.137   5.891   2.473  1.0973  1.6525  0.2339
   75MOL    C20 9048   0.235   6.047   2.373  0.3022  0.3139 -0.1933
   75MOL    C21 9049   0.262   6.153   2.481 -0.0252  0.9606  0.3328
   75MOL    H22 9050   0.321   5.980   2.379  0.8242  0.9327 -0.6588
   75MOL    H23 9051   0.236   6.077   2.268  1.1456  1.0105  0.0044
   75MOL    H24 9052   0.164   6.200   2.481 -0.7454 -0.5054 -0.3555
   75MOL    H25 9053   0.271   6.107   2.580  0.8174  0.8795  0.2238
   75MOL    C26 9054   0.376   6.244   2.441  0.0100 -0.2382  0.6879
   75MOL    C27 9055   0.402   6.366   2.536  0.4384 -0.1548 -0.2663
   75MOL    H28 9056   0.469   6.188   2.439  0.0147 -0.3657 -5.1476
   75MOL    H29 9057   0.367   6.284   2.339  0.2306  1.3618  1.2716
   75MOL    H30 9058   0.476   6.430   2.489  1.5766 -0.3970  1.1706
   75MOL    H31 9059   0.312   6.427   2.543 -0.1864 -1.1524  0.5935
   75MOL    C32 9060   0.437   6.321   2.681 -0.0483  0.3219  0.3321
   75MOL    C33 9061   0.461   6.443   2.766 -0.5279  0.0554 -0.2975
   75MOL    H34 9062   0.371   6.250   2.731 -0.3776  1.3863  1.4248
   75MOL    H35 9063   0.523   6.253   2.681  0.6604  1.2045  1.3879
   75MOL    H36 9064   0.543   6.496   2.717  0.0935  0.4103  1.0881
   75MOL    H37 9065   0.371   6.505   2.772 -1.4671 -1.0479 -2.4432
   75MOL    C38 9066   0.506   6.409   2.912 -0.1399 -0.2750  0.6271
   75MOL    C39 9067   0.555   6.535   2.990  0.3766  0.0820 -0.6948
   75MOL    H40 9068   0.422   6.356   2.957  0.1376 -1.6905 -0.4939
   75MOL    H41 9069   0.588   6.337   2.915  0.5680  0.5297  0.8801
   75MOL    H42 9070   0.651   6.567   2.951  1.6280  0.3847  2.4847
   75MOL    H43 9071   0.487   6.620   2.980  0.5849  0.1728 -1.3124
   75MOL    C44 9072   0.563   6.501   3.143  0.8024  0.1814  0.3035
   75MOL    C45 9073   0.638   6.613   3.221  0.5972  0.1853 -0.3663
   75MOL    H46 9074   0.464   6.489   3.187  0.3026  0.4285 -0.7411
   75MOL    H47 9075   0.615   6.407   3.161 -0.2133 -0.2918  0.7493
   75MOL    H48 9076   0.731   6.618   3.165 -0.9384  0.8610 -2.9388
   75MOL    H49 9077   0.598   6.714   3.211  1.8191  0.9514  1.9758
   75MOL    C50 9078   0.656   6.576   3.368  0.1470 -0.3218 -0.1857
   75MOL    C51 9079   0.641   6.702   3.446  0.8839 -0.1337 -0.0419
   75MOL    H52 9080   0.589   6.495   3.395 -0.4796  0.6452  1.2091
   75MOL    H53 9081   0.757   6.547   3.397 -0.5345 -1.7764  0.7614
   75MOL    H54 9082   0.700   6.786   3.408 -1.3598  0.5366 -2.2051
   75MOL    H55 9083   0.534   6.720   3.435  0.9714  1.1509  1.1027
   75MOL    C56 9084   0.667   6.687   3.599 -0.1441  0.0513 -0.6865
   75MOL    C57 9085   0.641   6.814   3.676  0.6050  0.2388 -0.1686
   75MOL    H58 9086   0.619   6.598   3.641  0.0348  0.8746  1.3255
   75MOL    H59 9087   0.773   6.663   3.607  0.6333  2.8625 -1.9489
   75MOL    H60 9088   0.698   6.887   3.618  2.3026 -1.3893 -0.6190
   75MOL    H61 9089   0.535   6.832   3.691  1.1532  1.1756  2.9758
   75MOL    C62 9090   0.700   6.817   3.822 -0.5042 -0.0677 -0.4289
   75MOL    C63 9091   0.677   6.958   3.877 -0.0992 -0.2713  0.1848
   75MOL    H64 9092   0.661   6.738   3.885 -1.7399  0.3619 -0.6496
   75MOL    H65 9093   0.809   6.813   3.817 -0.5893 -2.0558 -0.7768
   75MOL    H66 9094   0.729   7.030   3.814 -1.5773  1.1282  0.5391
   75MOL    H67 9095   0.570   6.974   3.866 -0.1301 -0.6614 -0.1006
   75MOL    C68 9096   0.724   6.986   4.016 -0.2183  0.0282 -0.5840
   75MOL    C69 9097   0.661   7.102   4.090  0.4796  0.1216 -0.5836
   75MOL    H70 9098   0.699   6.900   4.077 -0.0396  0.7648  0.5497
   75MOL    H71 9099   0.833   6.985   4.018 -0.1958 -1.8543 -1.5658
   75MOL    H72 9100   0.680   7.194   4.034 -2.1794  1.6640  0.9292
   75MOL    H73 9101   0.554   7.086   4.090  0.1034  2.3110  1.8736
   75MOL    C74 9102   0.706   7.091   4.239 -0.0997 -0.3963 -0.7479
   75MOL    C75 9103   0.652   7.213   4.309 -0.0422 -0.7181 -0.2545
   75MOL    H76 9104   0.677   7.003   4.296  1.0492  0.1496  0.7344
   75MOL    H77 9105   0.815   7.091   4.242 -0.1137 -1.5430 -0.0461
   75MOL    H78 9106   0.705   7.307   4.290  1.8305 -1.6695  0.0947
   75MOL    H79 9107   0.547   7.227   4.283  0.2860 -2.4475 -2.7238
   75MOL    C80 9108   0.656   7.195   4.465  0.2558  0.1708  0.6598
   75MOL    C81 9109   0.621   7.315   4.558  0.2406  0.0230  0.0375
   75MOL    H82 9110   0.597   7.107   4.490 -1.5385  1.4551  1.0252
   75MOL    H83 9111   0.756   7.162   4.493 -0.6505 -3.4687 -0.1480
   75MOL    H84 9112   0.683   7.402   4.532  0.7388  0.1757  1.7038
   75MOL    H85 9113   0.518   7.347   4.541  0.6950  0.4775 -2.0373
   75MOL    C86 9114   0.635   7.278   4.710  0.0929  0.5116  0.7546
   75MOL    C87 9115   0.589   7.396   4.799 -0.5134  0.3014  0.1086
   75MOL    H88 9116   0.569   7.191   4.717  0.2444  0.3912  0.7124
   75MOL    H89 9117   0.740   7.266   4.738  0.2717 -0.6336 -0.3463
   75MOL    H90 9118   0.649   7.482   4.768  0.0463 -0.1207  0.0189
   75MOL    H91 9119   0.490   7.424   4.762  0.6504  0.0696 -3.2972
   75MOL    C92 9120   0.612   7.362   4.948 -0.2562 -0.3204 -0.1571
   75MOL    C93 9121   0.608   7.475   5.056  0.0183  0.0588  0.2905
   75MOL    H94 9122   0.533   7.291   4.969 -2.1231  2.0528  1.0896
   75MOL    H95 9123   0.714   7.324   4.956  0.2716  0.4672 -2.6336
   75MOL    H96 9124   0.686   7.547   5.028  0.8337  0.2206  2.8438
   75MOL    H97 9125   0.509   7.520   5.047 -0.5728 -1.1205  0.7958
   75MOL    C98 9126   0.630   7.426   5.206  0.8387 -0.2995  0.0277
   75MOL    C99 9127   0.593   7.545   5.296  0.2724  0.3401  0.6153
   75MOL   H100 9128   0.572   7.334   5.214 -0.4777  0.3772 -1.2947
   75MOL   H101 9129   0.734   7.401   5.227  1.0166  0.4186  0.0102
   75MOL   H102 9130   0.660   7.627   5.275  1.5541  0.0950  3.4483
   75MOL   H103 9131   0.495   7.589   5.281  1.3838  2.1080 -1.6094
   75MOL   C104 9132   0.620   7.502   5.449 -0.2677  0.6659 -0.5840
   75MOL   C105 9133   0.661   7.625   5.536  0.1930  0.7408 -0.0635
   75MOL   H106 9134   0.534   7.447   5.487  0.6171 -2.1277 -2.4612
   75MOL   H107 9135   0.704   7.433   5.455 -0.2092  0.9036  2.0640
   75MOL   H108 9136   0.763   7.654   5.509 -0.0424  1.6444  0.0018
   75MOL   H109 9137   0.600   0.022   5.524  0.2215  0.6779 -0.7204
   75MOL   C110 9138   0.667   7.603   5.690  0.3183 -0.3048  0.0123
   75MOL   C111 9139   0.708   0.030   5.774 -0.3128 -0.1125  0.1294
   75MOL   H112 9140   0.570   7.565   5.722 -0.1938  1.5735  0.7659
   75MOL   H113 9141   0.733   7.519   5.708  0.5426 -0.5024 -1.6349
   75MOL   H114 9142   0.811   0.057   5.752  0.2586 -1.8169  0.6535
   75MOL   H115 9143   0.645   0.111   5.737  0.6357  1.8606  2.7210
   75MOL   C116 9144   0.686   0.015   5.921  1.6934 -0.1977 -0.1522
   75MOL   C117 9145   0.703   0.144   5.998  0.1469  0.4782  0.6096
   75MOL   H118 9146   0.584   7.671   5.933  1.6719  0.0332  0.3679
   75MOL   H119 9147   0.749   7.629   5.963 -1.6283 -3.0145 -0.1891
   75MOL   H120 9148   0.636   0.226   5.976 -0.1416  0.3354  0.9655
   75MOL   H121 9149   0.680   0.120   6.101  0.6300 -0.1605  0.5750
   75MOL   H122 9150   0.807   0.177   5.989  0.2727  0.1131  0.6876
   76MOL     C1 9151   7.222   5.622   6.764 -0.8952  0.1448 -0.2872
   76MOL     C2 9152   7.202   5.560   6.901  0.5394 -0.0219 -0.3555
   76MOL     H3 9153   7.129   5.647   6.714 -0.9242 -0.4373 -0.5276
   76MOL     H4 9154   7.290   5.558   6.707 -0.8769  0.6067 -0.7832
   76MOL     H5 9155   7.182   5.453   6.893 -1.9215  0.3863  0.0383
   76MOL     H6 9156   7.286   5.576   6.969 -0.8240 -2.0982  1.8725
   76MOL     H7 9157   7.277   5.715   6.776  1.4580 -0.9288 -2.1745
   76MOL     C8 9158   7.093   5.638   6.978  0.1235  0.4364 -0.1755
   76MOL     C9 9159   7.034   5.580   7.099 -0.4801 -0.0607 -0.8321
   76MOL    H10 9160   7.136   5.731   7.014 -1.8491  0.6493  1.7233
   76MOL    H11 9161   7.015   5.680   6.915 -0.0305  2.7180  1.5089
   76MOL    H12 9162   7.098   5.607   7.184 -0.7430  0.5176 -0.8153
   76MOL    H13 9163   6.955   5.653   7.113 -0.2438  0.1353 -0.5011
   76MOL    C14 9164   6.989   5.435   7.112 -0.0636  0.1639  0.1831
   76MOL    C15 9165   6.871   5.382   7.026  0.2396  0.5217 -0.2193
   76MOL    H16 9166   7.076   5.372   7.095  0.6736  1.5039 -1.0736
   76MOL    H17 9167   6.967   5.409   7.216  0.6430  1.0607  0.5578
   76MOL    H18 9168   6.873   5.403   6.919 -0.4990  0.1830 -0.3058
   76MOL    H19 9169   6.862   5.274   7.039  2.7628 -0.0747 -2.9634
   76MOL    C20 9170   6.735   5.436   7.077 -0.2149  0.1382  0.1718
   76MOL    C21 9171   6.687   5.379   7.205 -0.2123 -0.1041 -0.4579
   76MOL    H22 9172   6.735   5.545   7.087 -2.8061  0.1838  0.2400
   76MOL    H23 9173   6.659   5.403   7.006 -0.2065 -1.7776  1.0275
   76MOL    H24 9174   6.691   5.272   7.182  1.3637 -0.3630  0.9526
   76MOL    H25 9175   6.760   5.391   7.285 -0.0869 -2.1976 -0.2298
   76MOL    C26 9176   6.552   5.435   7.259 -0.6091  0.3531  0.4397
   76MOL    C27 9177   6.449   5.330   7.289  0.2783 -0.3274  0.5471
   76MOL    H28 9178   6.576   5.487   7.352  0.9091  0.8651 -0.2114
   76MOL    H29 9179   6.512   5.504   7.184 -0.4890  1.0986  1.0534
   76MOL    H30 9180   6.414   5.278   7.200  0.5532  0.5560 -0.0914
   76MOL    H31 9181   6.497   5.249   7.344  0.2028 -0.0661  1.0021
   76MOL    C32 9182   6.319   5.366   7.369 -0.2034 -0.8246 -0.1987
   76MOL    C33 9183   6.260   5.501   7.325  0.2108 -0.5513 -0.0976
   76MOL    H34 9184   6.243   5.288   7.364 -2.9128  1.7856 -1.1826
   76MOL    H35 9185   6.342   5.375   7.476 -2.7841 -0.6864  0.3811
   76MOL    H36 9186   6.281   5.524   7.221 -0.1827 -0.1856 -0.0993
   76MOL    H37 9187   6.153   5.490   7.344  0.4459 -2.8567  0.0117
   76MOL    C38 9188   6.313   5.622   7.400 -0.0603 -0.1164 -0.8399
   76MOL    C39 9189   6.247   5.753   7.356 -0.5463 -0.5962  0.4614
   76MOL    H40 9190   6.281   5.601   7.503  0.5455  1.3994 -0.3392
   76MOL    H41 9191   6.422   5.622   7.399 -0.0597 -0.5048 -1.0902
   76MOL    H42 9192   6.258   5.761   7.248  0.0725  0.7786  0.6268
   76MOL    H43 9193   6.141   5.752   7.384 -0.5458  3.1940  0.8834
   76MOL    C44 9194   6.302   5.874   7.434  0.0944  0.6295 -0.0937
   76MOL    C45 9195   6.230   6.002   7.389  0.2397 -0.1355  0.1570
   76MOL    H46 9196   6.298   5.850   7.540 -0.1748 -1.6189 -0.5916
   76MOL    H47 9197   6.408   5.877   7.408  0.3479  0.6583  0.9027
   76MOL    H48 9198   6.248   6.023   7.284 -0.3209  0.8267  0.2521
   76MOL    H49 9199   6.123   5.988   7.405 -0.2366  0.7540 -2.1049
   76MOL    C50 9200   6.267   6.130   7.462  0.1436 -0.9603 -0.1975
   76MOL    C51 9201   6.168   6.246   7.446 -0.2298 -0.0143  0.4471
   76MOL    H52 9202   6.275   6.102   7.567 -0.2575 -1.8253 -0.3919
   76MOL    H53 9203   6.366   6.154   7.423  0.6846  0.0089  1.7272
   76MOL    H54 9204   6.160   6.269   7.340  0.6738 -0.5435  0.2602
   76MOL    H55 9205   6.072   6.217   7.488 -0.1332 -0.2154  0.5308
   76MOL    C56 9206   6.209   6.380   7.515  0.5294  0.0131  0.3297
   76MOL    C57 9207   6.339   6.447   7.468 -0.0708 -0.0071 -0.1806
   76MOL    H58 9208   6.128   6.450   7.499  0.3652  0.5641  3.1733
   76MOL    H59 9209   6.206   6.362   7.623 -3.1818  1.2188  0.4875
   76MOL    H60 9210   6.408   6.363   7.460  0.8436  0.6394  0.7942
   76MOL    H61 9211   6.326   6.463   7.361 -0.5079  2.1630  0.1903
   76MOL    C62 9212   6.378   6.580   7.538  0.6866 -0.1945  0.5627
   76MOL    C63 9213   6.519   6.633   7.509 -0.0257  0.2155 -0.5226
   76MOL    H64 9214   6.297   6.652   7.522 -1.7291 -3.1341 -1.1414
   76MOL    H65 9215   6.374   6.566   7.646 -2.3063 -2.4711  0.2248
   76MOL    H66 9216   6.529   6.711   7.584  0.7446 -1.8811  1.6065
   76MOL    H67 9217   6.598   6.563   7.537 -2.4235 -1.6682  1.7209
   76MOL    C68 9218   6.536   6.691   7.371 -0.2447 -0.1256  0.1253
   76MOL    C69 9219   6.670   6.766   7.342 -0.6197 -0.4612 -1.2439
   76MOL    H70 9220   6.524   6.605   7.304  2.5926 -1.7710  1.6167
   76MOL    H71 9221   6.456   6.761   7.349  1.7401  1.2410 -3.2232
   76MOL    H72 9222   6.684   6.852   7.408  0.7656 -1.4093 -0.2742
   76MOL    H73 9223   6.744   6.698   7.384 -1.3900 -0.2020  0.6126
   76MOL    C74 9224   6.686   6.790   7.195  0.0921  0.6907  0.4701
   76MOL    C75 9225   6.802   6.877   7.159 -0.0568 -0.5235 -0.4706
   76MOL    H76 9226   6.710   6.690   7.160 -0.4597  0.4172  0.8817
   76MOL    H77 9227   6.591   6.812   7.147  1.3165 -0.0352 -2.3948
   76MOL    H78 9228   6.777   6.978   7.191 -0.8806 -0.4761 -1.2362
   76MOL    H79 9229   6.886   6.838   7.216  1.6016  1.0887 -1.7624
   76MOL    C80 9230   6.838   6.876   7.008 -0.9266 -0.4035  0.4169
   76MOL    C81 9231   6.947   6.974   6.965  0.1615  0.1468  1.1889
   76MOL    H82 9232   6.864   6.775   6.978 -0.4489  0.2910 -1.6272
   76MOL    H83 9233   6.748   6.902   6.953 -0.0877 -1.7612 -1.6591
   76MOL    H84 9234   6.946   6.996   6.859  3.8809 -2.0451  0.6008
   76MOL    H85 9235   6.936   7.072   7.010  0.7837  1.3946 -1.3063
   76MOL    C86 9236   7.089   6.923   6.991 -0.6679 -0.0784  0.1134
   76MOL    C87 9237   7.191   7.040   6.998  0.4991  0.2619  0.0041
   76MOL    H88 9238   7.083   6.886   7.093 -2.3015 -0.0107  0.0655
   76MOL    H89 9239   7.125   6.838   6.934  2.3824  1.5032 -0.4070
   76MOL    H90 9240   7.195   7.108   6.913 -1.5845  2.7006  1.7505
   76MOL    H91 9241   7.158   7.106   7.079 -1.0245  2.0697 -2.0148
   76MOL    C92 9242   7.341   6.997   7.030 -0.1394  0.1550 -0.6833
   76MOL    C93 9243   7.447   7.105   7.061  0.6893  0.3130 -0.3271
   76MOL    H94 9244   7.347   6.918   7.105 -1.0744 -0.8663 -1.6592
   76MOL    H95 9245   7.367   6.934   6.945  0.5285  0.8388 -0.9916
   76MOL    H96 9246   7.471   7.154   6.967 -4.7936  0.7377 -1.6985
   76MOL    H97 9247   7.407   7.184   7.125  3.0682  0.5540  0.9105
   76MOL    C98 9248   7.571   7.042   7.121  1.0440 -0.3001 -0.1470
   76MOL    C99 9249   0.004   7.131   7.115  0.2201  0.0793 -0.2521
   76MOL   H100 9250   7.552   6.997   7.218  1.7224 -1.0832 -0.3774
   76MOL   H101 9251   7.589   6.957   7.056  2.7636  0.5582 -0.8400
   76MOL   H102 9252   0.038   7.147   7.013  0.6291 -0.7772 -0.2453
   76MOL   H103 9253   7.667   7.229   7.155 -0.5555 -0.3703  0.3121
   76MOL   C104 9254   0.122   7.077   7.189 -1.0571 -1.4413 -0.0294
   76MOL   C105 9255   0.220   7.191   7.251 -0.1208  0.1293 -0.3217
   76MOL   H106 9256   0.087   7.021   7.276  0.7457 -1.2066  0.8729
   76MOL   H107 9257   0.180   7.000   7.138  0.9769  0.4042 -0.6249
   76MOL   H108 9258   0.175   7.271   7.310 -0.2803 -0.5545  0.4934
   76MOL   H109 9259   0.287   7.143   7.322 -0.0757 -0.5520 -0.8274
   76MOL   C110 9260   0.299   7.265   7.134  0.2963 -0.8867  0.3478
   76MOL   C111 9261   0.373   7.400   7.162 -0.4306 -0.6155 -0.2011
   76MOL   H112 9262   0.373   7.198   7.090 -0.7273 -0.5472 -2.0097
   76MOL   H113 9263   0.231   7.285   7.050 -1.1173  3.4526  2.3662
   76MOL   H114 9264   0.447   7.426   7.086  1.4725 -2.1640  1.0754
   76MOL   H115 9265   0.290   7.470   7.163 -0.2335 -0.3668 -0.8371
   76MOL   C116 9266   0.440   7.407   7.296 -0.5224 -0.6256  0.3312
   76MOL   C117 9267   0.568   7.323   7.290  0.3561  0.1655 -0.2882
   76MOL   H118 9268   0.474   7.508   7.322 -0.6331 -0.1379 -1.3385
   76MOL   H119 9269   0.365   7.392   7.374 -0.3929 -0.4374  0.4940
   76MOL   H120 9270   0.600   7.306   7.393  2.0492  0.2243 -0.7849
   76MOL   H121 9271   0.548   7.224   7.248  0.4667 -0.4550  1.1137
   76MOL   H122 9272   0.644   7.361   7.222 -0.2930  0.8335 -0.6543
   77MOL     C1 9273   7.158   1.957   5.908 -0.0401  0.0558 -0.0500
   77MOL     C2 9274   7.038   1.857   5.913 -0.1224 -0.2533  0.1359
   77MOL     H3 9275   7.200   1.966   6.008  2.8179 -0.9766 -1.1021
   77MOL     H4 9276   7.120   2.056   5.880  0.0284  0.1408  0.1538
   77MOL     H5 9277   6.964   1.900   5.980  0.5936  1.3432 -0.0669
   77MOL     H6 9278   6.999   1.852   5.811  1.0799 -1.9960 -0.2558
   77MOL     H7 9279   7.231   1.932   5.831 -0.0247  2.0169 -0.7008
   77MOL     C8 9280   7.074   1.717   5.951 -0.7843 -0.3626  0.3092
   77MOL     C9 9281   7.176   1.693   6.066 -0.0377  0.4500  0.0706
   77MOL    H10 9282   6.978   1.665   5.955 -0.9741  0.0299  0.9900
   77MOL    H11 9283   7.122   1.665   5.869  0.6717  2.1157 -0.4482
   77MOL    H12 9284   7.273   1.724   6.027  0.1974 -0.2780  0.0767
   77MOL    H13 9285   7.153   1.767   6.143  0.2577  0.3238  0.2797
   77MOL    C14 9286   7.185   1.549   6.115  0.1790  0.1990 -0.2278
   77MOL    C15 9287   7.226   1.447   6.011  0.2199 -0.1635  0.2582
   77MOL    H16 9288   7.253   1.542   6.201 -2.7822 -1.3614  2.0510
   77MOL    H17 9289   7.088   1.519   6.152  1.1319 -1.5595  0.9170
   77MOL    H18 9290   7.161   1.442   5.924  1.5652  2.0944 -0.9208
   77MOL    H19 9291   7.317   1.479   5.959  0.0468 -0.7663 -0.4267
   77MOL    C20 9292   7.249   1.312   6.080 -0.0173  0.7236  0.3088
   77MOL    C21 9293   7.329   1.218   5.989  0.1872  0.1180 -0.5096
   77MOL    H22 9294   7.304   1.315   6.174 -1.0037 -0.0440  0.9246
   77MOL    H23 9295   7.147   1.277   6.099 -1.2658  3.6168 -0.8129
   77MOL    H24 9296   7.297   1.117   6.017 -0.0616  0.8354  1.8367
   77MOL    H25 9297   7.305   1.223   5.883  2.6178  0.9130 -1.0591
   77MOL    C26 9298   7.479   1.236   5.990 -0.1721  0.0492 -0.1659
   77MOL    C27 9299   7.552   1.210   5.856  0.1666  0.6161  0.1313
   77MOL    H28 9300   7.508   1.337   6.020  0.4800 -0.5129  1.1082
   77MOL    H29 9301   7.524   1.178   6.070  0.8738  1.5185  0.3352
   77MOL    H30 9302   7.534   1.109   5.818 -0.8226  0.8122  0.0562
   77MOL    H31 9303   7.497   1.265   5.780  1.8003  1.0181 -0.7748
   77MOL    C32 9304   0.016   1.242   5.857  0.0256  0.4124 -0.2031
   77MOL    C33 9305   0.076   1.235   5.716  0.5006  0.0451 -0.2068
   77MOL    H34 9306   0.020   1.342   5.900 -1.7755 -0.1907  1.4381
   77MOL    H35 9307   0.069   1.184   5.933  0.0043  0.1050 -0.4248
   77MOL    H36 9308   0.094   1.131   5.689  1.0016 -0.3990  1.7873
   77MOL    H37 9309   0.010   1.280   5.642 -0.9377  0.9500  1.5939
   77MOL    C38 9310   0.203   1.318   5.714  0.3928  0.7449  0.5337
   77MOL    C39 9311   0.264   1.337   5.574 -0.0984  0.6749  0.5247
   77MOL    H40 9312   0.204   1.414   5.765 -0.2647  0.5490  0.9262
   77MOL    H41 9313   0.257   1.249   5.779 -1.1362  0.3544  1.4321
   77MOL    H42 9314   0.280   1.242   5.524  3.1819  2.1153 -1.3494
   77MOL    H43 9315   0.200   1.399   5.510 -0.0595 -0.4800 -0.6666
   77MOL    C44 9316   0.399   1.407   5.580 -0.0891  0.0488  0.5876
   77MOL    C45 9317   0.456   1.441   5.437  0.0529 -0.4322  0.0294
   77MOL    H46 9318   0.378   1.502   5.630  0.4233  1.3741 -1.6054
   77MOL    H47 9319   0.467   1.345   5.637  1.4438  1.0470 -0.1187
   77MOL    H48 9320   0.489   1.352   5.384  0.8602 -0.2524  0.2131
   77MOL    H49 9321   0.378   1.493   5.382 -1.0773  0.3315  2.2805
   77MOL    C50 9322   0.580   1.533   5.450  0.2499 -0.0859  0.0668
   77MOL    C51 9323   0.643   1.561   5.319 -0.6089 -0.0538 -1.1757
   77MOL    H52 9324   0.550   1.633   5.484 -1.2841 -1.0715  1.6977
   77MOL    H53 9325   0.649   1.486   5.519  0.3161 -0.6954 -0.4149
   77MOL    H54 9326   0.644   1.469   5.260 -1.0199  0.8655 -2.6387
   77MOL    H55 9327   0.591   1.636   5.259  0.1265  0.1412 -1.5830
   77MOL    C56 9328   0.785   1.614   5.324 -0.4127  0.6576 -0.2635
   77MOL    C57 9329   0.835   1.660   5.191 -0.2235  0.2364  0.2296
   77MOL    H58 9330   0.786   1.699   5.392  0.4693  0.3145  0.1611
   77MOL    H59 9331   0.854   1.544   5.371 -1.1197 -0.0147 -0.2078
   77MOL    H60 9332   0.859   1.578   5.122 -0.9082  0.1416  0.0961
   77MOL    H61 9333   0.759   1.724   5.147 -1.7236 -1.0469  0.9291
   77MOL    C62 9334   0.974   1.720   5.202 -0.4777  0.3178  0.4260
   77MOL    C63 9335   1.017   1.763   5.062  0.3133 -0.9591 -0.2475
   77MOL    H64 9336   0.977   1.808   5.266  1.7305  1.0449 -0.6179
   77MOL    H65 9337   1.053   1.655   5.239 -0.9353  0.3844  1.5186
   77MOL    H66 9338   1.013   1.680   4.991  0.3931 -1.5303  0.4098
   77MOL    H67 9339   0.943   1.833   5.024  0.4832 -0.4892  0.2944
   77MOL    C68 9340   1.141   1.836   5.030  0.1233 -0.3579  0.3531
   77MOL    C69 9341   1.193   1.821   4.886 -0.2391 -1.0173  0.4296
   77MOL    H70 9342   1.125   1.942   5.051 -2.1306 -0.2177 -1.9071
   77MOL    H71 9343   1.222   1.810   5.100  0.3313 -1.7935 -0.3883
   77MOL    H72 9344   1.226   1.718   4.870  0.7105 -0.8558  1.3059
   77MOL    H73 9345   1.117   1.836   4.810 -0.3728 -0.1074  0.7391
   77MOL    C74 9346   1.316   1.921   4.867  0.1316  0.1258 -0.3672
   77MOL    C75 9347   1.410   1.922   4.742  0.1942  0.0882  0.3040
   77MOL    H76 9348   1.278   2.023   4.873  1.7535  0.6903  0.5138
   77MOL    H77 9349   1.379   1.915   4.956  0.1092  0.1743 -0.3481
   77MOL    H78 9350   1.451   1.825   4.714 -0.8937 -0.3356  0.1455
   77MOL    H79 9351   1.342   1.942   4.659  1.2787  0.5902 -0.4767
   77MOL    C80 9352   1.519   2.029   4.753  0.2878  0.4132  0.2035
   77MOL    C81 9353   1.596   2.061   4.620  0.6132  0.4156 -0.0568
   77MOL    H82 9354   1.470   2.123   4.778 -0.2917  0.1697 -0.0250
   77MOL    H83 9355   1.590   1.994   4.827  3.6782  2.4130 -1.9465
   77MOL    H84 9356   1.626   1.967   4.572 -0.4719 -1.1212  2.2115
   77MOL    H85 9357   1.533   2.113   4.548 -0.4551 -0.1526  0.4616
   77MOL    C86 9358   1.721   2.152   4.634 -0.1213  0.2034 -0.8895
   77MOL    C87 9359   1.799   2.164   4.508 -0.1520 -0.2328 -0.1795
   77MOL    H88 9360   1.700   2.251   4.674 -1.4982 -0.5550  0.2908
   77MOL    H89 9361   1.792   2.108   4.704  1.1662  3.0097 -0.3678
   77MOL    H90 9362   1.825   2.065   4.471 -0.2729 -0.9305  1.5434
   77MOL    H91 9363   1.745   2.208   4.424  1.8081  1.3878 -0.6467
   77MOL    C92 9364   1.929   2.246   4.525  0.1643  0.2084  0.4362
   77MOL    C93 9365   1.978   2.312   4.389  0.2533  0.3690 -0.4108
   77MOL    H94 9366   1.902   2.329   4.591 -0.4590 -0.3038  0.8317
   77MOL    H95 9367   2.007   2.181   4.565  1.1695  0.3573 -1.2240
   77MOL    H96 9368   2.008   2.230   4.325 -0.5901  0.5891 -1.0992
   77MOL    H97 9369   1.894   2.369   4.348  0.8578  1.5923  0.0160
   77MOL    C98 9370   2.106   2.399   4.394  0.0703  0.1331  0.3041
   77MOL    C99 9371   2.156   2.461   4.265 -0.2850  0.0027  0.1529
   77MOL   H100 9372   2.079   2.477   4.466 -2.2573 -0.2639 -0.0904
   77MOL   H101 9373   2.193   2.347   4.433  1.8345  3.2638  0.7316
   77MOL   H102 9374   2.187   2.383   4.196 -0.2342 -0.9310  1.2081
   77MOL   H103 9375   2.074   2.512   4.214  0.6872  1.5478  0.0858
   77MOL   C104 9376   2.278   2.545   4.284 -0.3612  0.0052 -0.3535
   77MOL   C105 9377   2.326   2.610   4.165 -0.7359 -0.2481  0.1221
   77MOL   H106 9378   2.260   2.617   4.364 -0.5640  0.3149 -0.6781
   77MOL   H107 9379   2.355   2.475   4.315 -0.7161 -0.7283 -1.0926
   77MOL   H108 9380   2.427   2.643   4.190  0.3393 -2.7874 -0.7065
   77MOL   H109 9381   2.343   2.540   4.083 -0.9557 -0.8678  0.6016
   77MOL   C110 9382   2.233   2.717   4.109  0.6290  0.2960  0.0139
   77MOL   C111 9383   2.301   2.810   4.009  0.0213  0.2563  0.2002
   77MOL   H112 9384   2.146   2.669   4.064  0.7768  0.1980 -0.1657
   77MOL   H113 9385   2.208   2.780   4.195 -1.1393 -0.3850  0.0232
   77MOL   H114 9386   2.389   2.864   4.044 -0.4111  0.3915  1.0726
   77MOL   H115 9387   2.339   2.735   3.939  0.8049  0.5885  0.2669
   77MOL   C116 9388   2.220   2.912   3.928  0.4167 -0.2600  0.0117
   77MOL   C117 9389   2.185   3.030   4.018 -0.1018 -0.1281 -0.0350
   77MOL   H118 9390   2.270   2.949   3.839  0.8220  0.6074  0.5961
   77MOL   H119 9391   2.129   2.864   3.891 -0.0691 -0.8080  1.8272
   77MOL   H120 9392   2.116   3.090   3.958  1.0922  1.2228 -0.0808
   77MOL   H121 9393   2.125   3.014   4.108 -0.7971  1.2284 -0.2411
   77MOL   H122 9394   2.275   3.084   4.047 -0.0857 -0.9598  1.5201
   78MOL     C1 9395   5.513   6.994   1.362  0.3978  0.2520 -0.2897
   78MOL     C2 9396   5.366   7.008   1.402 -0.2243 -0.5465 -0.2401
   78MOL     H3 9397   5.528   6.983   1.255  2.6671  2.3669 -0.2245
   78MOL     H4 9398   5.563   6.913   1.416  1.1048  0.4206 -0.6854
   78MOL     H5 9399   5.323   7.100   1.361 -0.7856 -0.6161  0.1809
   78MOL     H6 9400   5.317   6.926   1.349  0.0690 -1.3631  0.7430
   78MOL     H7 9401   5.569   7.083   1.389  1.1049  0.1829 -1.4967
   78MOL     C8 9402   5.354   7.007   1.556  0.3130 -0.0416 -0.3306
   78MOL     C9 9403   5.366   7.140   1.622 -0.1425  0.2907 -0.4852
   78MOL    H10 9404   5.254   6.972   1.583  0.4499 -0.1236  0.0728
   78MOL    H11 9405   5.425   6.936   1.598 -0.2293 -1.4946 -1.8030
   78MOL    H12 9406   5.463   7.184   1.601 -0.0496 -0.0605 -0.7969
   78MOL    H13 9407   5.292   7.209   1.583 -0.3575 -0.0769 -0.7371
   78MOL    C14 9408   5.351   7.127   1.781  0.0290  0.4138  0.0490
   78MOL    C15 9409   5.393   7.245   1.867 -0.2965  1.0155  0.1179
   78MOL    H16 9410   5.250   7.089   1.799  0.4134 -1.1055 -0.8487
   78MOL    H17 9411   5.419   7.047   1.811  1.4386  1.8540  0.7056
   78MOL    H18 9412   5.499   7.265   1.849 -0.0157  0.2824  0.9409
   78MOL    H19 9413   5.340   7.335   1.834  0.2530  0.9221 -1.0685
   78MOL    C20 9414   5.367   7.224   2.019  0.0836 -0.4344 -0.0534
   78MOL    C21 9415   5.410   7.336   2.109 -0.6894 -0.4541 -0.3209
   78MOL    H22 9416   5.259   7.219   2.016  0.1217 -0.8035 -1.2131
   78MOL    H23 9417   5.410   7.129   2.052 -2.2184 -0.9613  1.5483
   78MOL    H24 9418   5.516   7.360   2.110 -1.2901  2.4004  0.7956
   78MOL    H25 9419   5.378   7.434   2.075  2.2251  1.2667  1.6562
   78MOL    C26 9420   5.354   7.313   2.252  0.1102  0.2062 -0.2053
   78MOL    C27 9421   5.384   7.432   2.349  0.4500  0.0403  0.2312
   78MOL    H28 9422   5.249   7.287   2.244  0.1202  0.0282  0.2414
   78MOL    H29 9423   5.401   7.226   2.296 -0.4756 -0.0812 -0.1449
   78MOL    H30 9424   5.485   7.432   2.390 -0.0358 -1.9448  1.5018
   78MOL    H31 9425   5.377   7.523   2.291  0.9323  1.1142  1.8241
   78MOL    C32 9426   5.286   7.447   2.470  0.1062 -0.0715 -0.1676
   78MOL    C33 9427   5.284   7.590   2.537  0.2534  0.3011  0.6622
   78MOL    H34 9428   5.186   7.414   2.441  0.4271 -2.7522  1.6426
   78MOL    H35 9429   5.322   7.373   2.541 -0.9764  1.2683  1.8362
   78MOL    H36 9430   5.385   7.626   2.520  0.3883  1.1394  3.0321
   78MOL    H37 9431   5.218   7.654   2.479  0.1000 -1.0149 -0.6466
   78MOL    C38 9432   5.250   7.596   2.689 -0.0619 -0.2302 -0.0848
   78MOL    C39 9433   5.260   0.048   2.735 -0.6868  0.5584 -0.5285
   78MOL    H40 9434   5.150   7.553   2.693 -0.2149  0.1185 -0.1638
   78MOL    H41 9435   5.318   7.535   2.748  1.0578  0.9334 -0.1475
   78MOL    H42 9436   5.363   0.082   2.722 -1.0344  1.9305  0.2031
   78MOL    H43 9437   5.193   0.106   2.671 -0.9842  0.2722 -0.4791
   78MOL    C44 9438   5.202   0.058   2.878  0.0990 -0.2013 -0.4302
   78MOL    C45 9439   5.203   0.196   2.931  0.1541 -0.4347  0.4112
   78MOL    H46 9440   5.100   0.022   2.884  0.7946 -2.0561  0.6587
   78MOL    H47 9441   5.268   7.688   2.939  1.0922  0.0224 -1.2452
   78MOL    H48 9442   5.306   0.233   2.940 -0.2172  1.1421 -1.5405
   78MOL    H49 9443   5.159   0.266   2.860  3.2005 -0.8626 -2.0303
   78MOL    C50 9444   5.130   0.211   3.069 -0.0129 -0.6715  0.3223
   78MOL    C51 9445   5.131   0.363   3.110  0.1628 -0.0024  0.1717
   78MOL    H52 9446   5.024   0.185   3.069  0.2684 -2.0515  3.0593
   78MOL    H53 9447   5.183   0.151   3.144 -0.9960 -3.0906 -0.8472
   78MOL    H54 9448   5.228   0.405   3.082  1.0167 -0.8064  1.8103
   78MOL    H55 9449   5.063   0.422   3.049 -1.2378  0.4536  2.1111
   78MOL    C56 9450   5.086   0.386   3.256 -0.3264  0.5066 -0.6098
   78MOL    C57 9451   5.052   0.532   3.285  0.3379  0.0223 -0.9860
   78MOL    H58 9452   4.994   0.331   3.276 -0.0184  0.1846 -0.0590
   78MOL    H59 9453   5.167   0.352   3.321  0.8971  2.3310 -1.1396
   78MOL    H60 9454   4.964   0.552   3.225 -0.5436 -1.2128 -0.1133
   78MOL    H61 9455   5.019   0.534   3.389  1.4420  0.0956 -0.6278
   78MOL    C62 9456   5.155   0.645   3.263  0.4635 -0.0355 -0.5317
   78MOL    C63 9457   5.108   0.784   3.306 -0.5395  0.8315 -0.1459
   78MOL    H64 9458   5.241   0.620   3.325 -0.7157 -1.7893  0.4482
   78MOL    H65 9459   5.186   0.649   3.159  0.6468 -0.2128 -0.4852
   78MOL    H66 9460   4.999   0.793   3.301 -0.7437 -0.6529  1.3686
   78MOL    H67 9461   5.138   0.791   3.410  0.4674  1.7871 -0.4940
   78MOL    C68 9462   5.163   0.897   3.224 -0.1140  0.4995 -0.1195
   78MOL    C69 9463   5.144   1.037   3.284  0.2565 -0.2660 -0.0306
   78MOL    H70 9464   5.266   0.879   3.193  0.0131  0.0070  0.5811
   78MOL    H71 9465   5.103   0.894   3.133 -0.1872 -0.3081 -0.0466
   78MOL    H72 9466   5.153   1.113   3.207  0.9044  0.7273  1.0059
   78MOL    H73 9467   5.044   1.043   3.328 -0.0933 -1.2694 -0.6858
   78MOL    C74 9468   5.252   1.074   3.401  0.3877  0.1661  0.0512
   78MOL    C75 9469   5.256   1.214   3.455  0.4197  0.4082 -0.0749
   78MOL    H76 9470   5.235   1.007   3.485 -2.7206  0.2528 -0.4466
   78MOL    H77 9471   5.356   1.056   3.375  0.1961  0.1077 -0.6731
   78MOL    H78 9472   5.305   1.288   3.392 -0.3650  0.4564 -0.6255
   78MOL    H79 9473   5.153   1.247   3.454  0.6086  0.9877 -1.2041
   78MOL    C80 9474   5.335   1.229   3.589  0.1285  0.3797  0.0463
   78MOL    C81 9475   5.253   1.189   3.708 -0.1948 -0.2150  0.1776
   78MOL    H82 9476   5.434   1.182   3.586 -0.5246 -1.1017  1.0650
   78MOL    H83 9477   5.363   1.335   3.586 -0.2425  0.4477 -2.8774
   78MOL    H84 9478   5.156   1.238   3.702 -0.7008 -1.0188  1.5421
   78MOL    H85 9479   5.226   1.083   3.703 -2.2531  0.2236  1.5048
   78MOL    C86 9480   5.327   1.209   3.844  0.1374 -0.2922 -0.3512
   78MOL    C87 9481   5.269   1.133   3.965  0.5096 -0.9996  0.3958
   78MOL    H88 9482   5.432   1.183   3.833  0.6979  0.9238  1.7488
   78MOL    H89 9483   5.330   1.317   3.863  1.7487 -0.3936  0.0165
   78MOL    H90 9484   5.160   1.126   3.963  0.4212  0.0170  1.1752
   78MOL    H91 9485   5.319   1.037   3.967 -1.5387 -2.0874  0.9912
   78MOL    C92 9486   5.301   1.198   4.094 -0.4332 -0.5235  0.5535
   78MOL    C93 9487   5.216   1.138   4.210 -0.4178  0.5216  0.3152
   78MOL    H94 9488   5.405   1.183   4.119 -0.2816  0.2563  0.4222
   78MOL    H95 9489   5.275   1.304   4.097  1.9237  0.1358 -0.8714
   78MOL    H96 9490   5.110   1.143   4.185 -0.0720  0.1102 -1.2734
   78MOL    H97 9491   5.246   1.033   4.214 -1.1504  0.2847 -0.2015
   78MOL    C98 9492   5.243   1.211   4.348  0.0171  0.2185  0.1768
   78MOL    C99 9493   5.168   1.147   4.463  0.3269 -1.0882  0.4701
   78MOL   H100 9494   5.349   1.204   4.374 -0.3485  1.5510  2.0971
   78MOL   H101 9495   5.214   1.315   4.338  0.0294  0.3367  1.3788
   78MOL   H102 9496   5.060   1.146   4.453  0.3895  0.0124 -0.4892
   78MOL   H103 9497   5.194   1.042   4.458  1.1326 -0.7929 -2.3889
   78MOL   C104 9498   5.210   1.199   4.604  0.9814 -0.8434 -0.2901
   78MOL   C105 9499   5.146   1.130   4.724  0.7035  0.2928 -0.0916
   78MOL   H106 9500   5.317   1.184   4.618  1.5623  2.1118 -1.2768
   78MOL   H107 9501   5.197   1.306   4.615 -0.3573 -1.0726  0.5203
   78MOL   H108 9502   5.146   1.021   4.720 -3.1067  0.2573 -1.4167
   78MOL   H109 9503   5.201   1.160   4.814  1.5951 -0.3651 -0.4127
   78MOL   C110 9504   4.999   1.172   4.738  0.7717  0.8609  0.2130
   78MOL   C111 9505   4.930   1.073   4.839  0.3210 -0.2887 -0.5513
   78MOL   H112 9506   4.988   1.275   4.771 -0.3392  1.4160 -1.8245
   78MOL   H113 9507   4.957   1.174   4.638 -2.5032  1.7057  1.5374
   78MOL   H114 9508   4.966   0.971   4.827  1.2316 -0.0490  0.1324
   78MOL   H115 9509   4.966   1.091   4.940 -0.4069 -2.3947  0.1176
   78MOL   C116 9510   4.776   1.074   4.829 -0.1897 -0.4549 -0.4041
   78MOL   C117 9511   4.700   0.945   4.834 -0.4782 -0.5753 -0.5385
   78MOL   H118 9512   4.739   1.128   4.916  1.3143 -1.9701  1.2213
   78MOL   H119 9513   4.744   1.119   4.734  1.3242 -0.8192 -1.0966
   78MOL   H120 9514   4.739   0.872   4.906  3.1223  0.3461 -1.4410
   78MOL   H121 9515   4.592   0.954   4.849 -0.4052  0.9818 -0.8676
   78MOL   H122 9516   4.704   0.898   4.735 -0.1961  1.1562 -1.3616
   79MOL     C1 9517   6.261   3.616   6.485 -0.0113 -0.5476  0.2106
   79MOL     C2 9518   6.210   3.605   6.344 -0.0615  0.1756  0.1082
   79MOL     H3 9519   6.277   3.719   6.519  0.0486  0.0603 -1.6033
   79MOL     H4 9520   6.344   3.547   6.502  0.1936 -0.4172 -0.2531
   79MOL     H5 9521   6.294   3.650   6.291  1.5314 -2.3382  0.3946
   79MOL     H6 9522   6.191   3.500   6.322 -0.0586  0.0113  0.8559
   79MOL     H7 9523   6.180   3.595   6.555  0.9869  2.7734  2.5194
   79MOL     C8 9524   6.077   3.676   6.309 -0.4898  0.5730  0.8767
   79MOL     C9 9525   6.036   3.656   6.161  0.2700 -0.1604  0.2699
   79MOL    H10 9526   6.008   3.636   6.384 -0.6265  0.8250  0.8878
   79MOL    H11 9527   6.095   3.783   6.319 -0.5130  0.9078 -2.3665
   79MOL    H12 9528   6.112   3.688   6.089  1.2489  0.6186  1.6338
   79MOL    H13 9529   6.022   3.548   6.151 -3.2054  0.2904 -0.2874
   79MOL    C14 9530   5.907   3.731   6.123 -0.1644 -0.1114  0.4311
   79MOL    C15 9531   5.840   3.700   5.986 -0.1508 -0.6945 -0.0745
   79MOL    H16 9532   5.825   3.719   6.194 -0.3733  1.1907  0.4269
   79MOL    H17 9533   5.934   3.837   6.116 -2.0207  0.3764  0.2344
   79MOL    H18 9534   5.905   3.734   5.906 -2.3943 -1.4352 -2.2662
   79MOL    H19 9535   5.832   3.592   5.970  0.4901 -0.5444 -1.4519
   79MOL    C20 9536   5.706   3.773   5.965  0.0033 -0.2852  0.0895
   79MOL    C21 9537   5.645   3.779   5.815  0.4010  0.1187 -1.1065
   79MOL    H22 9538   5.630   3.754   6.040  0.0485  0.4900  0.3345
   79MOL    H23 9539   5.737   3.877   5.979  1.1031 -0.7066  0.8623
   79MOL    H24 9540   5.725   3.780   5.741 -1.5754 -0.5243 -3.3261
   79MOL    H25 9541   5.602   3.683   5.789  1.2839 -0.4706 -0.4197
   79MOL    C26 9542   5.544   3.884   5.791  0.3258 -0.1707  0.2531
   79MOL    C27 9543   5.472   3.874   5.660  0.2440 -0.1512 -0.2302
   79MOL    H28 9544   5.471   3.871   5.871 -1.3589  0.1105 -1.1930
   79MOL    H29 9545   5.586   3.982   5.815 -2.3457  1.0442  0.1480
   79MOL    H30 9546   5.549   3.856   5.585 -1.1538 -0.7108 -1.5558
   79MOL    H31 9547   5.416   3.782   5.676  0.6308 -0.3409  0.0470
   79MOL    C32 9548   5.379   3.989   5.619 -0.2854  0.2134 -0.6498
   79MOL    C33 9549   5.297   3.959   5.490 -0.4235 -0.4282  0.7242
   79MOL    H34 9550   5.306   4.012   5.696  0.4984  0.0070  0.1568
   79MOL    H35 9551   5.437   4.079   5.601 -0.4320  0.3589 -0.3883
   79MOL    H36 9552   5.259   3.857   5.489  0.7865 -0.8824  0.4688
   79MOL    H37 9553   5.210   4.024   5.484  0.8390  1.5759  2.9124
   79MOL    C38 9554   5.376   4.005   5.378 -0.6794 -0.5133 -0.3529
   79MOL    C39 9555   5.288   3.973   5.254 -0.0196  0.0862 -0.3599
   79MOL    H40 9556   5.397   4.111   5.365 -1.9317 -0.2583 -0.3978
   79MOL    H41 9557   5.470   3.953   5.360  0.5010  1.5951 -0.4011
   79MOL    H42 9558   5.289   3.865   5.235  1.5433  0.1962 -0.9361
   79MOL    H43 9559   5.188   4.011   5.276 -0.8657 -1.1171 -2.0751
   79MOL    C44 9560   5.352   4.037   5.133  0.3176  0.1686  0.1667
   79MOL    C45 9561   5.260   4.034   5.014 -0.0897 -0.2188 -0.3452
   79MOL    H46 9562   5.376   4.143   5.145 -2.1235  0.7718  0.0290
   79MOL    H47 9563   5.444   3.982   5.114 -2.0684 -3.2962 -1.9294
   79MOL    H48 9564   5.160   4.046   5.057  0.2569  0.9385  0.1635
   79MOL    H49 9565   5.276   4.123   4.953  0.3244 -0.0150  0.0641
   79MOL    C50 9566   5.272   3.902   4.938  1.0505  0.4285 -0.4166
   79MOL    C51 9567   5.179   3.898   4.816  0.3390 -0.9194 -0.1247
   79MOL    H52 9568   5.372   3.891   4.895  0.4378  1.4305 -2.1719
   79MOL    H53 9569   5.247   3.812   4.993  1.3736 -1.6713 -3.5423
   79MOL    H54 9570   5.081   3.883   4.860  0.7745 -0.7337  0.9455
   79MOL    H55 9571   5.190   3.993   4.765 -1.1556  0.3446  1.8412
   79MOL    C56 9572   5.200   3.786   4.710  0.5265  0.0061  0.1478
   79MOL    C57 9573   5.318   3.804   4.612  0.4244  0.0151  0.1862
   79MOL    H58 9574   5.212   3.696   4.770 -2.6822 -0.8013 -0.3242
   79MOL    H59 9575   5.110   3.780   4.649  0.6273 -0.0183  0.0028
   79MOL    H60 9576   5.278   3.840   4.517 -0.1820 -1.2780 -0.0529
   79MOL    H61 9577   5.401   3.870   4.636 -0.4955  1.3145 -0.1009
   79MOL    C62 9578   5.371   3.669   4.551 -0.0729 -0.5747  0.2577
   79MOL    C63 9579   5.472   3.599   4.655  0.5617 -0.0805 -0.3910
   79MOL    H64 9580   5.292   3.598   4.529 -0.1826 -0.8309  1.4529
   79MOL    H65 9581   5.423   3.685   4.457 -1.2845 -0.6935 -0.4482
   79MOL    H66 9582   5.569   3.650   4.653 -0.0677  1.3026  2.3000
   79MOL    H67 9583   5.460   3.599   4.763  0.9977 -2.1984 -0.3072
   79MOL    C68 9584   5.479   3.444   4.617  0.3361 -0.3041  0.1299
   79MOL    C69 9585   5.555   3.355   4.709  0.8323 -0.6730 -0.3118
   79MOL    H70 9586   5.382   3.395   4.602 -0.2330  0.5094  1.0972
   79MOL    H71 9587   5.521   3.419   4.520  1.6148  0.1780  0.5595
   79MOL    H72 9588   5.502   3.355   4.805  0.0942  0.3711 -0.7125
   79MOL    H73 9589   5.550   3.254   4.670  0.4238 -1.5254  1.8611
   79MOL    C74 9590   5.704   3.384   4.740  0.1719  0.3374 -0.4882
   79MOL    C75 9591   5.794   3.368   4.615  0.0554 -0.2570  0.5850
   79MOL    H76 9592   5.708   3.485   4.780  0.6895 -0.9667  2.8867
   79MOL    H77 9593   5.723   3.308   4.815  1.5190  0.3380 -0.8153
   79MOL    H78 9594   5.777   3.273   4.565 -0.1075  0.6759 -1.1769
   79MOL    H79 9595   5.763   3.445   4.543  0.4863 -1.0489 -0.4632
   79MOL    C80 9596   5.945   3.378   4.659  0.5060  0.0018 -0.0015
   79MOL    C81 9597   5.976   3.493   4.747 -0.5571 -0.5407  0.5277
   79MOL    H82 9598   5.979   3.287   4.710 -0.3217 -1.2031 -1.5706
   79MOL    H83 9599   6.002   3.385   4.567 -2.3533 -0.7688 -1.8880
   79MOL    H84 9600   5.944   3.590   4.708  2.3339  0.1091 -0.3027
   79MOL    H85 9601   5.930   3.476   4.845 -0.0758  0.2001  0.8879
   79MOL    C86 9602   6.133   3.506   4.772  0.0014  0.2658 -0.2081
   79MOL    C87 9603   6.206   3.582   4.666  0.1436  0.4215  0.1382
   79MOL    H88 9604   6.140   3.554   4.869 -0.0378  1.3320 -0.7345
   79MOL    H89 9605   6.179   3.408   4.792  2.5170  1.8997  2.4619
   79MOL    H90 9606   6.182   3.528   4.574  0.0580  2.7846 -1.2624
   79MOL    H91 9607   6.147   3.672   4.652  1.8248  1.1543 -2.4407
   79MOL    C92 9608   6.356   3.609   4.692 -0.2267 -0.6326 -0.3373
   79MOL    C93 9609   6.424   3.681   4.580  0.1104 -0.4299  0.5826
   79MOL    H94 9610   6.362   3.664   4.786  1.2439 -0.4009 -0.5620
   79MOL    H95 9611   6.400   3.511   4.712  1.6600  0.4113  0.7496
   79MOL    H96 9612   6.402   3.620   4.492  1.5830  0.4421 -0.4141
   79MOL    H97 9613   6.384   3.782   4.570  0.3450 -0.2666  1.2990
   79MOL    C98 9614   6.572   3.706   4.602  0.2391 -0.3981  0.6259
   79MOL    C99 9615   6.634   3.787   4.488 -0.0555  0.3256  0.0353
   79MOL   H100 9616   6.592   3.752   4.698  3.6653  1.3107 -0.8341
   79MOL   H101 9617   6.623   3.610   4.602 -0.3186 -0.7460  4.1902
   79MOL   H102 9618   6.605   3.737   4.396  0.4837 -0.0736  0.0801
   79MOL   H103 9619   6.603   3.891   4.476 -4.3856 -1.0515 -1.6134
   79MOL   C104 9620   6.790   3.771   4.499  0.6604 -0.2873  0.1565
   79MOL   C105 9621   6.864   3.839   4.382 -0.1279  0.9300 -0.3756
   79MOL   H106 9622   6.833   3.806   4.593  1.2761 -0.7007  0.0326
   79MOL   H107 9623   6.822   3.667   4.508  1.4787  0.0157  0.8217
   79MOL   H108 9624   6.818   3.804   4.289 -0.6121  1.7186 -0.4345
   79MOL   H109 9625   6.849   3.947   4.388  1.7222  1.3547 -2.7311
   79MOL   C110 9626   7.021   3.812   4.371  0.2564 -0.6966  0.0598
   79MOL   C111 9627   7.091   3.873   4.250  0.6243  0.3362  0.2701
   79MOL   H112 9628   7.078   3.849   4.456 -1.0913 -1.9644  1.5548
   79MOL   H113 9629   7.031   3.703   4.371 -0.6315 -0.8076  2.0291
   79MOL   H114 9630   7.047   3.829   4.161  2.2664 -0.7772 -0.0310
   79MOL   H115 9631   7.053   3.973   4.229  0.5662  0.4273  0.7965
   79MOL   C116 9632   7.245   3.874   4.260 -0.1052  0.2244 -0.3180
   79MOL   C117 9633   7.323   3.936   4.144  0.7645 -0.4768 -1.1248
   79MOL   H118 9634   7.259   3.922   4.357 -0.3462 -0.9746  0.3086
   79MOL   H119 9635   7.279   3.771   4.270 -0.2794  0.1651 -0.3311
   79MOL   H120 9636   7.285   4.031   4.107 -0.6911  0.5227  2.7098
   79MOL   H121 9637   7.428   3.939   4.170  0.3776  1.4560  0.2941
   79MOL   H122 9638   7.320   3.862   4.064 -1.1843 -0.8823 -0.7094
   80MOL     C1 9639   0.899   1.117   1.638 -0.0644 -0.2798  0.0165
   80MOL     C2 9640   0.974   1.145   1.768  0.6856 -0.4291 -0.4883
   80MOL     H3 9641   0.972   1.058   1.582  0.9306  0.9100  0.0395
   80MOL     H4 9642   0.875   1.214   1.595  1.2922 -0.0941 -0.3367
   80MOL     H5 9643   1.014   1.055   1.814  1.6046 -0.5449 -1.4772
   80MOL     H6 9644   1.074   1.187   1.753  1.0715 -1.0022  0.4533
   80MOL     H7 9645   0.814   1.051   1.655  0.4785 -0.8633  0.4691
   80MOL     C8 9646   0.895   1.218   1.882  0.4323  0.3746  0.6487
   80MOL     C9 9647   0.983   1.247   2.016 -0.2424 -0.1158 -0.1117
   80MOL    H10 9648   0.853   1.313   1.847 -1.3419 -0.5765  0.1284
   80MOL    H11 9649   0.809   1.156   1.907  1.0941 -0.5403  0.6845
   80MOL    H12 9650   1.005   1.149   2.057  0.9305  0.6616  1.1480
   80MOL    H13 9651   1.079   1.289   1.986  1.3716 -1.2431  3.2364
   80MOL    C14 9652   0.917   1.344   2.117  0.5475  0.7136  0.0260
   80MOL    C15 9653   1.011   1.399   2.220 -0.1321  0.2110  0.0841
   80MOL    H16 9654   0.870   1.421   2.056  0.6461  0.9097  0.1951
   80MOL    H17 9655   0.832   1.296   2.166  1.5739 -0.9411  0.2329
   80MOL    H18 9656   1.066   1.321   2.272 -1.4863  0.9129  2.6512
   80MOL    H19 9657   1.090   1.457   2.173  0.1808 -1.4674 -1.5042
   80MOL    C20 9658   0.939   1.483   2.325 -0.2032 -0.3979 -0.4261
   80MOL    C21 9659   1.029   1.560   2.421 -0.5141  0.1635 -0.9946
   80MOL    H22 9660   0.878   1.560   2.278 -1.0567 -1.5686 -1.2723
   80MOL    H23 9661   0.874   1.417   2.382  0.0832  0.5458  0.9962
   80MOL    H24 9662   1.099   1.490   2.466  0.3400  0.7197 -1.4492
   80MOL    H25 9663   1.090   1.639   2.377  0.8546 -0.5083 -0.3058
   80MOL    C26 9664   0.948   1.624   2.537  0.0020 -0.2369  0.0231
   80MOL    C27 9665   1.019   1.726   2.620 -0.2109 -0.0314  0.1082
   80MOL    H28 9666   0.863   1.679   2.496  1.1592  1.4841 -0.1085
   80MOL    H29 9667   0.899   1.548   2.598 -1.2620 -0.0551 -0.7529
   80MOL    H30 9668   1.090   1.664   2.677 -0.4509  0.5731  1.0660
   80MOL    H31 9669   1.081   1.795   2.563 -1.2433  1.9703  1.3665
   80MOL    C32 9670   0.928   1.794   2.722  0.1801 -0.6151 -0.5830
   80MOL    C33 9671   0.998   1.882   2.826 -0.4826  0.3251 -0.5596
   80MOL    H34 9672   0.868   1.865   2.664 -1.1435 -0.6980  0.6515
   80MOL    H35 9673   0.847   1.739   2.768 -1.3301  0.1382 -2.2514
   80MOL    H36 9674   1.057   1.960   2.777  0.2158 -1.1733 -2.1519
   80MOL    H37 9675   0.914   1.931   2.876 -0.7375 -1.5227  0.8834
   80MOL    C38 9676   1.068   1.793   2.926  0.3369 -0.0516 -0.0022
   80MOL    C39 9677   1.125   1.852   3.045  0.1961 -0.1400 -0.0483
   80MOL    H40 9678   1.004   1.706   2.939 -0.1913  0.5018  1.1196
   80MOL    H41 9679   1.162   1.759   2.882 -0.3912 -3.0938  0.6658
   80MOL    H42 9680   1.180   1.941   3.016  1.1306 -0.8945 -0.6077
   80MOL    H43 9681   1.052   1.891   3.116 -0.3133 -1.3442  0.1091
   80MOL    C44 9682   1.222   1.754   3.113 -0.3270 -0.0854  0.1696
   80MOL    C45 9683   1.293   1.829   3.229 -0.3347  0.1544  0.1137
   80MOL    H46 9684   1.166   1.669   3.151 -1.2320  0.3014 -0.2966
   80MOL    H47 9685   1.293   1.703   3.047 -1.3308 -1.1964 -0.0618
   80MOL    H48 9686   1.337   1.922   3.195  0.2894 -0.5501 -1.0228
   80MOL    H49 9687   1.214   1.855   3.301  1.5165  0.6558  2.0111
   80MOL    C50 9688   1.374   1.736   3.325 -0.2669  0.4111  0.7688
   80MOL    C51 9689   1.394   1.800   3.471 -0.2562 -0.2350  0.5758
   80MOL    H52 9690   1.339   1.633   3.315 -0.1660  0.4490  0.0323
   80MOL    H53 9691   1.475   1.738   3.283 -1.7084 -0.6586 -2.9371
   80MOL    H54 9692   1.434   1.901   3.469  0.4796 -0.4987  1.5442
   80MOL    H55 9693   1.292   1.812   3.508 -0.9804 -1.0158 -1.1210
   80MOL    C56 9694   1.465   1.698   3.564 -0.1449  0.3514 -0.0803
   80MOL    C57 9695   1.608   1.669   3.522 -0.7240  0.1085 -0.3059
   80MOL    H58 9696   1.447   1.744   3.661  0.6536  0.0305  0.2238
   80MOL    H59 9697   1.405   1.607   3.566  1.6300 -0.9187 -1.7342
   80MOL    H60 9698   1.609   1.628   3.421 -0.5074  2.7499 -1.4198
   80MOL    H61 9699   1.658   1.764   3.501 -0.4082 -0.1023 -0.5062
   80MOL    C62 9700   1.675   1.576   3.623  0.0173  0.0266  0.1995
   80MOL    C63 9701   1.618   1.432   3.637 -0.4026 -0.3228  0.1928
   80MOL    H64 9702   1.779   1.575   3.591 -0.2503  0.0963 -0.7010
   80MOL    H65 9703   1.683   1.627   3.719 -0.2597  1.3126 -0.4361
   80MOL    H66 9704   1.519   1.456   3.676 -0.1774  1.2064 -0.1509
   80MOL    H67 9705   1.603   1.382   3.541  1.3983 -0.5570  0.0243
   80MOL    C68 9706   1.688   1.336   3.737 -0.1548  0.4116 -0.5991
   80MOL    C69 9707   1.822   1.268   3.686  0.2963 -1.2412 -0.3190
   80MOL    H70 9708   1.697   1.387   3.833 -1.2737  2.0997 -1.3693
   80MOL    H71 9709   1.617   1.256   3.759  0.2257  0.3214  0.3384
   80MOL    H72 9710   1.808   1.242   3.581 -1.7360  0.1156 -0.4094
   80MOL    H73 9711   1.903   1.341   3.693  1.2432 -2.4747  2.4687
   80MOL    C74 9712   1.873   1.139   3.746  0.2745 -0.2396  0.4837
   80MOL    C75 9713   1.835   1.106   3.886 -0.0656 -0.4289 -0.2733
   80MOL    H76 9714   1.848   1.059   3.676  1.5598  2.1231 -2.7814
   80MOL    H77 9715   1.981   1.133   3.740  0.2275 -0.9779  0.2820
   80MOL    H78 9716   1.870   1.186   3.953 -0.7465  0.7667 -1.3258
   80MOL    H79 9717   1.726   1.106   3.886 -0.0759 -1.9612 -1.1019
   80MOL    C80 9718   1.890   0.975   3.926 -0.0895 -0.3556 -0.4229
   80MOL    C81 9719   1.890   0.950   4.081  0.1474 -0.3791  0.0905
   80MOL    H82 9720   1.845   0.897   3.865  3.3977 -2.0460 -1.0090
   80MOL    H83 9721   1.993   0.966   3.890  0.1699  0.7322  0.0374
   80MOL    H84 9722   1.938   1.038   4.124  1.0308 -0.2025 -1.2194
   80MOL    H85 9723   1.788   0.937   4.116 -0.6136 -2.3393 -2.6037
   80MOL    C86 9724   1.966   0.823   4.109  0.2462 -0.5463 -0.2166
   80MOL    C87 9725   1.934   0.770   4.256  0.1414  0.0540  0.3607
   80MOL    H88 9726   1.914   0.758   4.038 -2.2888 -0.6750  1.6739
   80MOL    H89 9727   2.071   0.833   4.085 -0.4731  2.9695 -2.2527
   80MOL    H90 9728   1.977   0.845   4.323  2.2124 -1.3645  0.6618
   80MOL    H91 9729   1.828   0.763   4.280 -0.0529  1.9252  0.1460
   80MOL    C92 9730   1.994   0.631   4.277 -0.0495  0.1985  0.0245
   80MOL    C93 9731   2.145   0.611   4.255 -0.6147  0.1459  0.0071
   80MOL    H94 9732   1.958   0.599   4.375 -1.6345 -1.8007 -1.1737
   80MOL    H95 9733   1.947   0.570   4.200 -0.8817  0.9378 -0.0649
   80MOL    H96 9734   2.159   0.504   4.273 -1.1000  0.1501  0.4147
   80MOL    H97 9735   2.170   0.642   4.153  0.2272 -0.1490  0.1192
   80MOL    C98 9736   2.230   0.688   4.348 -0.1193 -0.3426  0.2337
   80MOL    C99 9737   2.380   0.656   4.342 -0.2344 -0.3581  0.0706
   80MOL   H100 9738   2.229   0.793   4.318  0.1823 -0.4060 -0.0100
   80MOL   H101 9739   2.196   0.683   4.451  1.1702 -0.6567  0.6483
   80MOL   H102 9740   2.393   0.548   4.347 -1.0837 -0.5075 -0.7049
   80MOL   H103 9741   2.418   0.696   4.248 -0.5242 -1.1967 -0.4105
   80MOL   C104 9742   2.461   0.713   4.456 -0.0274 -0.1032  0.1131
   80MOL   C105 9743   2.611   0.674   4.457  1.0271 -0.3857  0.2813
   80MOL   H106 9744   2.455   0.820   4.437 -0.6234  0.0440  1.1129
   80MOL   H107 9745   2.419   0.700   4.555 -3.7168  1.1915 -1.1958
   80MOL   H108 9746   2.661   0.688   4.553  0.1229  2.4172  0.3987
   80MOL   H109 9747   2.606   0.566   4.440  1.0403 -0.1067 -1.6038
   80MOL   C110 9748   2.694   0.742   4.345  0.3271  0.4507  0.3342
   80MOL   C111 9749   2.838   0.712   4.361  0.5344 -0.4983  0.5919
   80MOL   H112 9750   2.658   0.695   4.254 -1.5220  0.4279  1.0666
   80MOL   H113 9751   2.685   0.850   4.342 -0.9488  0.3730  1.2333
   80MOL   H114 9752   2.880   0.701   4.461  0.9708 -0.1767  0.4453
   80MOL   H115 9753   2.854   0.614   4.316  1.4186 -0.1961  0.2353
   80MOL   C116 9754   2.923   0.818   4.284 -0.0035 -0.0279  0.4083
   80MOL   C117 9755   2.904   0.832   4.132  0.7258  0.2575 -0.2182
   80MOL   H118 9756   2.900   0.916   4.327 -0.2932  0.3589 -0.6006
   80MOL   H119 9757   3.028   0.798   4.305  0.8186  3.4247 -0.0056
   80MOL   H120 9758   2.913   0.736   4.080  0.6959 -0.0683  0.3773
   80MOL   H121 9759   2.803   0.861   4.104  0.5662 -0.1971 -0.1218
   80MOL   H122 9760   2.973   0.902   4.084  0.6660 -0.1012 -0.8261
   81MOL     C1 9761   7.468   6.305   3.370  0.3996  0.5707  0.1979
   81MOL     C2 9762   7.345   6.235   3.439 -0.4627 -0.3152  0.0102
   81MOL     H3 9763   7.444   6.324   3.266  0.8815 -0.2905 -0.0687
   81MOL     H4 9764   7.546   6.230   3.368 -1.7426 -1.6817 -0.9438
   81MOL     H5 9765   7.373   6.181   3.529  0.6427 -0.6074 -0.5078
   81MOL     H6 9766   7.276   6.312   3.473 -0.7718 -1.1605  1.3656
   81MOL     H7 9767   7.507   6.391   3.425  0.7377  0.0279  0.8170
   81MOL     C8 9768   7.267   6.146   3.347  0.0628  0.0345  0.3690
   81MOL     C9 9769   7.346   6.019   3.309  0.0614  0.4151 -0.2112
   81MOL    H10 9770   7.177   6.104   3.392 -1.7181  1.4468 -1.7622
   81MOL    H11 9771   7.224   6.204   3.264 -0.9506  0.3286  1.0935
   81MOL    H12 9772   7.411   6.055   3.229 -0.3238 -0.0706 -0.7463
   81MOL    H13 9773   7.406   5.981   3.392 -0.0825 -1.9946 -1.1937
   81MOL    C14 9774   7.257   5.921   3.229  0.2384 -0.6914  0.0135
   81MOL    C15 9775   7.321   5.782   3.205  0.2854 -0.6233 -0.2690
   81MOL    H16 9776   7.158   5.915   3.275 -0.3676  2.0243 -0.8288
   81MOL    H17 9777   7.227   5.974   3.138  1.7107  1.4894  0.7345
   81MOL    H18 9778   7.379   5.810   3.117 -0.1868  2.7856  0.4259
   81MOL    H19 9779   7.400   5.748   3.273  2.2127  0.9123 -1.6794
   81MOL    C20 9780   7.209   5.676   3.179 -0.2266  0.6132 -0.6160
   81MOL    C21 9781   7.259   5.548   3.113  0.6408 -0.1319  0.1135
   81MOL    H22 9782   7.171   5.644   3.275  0.6528  1.1919 -0.0659
   81MOL    H23 9783   7.129   5.718   3.118 -1.4196  0.5647  0.9024
   81MOL    H24 9784   7.306   5.561   3.016 -2.0658  1.0964 -1.0891
   81MOL    H25 9785   7.346   5.506   3.164  1.3598  1.2050  0.0034
   81MOL    C26 9786   7.157   5.432   3.115  0.3565  0.0540 -0.2038
   81MOL    C27 9787   7.209   5.296   3.088 -0.4052 -0.1127  0.8014
   81MOL    H28 9788   7.103   5.437   3.210 -1.5060 -0.0836 -1.2259
   81MOL    H29 9789   7.082   5.460   3.040 -0.7036 -0.3651  0.6842
   81MOL    H30 9790   7.263   5.300   2.993 -1.7284  0.0453  0.0508
   81MOL    H31 9791   7.274   5.282   3.174 -0.6533  0.8629  1.1544
   81MOL    C32 9792   7.091   5.198   3.075  0.0375 -0.1331 -0.3364
   81MOL    C33 9793   7.139   5.059   3.032  0.1539 -1.1968 -0.3877
   81MOL    H34 9794   7.029   5.200   3.164 -0.6582 -0.5715 -0.8068
   81MOL    H35 9795   7.021   5.230   2.998  0.5045  1.6829 -0.0338
   81MOL    H36 9796   7.222   5.061   2.962  0.3003  0.5280 -0.1952
   81MOL    H37 9797   7.180   5.016   3.124 -0.9074  1.5005  1.4089
   81MOL    C38 9798   7.035   4.968   2.977 -0.0864  0.0062 -0.0648
   81MOL    C39 9799   7.091   4.832   2.955 -0.1111  0.1793 -0.5422
   81MOL    H40 9800   6.950   4.952   3.043  1.8461 -1.2489  2.1903
   81MOL    H41 9801   6.989   5.002   2.883 -3.3295 -0.0649  1.4309
   81MOL    H42 9802   7.193   4.839   2.915 -0.0665 -2.5319 -0.9365
   81MOL    H43 9803   7.110   4.796   3.056  0.5377  1.1617 -0.2991
   81MOL    C44 9804   6.995   4.732   2.883  0.4678 -0.3838  0.4530
   81MOL    C45 9805   7.066   4.596   2.857 -0.2190  0.2240  0.8983
   81MOL    H46 9806   6.914   4.712   2.953  0.2984  0.5770  0.5317
   81MOL    H47 9807   6.953   4.769   2.790  0.7503 -0.6377  0.2269
   81MOL    H48 9808   7.145   4.610   2.783 -0.6595 -0.4749  0.2854
   81MOL    H49 9809   7.111   4.560   2.949  1.9118 -1.6819 -0.8321
   81MOL    C50 9810   6.983   4.493   2.785  0.0647 -0.4234 -0.1782
   81MOL    C51 9811   7.054   4.352   2.780 -0.0739 -0.4922  0.0285
   81MOL    H52 9812   6.898   4.482   2.851  0.7777 -0.6082  0.7088
   81MOL    H53 9813   6.953   4.537   2.689 -0.4635  1.7390  0.9450
   81MOL    H54 9814   7.135   4.353   2.707 -0.3119 -1.1307 -0.2500
   81MOL    H55 9815   7.083   4.327   2.882  2.1542  0.2491 -0.3970
   81MOL    C56 9816   6.949   4.244   2.739 -0.5326 -0.6229  0.8904
   81MOL    C57 9817   6.997   4.095   2.753 -0.5928 -0.2304  0.4587
   81MOL    H58 9818   6.851   4.259   2.783 -1.2244  1.8000 -1.3305
   81MOL    H59 9819   6.928   4.264   2.634  1.7330 -2.6235 -0.0078
   81MOL    H60 9820   6.937   4.022   2.699 -0.2152 -0.5037  0.4071
   81MOL    H61 9821   7.097   4.094   2.708 -1.6611  0.5744 -2.0061
   81MOL    C62 9822   7.008   4.049   2.899 -0.5050  0.9587  0.0580
   81MOL    C63 9823   6.953   3.912   2.931 -0.0446 -0.2525 -0.7717
   81MOL    H64 9824   7.114   4.047   2.927 -0.8669 -6.1687  1.6867
   81MOL    H65 9825   6.967   4.130   2.960  0.1571 -0.7675  2.9024
   81MOL    H66 9826   6.847   3.896   2.911  0.3160 -1.2298 -1.9419
   81MOL    H67 9827   7.010   3.852   2.861  1.3135  0.6057 -0.4137
   81MOL    C68 9828   6.971   3.862   3.073  0.4086  0.4365 -0.8074
   81MOL    C69 9829   6.915   3.953   3.182  0.2412  0.1545  0.5052
   81MOL    H70 9830   6.924   3.765   3.089  0.2777  0.8119  1.2303
   81MOL    H71 9831   7.079   3.848   3.084  0.4549  0.1971 -1.5640
   81MOL    H72 9832   6.988   4.032   3.202  1.9338 -0.3442 -3.1494
   81MOL    H73 9833   6.839   4.018   3.139  0.9076  0.3774 -0.3548
   81MOL    C74 9834   6.870   3.875   3.307  1.1360 -0.0653  0.2174
   81MOL    C75 9835   6.982   3.821   3.394  0.0355  0.6517 -0.4598
   81MOL    H76 9836   6.816   3.951   3.363  0.0718 -1.2827  0.8733
   81MOL    H77 9837   6.798   3.798   3.280  1.2197 -0.4184  0.9784
   81MOL    H78 9838   7.038   3.750   3.333 -0.8921 -0.3560 -0.1608
   81MOL    H79 9839   7.052   3.893   3.434 -1.0977  2.2591 -1.3269
   81MOL    C80 9840   6.909   3.731   3.508 -0.3658 -0.6043 -0.2408
   81MOL    C81 9841   6.993   3.684   3.618 -0.2621  0.6100  0.5842
   81MOL    H82 9842   6.835   3.788   3.564  0.9781 -0.3618  1.3122
   81MOL    H83 9843   6.856   3.646   3.465 -0.0566 -1.9593  1.9894
   81MOL    H84 9844   7.061   3.612   3.574 -0.7612  0.4567  0.0591
   81MOL    H85 9845   7.049   3.767   3.661 -0.0643  0.2246  1.0834
   81MOL    C86 9846   6.909   3.601   3.727  0.4527  0.0812  0.1525
   81MOL    C87 9847   6.985   3.570   3.851 -0.2823 -0.5667 -0.5398
   81MOL    H88 9848   6.817   3.654   3.752  0.7150  0.6606 -0.1073
   81MOL    H89 9849   6.882   3.510   3.673  1.6453 -1.6573  2.4401
   81MOL    H90 9850   7.077   3.518   3.824  0.3642  0.5936 -0.5931
   81MOL    H91 9851   7.022   3.655   3.909 -1.3016  0.5800 -1.5519
   81MOL    C92 9852   6.905   3.475   3.942 -0.2563  0.5387  0.5667
   81MOL    C93 9853   6.929   3.479   4.098  0.2210  0.1424 -0.2428
   81MOL    H94 9854   6.798   3.495   3.938 -0.3048  0.4503  1.4949
   81MOL    H95 9855   6.915   3.373   3.904  1.1986  0.1483  1.9420
   81MOL    H96 9856   7.013   3.412   4.119 -0.0312 -0.3302 -0.7280
   81MOL    H97 9857   6.968   3.575   4.131 -1.5068  0.7156  0.1647
   81MOL    C98 9858   6.813   3.432   4.187 -0.5105 -0.2120  1.1602
   81MOL    C99 9859   6.851   3.432   4.336  0.0006  0.1659  0.2528
   81MOL   H100 9860   6.727   3.496   4.172  0.4200  0.9252  0.5475
   81MOL   H101 9861   6.781   3.332   4.156 -0.9812  0.7666 -1.6469
   81MOL   H102 9862   6.957   3.418   4.355  0.4250 -0.5775 -2.4566
   81MOL   H103 9863   6.833   3.536   4.367  1.2321  0.3257  0.4372
   81MOL   C104 9864   6.779   3.331   4.421 -0.6818 -0.2811 -1.1424
   81MOL   C105 9865   6.626   3.326   4.413 -0.1248 -0.1636 -0.3105
   81MOL   H106 9866   6.812   3.233   4.389 -2.6035 -0.8929 -1.2987
   81MOL   H107 9867   6.811   3.343   4.524 -1.4407  0.4173 -0.9806
   81MOL   H108 9868   6.585   3.420   4.449  1.8272  0.3396  0.7023
   81MOL   H109 9869   6.596   3.330   4.309 -1.3761 -0.2259  0.0383
   81MOL   C110 9870   6.564   3.209   4.482  0.0435 -0.4613 -0.5454
   81MOL   C111 9871   6.414   3.223   4.505  0.2192 -0.2285 -0.3400
   81MOL   H112 9872   6.600   3.114   4.443 -0.0664 -0.2872 -1.0720
   81MOL   H113 9873   6.611   3.203   4.580  1.1131  1.0654 -0.9615
   81MOL   H114 9874   6.382   3.327   4.505 -0.2479 -0.3713  0.1765
   81MOL   H115 9875   6.372   3.185   4.412 -0.0452  1.2363 -0.8298
   81MOL   C116 9876   6.361   3.155   4.631  0.3389 -0.2766 -0.0104
   81MOL   C117 9877   6.360   2.995   4.618  0.1760 -0.0090 -0.0370
   81MOL   H118 9878   6.399   3.187   4.728 -0.6468  1.5352 -0.1953
   81MOL   H119 9879   6.255   3.179   4.638  0.4706 -0.0996  1.6532
   81MOL   H120 9880   6.314   2.951   4.707  0.3486 -1.4930 -0.6706
   81MOL   H121 9881   6.296   2.965   4.535 -0.1749 -0.3044  0.3350
   81MOL   H122 9882   6.462   2.962   4.597  1.0072  3.0489 -1.1640
   82MOL     C1 9883   7.396   1.226   3.902 -0.6488  0.0092  0.0991
   82MOL     C2 9884   7.243   1.245   3.888  0.5675 -0.1234  0.7442
   82MOL     H3 9885   7.426   1.200   4.004  0.0647 -1.5366 -0.4911
   82MOL     H4 9886   7.452   1.314   3.868 -0.4756 -0.0013  0.3529
   82MOL     H5 9887   7.193   1.163   3.938  0.1205 -0.1802  0.2073
   82MOL     H6 9888   7.215   1.336   3.943 -0.3814  0.6165 -0.9383
   82MOL     H7 9889   7.428   1.143   3.838 -0.8670 -0.5978  0.7704
   82MOL     C8 9890   7.192   1.232   3.749  0.8451 -0.9300 -0.3316
   82MOL     C9 9891   7.057   1.309   3.740 -0.3844  0.2834  0.0844
   82MOL    H10 9892   7.271   1.269   3.683  2.4705 -2.6234  0.6141
   82MOL    H11 9893   7.188   1.128   3.716  2.1942 -1.1465  0.1729
   82MOL    H12 9894   6.994   1.265   3.817 -0.1376  0.0475  0.1540
   82MOL    H13 9895   7.063   1.416   3.760  2.2810  0.3581 -0.9432
   82MOL    C14 9896   6.989   1.299   3.607 -0.0143 -0.0420 -0.3724
   82MOL    C15 9897   6.858   1.385   3.617 -0.1163  0.3643  0.2728
   82MOL    H16 9898   7.050   1.357   3.537  1.1881 -1.2925 -0.3673
   82MOL    H17 9899   6.973   1.196   3.575  5.3396 -0.3538 -2.5942
   82MOL    H18 9900   6.884   1.486   3.652  2.0031  0.0974 -0.4751
   82MOL    H19 9901   6.808   1.396   3.521  2.0212  2.7963 -0.6186
   82MOL    C20 9902   6.755   1.325   3.711 -0.4620  0.1544  0.0246
   82MOL    C21 9903   6.637   1.416   3.745 -0.8125  0.5843  0.2479
   82MOL    H22 9904   6.723   1.234   3.659  1.3439  0.1631 -1.1159
   82MOL    H23 9905   6.802   1.304   3.807  2.8069  1.0792 -1.3167
   82MOL    H24 9906   6.684   1.500   3.796 -1.1917  0.1188  1.3874
   82MOL    H25 9907   6.584   1.446   3.654 -0.7965  0.8296  0.3184
   82MOL    C26 9908   6.535   1.361   3.853  0.1391  0.3298 -0.5318
   82MOL    C27 9909   6.451   1.478   3.909  0.1972  0.1595 -0.5245
   82MOL    H28 9910   6.461   1.290   3.814  0.6287 -0.6565  0.3124
   82MOL    H29 9911   6.592   1.304   3.926 -0.8859 -0.8178 -0.6095
   82MOL    H30 9912   6.518   1.552   3.953  1.4328 -0.5384 -1.2015
   82MOL    H31 9913   6.397   1.536   3.834 -1.7746 -0.6184  0.2621
   82MOL    C32 9914   6.349   1.419   4.010 -0.3933 -0.8714  0.3689
   82MOL    C33 9915   6.260   1.529   4.077 -0.6140  0.3677  0.3441
   82MOL    H34 9916   6.283   1.348   3.960 -0.9581  1.1337 -1.8341
   82MOL    H35 9917   6.401   1.364   4.088  0.1727  1.3720  1.6043
   82MOL    H36 9918   6.214   1.593   4.001 -0.7378  0.6426  0.6505
   82MOL    H37 9919   6.178   1.485   4.133  0.6276 -1.4229  0.7970
   82MOL    C38 9920   6.341   1.629   4.169 -0.0422  0.2213 -0.3114
   82MOL    C39 9921   6.245   1.724   4.252 -0.3334 -0.5470  0.2503
   82MOL    H40 9922   6.399   1.563   4.234  0.1043 -0.4625 -1.1305
   82MOL    H41 9923   6.420   1.685   4.119 -0.0028  1.7313  1.3852
   82MOL    H42 9924   6.192   1.786   4.180  1.3433  0.2009 -0.3733
   82MOL    H43 9925   6.167   1.673   4.308  0.4622 -1.4288  0.5820
   82MOL    C44 9926   6.324   1.796   4.348  0.4884 -1.1461  0.1083
   82MOL    C45 9927   6.236   1.879   4.439 -0.8645 -0.0981 -0.1607
   82MOL    H46 9928   6.377   1.730   4.416  1.0818 -1.6325 -0.8171
   82MOL    H47 9929   6.391   1.865   4.296 -2.0610  0.6816 -0.8613
   82MOL    H48 9930   6.185   1.962   4.389  0.5588  2.0112  1.8075
   82MOL    H49 9931   6.162   1.815   4.486 -0.7400  0.1099  0.3218
   82MOL    C50 9932   6.332   1.940   4.537 -0.1700  0.3044 -0.8332
   82MOL    C51 9933   6.265   2.046   4.624  0.0065  0.4887  0.0490
   82MOL    H52 9934   6.385   1.869   4.601 -0.7722 -0.6424 -1.3697
   82MOL    H53 9935   6.404   2.003   4.483 -1.2626  1.3202 -1.1081
   82MOL    H54 9936   6.341   2.115   4.662  0.0876  0.0387  0.7200
   82MOL    H55 9937   6.198   2.104   4.561 -0.6464 -2.5669 -2.1801
   82MOL    C56 9938   6.180   1.997   4.743 -0.0625 -0.0036 -0.3999
   82MOL    C57 9939   6.069   2.100   4.785 -0.6287 -0.4900  0.0896
   82MOL    H58 9940   6.127   1.906   4.716 -0.9321  0.8892 -1.7746
   82MOL    H59 9941   6.245   1.986   4.830 -0.4657  1.2106  0.0697
   82MOL    H60 9942   6.115   2.197   4.805 -0.0577 -0.6751 -0.3032
   82MOL    H61 9943   6.002   2.112   4.699 -1.2615 -0.5296  0.5786
   82MOL    C62 9944   5.982   2.038   4.895  0.1673  0.0564 -0.5099
   82MOL    C63 9945   5.866   2.130   4.921 -0.4979 -1.0537 -0.2210
   82MOL    H64 9946   5.936   1.944   4.865 -1.3972 -0.0531  1.9835
   82MOL    H65 9947   6.031   2.017   4.990 -1.8269  1.3111  0.8464
   82MOL    H66 9948   5.895   2.235   4.923  0.1949 -1.2529  0.6256
   82MOL    H67 9949   5.786   2.116   4.849  0.3113 -2.7202 -0.8244
   82MOL    C68 9950   5.804   2.116   5.065  0.3482 -0.0296 -0.0820
   82MOL    C69 9951   5.671   2.189   5.093 -0.2674 -0.8663 -0.2642
   82MOL    H70 9952   5.769   2.016   5.091 -0.1007  0.0780 -0.2700
   82MOL    H71 9953   5.878   2.141   5.141 -0.8567  0.7783  0.8462
   82MOL    H72 9954   5.606   2.180   5.006  0.0161  0.9754 -0.6877
   82MOL    H73 9955   5.607   2.135   5.163 -2.3846  1.4289 -0.3292
   82MOL    C74 9956   5.687   2.330   5.138 -0.0887  0.1846 -1.5835
   82MOL    C75 9957   5.561   2.408   5.122  0.2746  0.5146  0.0694
   82MOL    H76 9958   5.723   2.346   5.239  2.1631  0.0065 -2.3395
   82MOL    H77 9959   5.771   2.368   5.080  1.2988 -2.6533 -1.5656
   82MOL    H78 9960   5.522   2.400   5.021  1.8804 -0.1046 -0.5203
   82MOL    H79 9961   5.491   2.358   5.188  0.7933 -0.8017 -0.3656
   82MOL    C80 9962   5.567   2.561   5.152  0.6371 -0.9239  0.3249
   82MOL    C81 9963   5.426   2.623   5.120  0.2246  1.0702  0.1404
   82MOL    H82 9964   5.606   2.586   5.251  0.3583  2.9391 -0.4724
   82MOL    H83 9965   5.645   2.595   5.085 -1.3293 -0.7066 -1.9338
   82MOL    H84 9966   5.402   2.594   5.018 -0.1518  1.1713  0.1964
   82MOL    H85 9967   5.355   2.583   5.192  2.1240  1.1933  2.1415
   82MOL    C86 9968   5.416   2.772   5.132  0.2426  0.5158  0.1081
   82MOL    C87 9969   5.526   2.843   5.053  0.0560  0.0920  0.1118
   82MOL    H88 9970   5.318   2.802   5.094 -1.2789 -2.7672  1.2150
   82MOL    H89 9971   5.422   2.799   5.237  0.3547  2.0570 -0.2809
   82MOL    H90 9972   5.610   2.853   5.121 -0.0324  0.4201  0.1744
   82MOL    H91 9973   5.542   2.771   4.973  1.3822  0.4194  0.0723
   82MOL    C92 9974   5.485   2.974   4.996  0.1126  0.5367  0.1658
   82MOL    C93 9975   5.604   3.046   4.927  0.3150 -0.2513  0.1329
   82MOL    H94 9976   5.414   2.947   4.918  0.1357 -0.9283  0.6386
   82MOL    H95 9977   5.425   3.040   5.057  1.4397  2.1714 -0.2565
   82MOL    H96 9978   5.567   3.141   4.887  0.0085 -0.7534 -0.8012
   82MOL    H97 9979   5.683   3.066   4.999 -0.4839  1.6096  0.5185
   82MOL    C98 9980   5.670   2.969   4.808  0.1885 -0.4957 -0.2638
   82MOL    C99 9981   5.811   3.018   4.778  0.2314 -0.0510 -0.2846
   82MOL   H100 9982   5.657   2.864   4.832 -0.6878 -0.3962 -0.2723
   82MOL   H101 9983   5.601   2.981   4.724 -0.6040 -1.0712  0.2885
   82MOL   H102 9984   5.804   3.105   4.713 -0.9387 -0.0132 -0.1231
   82MOL   H103 9985   5.860   3.040   4.873  0.8063  0.6592 -0.7458
   82MOL   C104 9986   5.900   2.921   4.694 -0.3138 -0.5343  0.1382
   82MOL   C105 9987   5.982   2.826   4.768  0.3464 -0.1995  0.2212
   82MOL   H106 9988   5.827   2.871   4.630 -0.0594 -0.3361 -0.3054
   82MOL   H107 9989   5.962   2.990   4.636 -0.6969  1.3459  1.8988
   82MOL   H108 9990   6.042   2.871   4.847  0.2897 -1.6082  1.1054
   82MOL   H109 9991   5.911   2.759   4.818  0.3081 -0.4453 -0.1612
   82MOL   C110 9992   6.068   2.728   4.680 -0.7112 -0.3200 -0.2904
   82MOL   C111 9993   5.989   2.642   4.585  0.1718  0.2182 -0.2202
   82MOL   H112 9994   6.144   2.784   4.626 -0.7347 -0.1694 -0.1650
   82MOL   H113 9995   6.129   2.660   4.739  1.1640  2.5112  1.1427
   82MOL   H114 9996   5.930   2.574   4.647  0.6156  0.5306  0.5434
   82MOL   H115 9997   5.914   2.701   4.530  1.1619  1.2289 -0.5048
   82MOL   C116 9998   6.072   2.556   4.472  0.7552  0.0235  0.8832
   82MOL   C117 9999   6.141   2.444   4.550  0.5684  0.6916  0.3925
   82MOL   H11810000   6.004   2.516   4.397  0.2523 -0.9467  1.8447
   82MOL   H11910001   6.136   2.620   4.411 -0.7209 -0.8770 -1.6423
   82MOL   H12010002   6.200   2.380   4.484 -1.0030  0.3840 -0.7318
   82MOL   H12110003   6.194   2.484   4.636 -1.9331  2.9000  0.9628
   82MOL   H12210004   6.069   2.376   4.595  0.1910  0.2001 -0.9308
   83MOL     C110005   1.561   1.454   0.906 -0.5130 -0.2784 -0.7115
   83MOL     C210006   1.713   1.454   0.935 -0.3358 -0.4318  0.4842
   83MOL     H310007   1.544   1.354   0.867 -0.0908 -0.4700 -0.4166
   83MOL     H410008   1.535   1.518   0.822  0.8680  1.7877  0.3935
   83MOL     H510009   1.755   1.408   0.846 -0.5496 -0.4271  0.3810
   83MOL     H610010   1.752   1.556   0.939 -1.2079 -0.1299  1.6192
   83MOL     H710011   1.493   1.485   0.986  0.2506  2.0690 -0.9498
   83MOL     C810012   1.757   1.377   1.052  0.2799  1.3154  0.0841
   83MOL     C910013   1.887   1.398   1.111 -0.0028 -0.3966  0.2686
   83MOL    H1010014   1.692   1.406   1.135 -0.0185 -1.0238  0.6882
   83MOL    H1110015   1.733   1.271   1.049  0.3002  1.3352 -0.9284
   83MOL    H1210016   1.892   1.497   1.156  1.0681  0.2850 -1.2714
   83MOL    H1310017   1.899   1.334   1.197 -0.8954 -2.4321 -1.0821
   83MOL    C1410018   2.001   1.364   1.014 -0.0572 -0.3740 -0.0904
   83MOL    C1510019   2.144   1.352   1.086  0.1875  0.1899 -0.4912
   83MOL    H1610020   1.986   1.267   0.966  2.0787 -0.5373 -0.4604
   83MOL    H1710021   2.009   1.433   0.930  0.3333 -0.6387 -0.2712
   83MOL    H1810022   2.169   1.438   1.148  1.5766 -0.7861  0.3218
   83MOL    H1910023   2.141   1.273   1.161 -0.8856  1.3310  0.7023
   83MOL    C2010024   2.257   1.297   0.997 -0.0122  0.6002 -0.1154
   83MOL    C2110025   2.399   1.298   1.057 -0.2705 -0.3831 -0.6710
   83MOL    H2210026   2.230   1.197   0.964 -1.0170  0.3835  1.3277
   83MOL    H2310027   2.258   1.361   0.908  0.6330 -0.3817 -0.8163
   83MOL    H2410028   2.428   1.399   1.087  0.6387 -1.0154  0.6094
   83MOL    H2510029   2.394   1.256   1.157 -1.2209 -0.4319 -0.7281
   83MOL    C2610030   2.504   1.229   0.971  0.4874  0.0130  0.1022
   83MOL    C2710031   2.646   1.261   1.014  0.0421 -0.2613  0.0474
   83MOL    H2810032   2.483   1.123   0.977 -0.0750  0.1013 -0.2555
   83MOL    H2910033   2.489   1.270   0.871  0.2769  0.1788  0.1990
   83MOL    H3010034   2.664   1.364   1.047 -0.5666  0.2068 -1.0419
   83MOL    H3110035   2.654   1.202   1.106 -1.4641 -1.2222 -0.4141
   83MOL    C3210036   2.753   1.224   0.917  0.6829  0.2419 -0.2657
   83MOL    C3310037   2.902   1.246   0.966 -0.0652  0.1037 -0.4109
   83MOL    H3410038   2.744   1.116   0.898  0.1169 -0.3560  3.1227
   83MOL    H3510039   2.739   1.286   0.829  0.6906  1.2612  0.4475
   83MOL    H3610040   2.895   1.354   0.976 -2.3017 -0.1239  0.8430
   83MOL    H3710041   2.919   1.199   1.063  2.3210 -0.7821 -1.2214
   83MOL    C3810042   3.004   1.194   0.861  0.9535 -0.0474 -0.3142
   83MOL    C3910043   3.150   1.203   0.914  0.1953  0.1163  0.2359
   83MOL    H4010044   2.978   1.090   0.843 -0.8407  0.2722  0.2970
   83MOL    H4110045   2.992   1.249   0.768 -0.1832 -0.2024 -0.2683
   83MOL    H4210046   3.179   1.291   0.971  1.1681 -0.4828  0.6887
   83MOL    H4310047   3.170   1.128   0.991 -3.9531 -0.9706  0.3849
   83MOL    C4410048   3.255   1.180   0.805  0.5774 -0.3851 -0.2718
   83MOL    C4510049   3.395   1.199   0.865  0.6950 -0.5642  0.6903
   83MOL    H4610050   3.242   1.081   0.762 -1.9597  0.0959 -0.6689
   83MOL    H4710051   3.238   1.253   0.726 -1.0869 -2.2920 -1.7154
   83MOL    H4810052   3.414   1.303   0.891 -1.2817  0.0913 -0.3733
   83MOL    H4910053   3.406   1.142   0.958  2.8653 -2.6764 -0.8175
   83MOL    C5010054   3.507   1.166   0.768 -0.5416  0.2686 -0.0325
   83MOL    C5110055   3.645   1.168   0.837  0.2973 -0.1912  0.2913
   83MOL    H5210056   3.503   1.071   0.714  2.0852  0.9277 -1.4759
   83MOL    H5310057   3.511   1.245   0.692 -3.7075 -1.0102 -1.5946
   83MOL    H5410058   3.657   1.272   0.866 -0.0177  0.4862 -1.9018
   83MOL    H5510059   3.640   1.111   0.930  1.6850 -1.2498 -0.2633
   83MOL    C5610060   3.764   1.132   0.748 -0.0371  0.1339  0.2145
   83MOL    C5710061   3.883   1.081   0.826  0.3530 -0.0817  0.1141
   83MOL    H5810062   3.730   1.057   0.677 -1.2295  1.7880 -1.0164
   83MOL    H5910063   3.788   1.212   0.678  1.9067 -0.2065  0.4668
   83MOL    H6010064   3.900   1.149   0.910  2.8700 -0.7927  0.1967
   83MOL    H6110065   3.861   0.983   0.868 -1.0462  0.0430 -0.3003
   83MOL    C6210066   4.009   1.081   0.738  0.1073  0.3392 -0.7577
   83MOL    C6310067   4.138   1.040   0.803 -0.5056 -0.5526 -0.3980
   83MOL    H6410068   3.992   1.018   0.651  0.7660 -2.5591  1.1234
   83MOL    H6510069   4.018   1.183   0.702 -0.1485  0.3102 -0.9033
   83MOL    H6610070   4.173   1.092   0.892  1.8492 -1.0184 -1.0132
   83MOL    H6710071   4.113   0.938   0.833 -1.4238 -0.5611 -1.1417
   83MOL    C6810072   4.253   1.042   0.698  0.9408  0.3890  0.2677
   83MOL    C6910073   4.376   0.987   0.764  0.2690  0.3336 -0.1476
   83MOL    H7010074   4.231   0.988   0.606  0.6654  1.8911 -0.5700
   83MOL    H7110075   4.258   1.146   0.667  0.1838  0.3833  0.1050
   83MOL    H7210076   4.394   1.037   0.859 -1.3106 -1.0565  0.9101
   83MOL    H7310077   4.345   0.887   0.796  2.5148 -0.5714 -0.6983
   83MOL    C7410078   4.484   0.977   0.660 -0.4868 -0.9738  0.0757
   83MOL    C7510079   4.618   0.915   0.704  0.2984  0.1040 -1.0080
   83MOL    H7610080   4.446   0.908   0.585 -0.4148  0.5854 -1.4535
   83MOL    H7710081   4.501   1.073   0.611  0.9810 -1.2501  0.0102
   83MOL    H7810082   4.657   0.972   0.789 -2.2017 -2.5755  2.1021
   83MOL    H7910083   4.596   0.814   0.737 -0.9495  1.2944  2.0144
   83MOL    C8010084   4.725   0.915   0.599  0.3001  0.1126  0.5950
   83MOL    C8110085   4.868   0.888   0.640  0.4431  0.2660 -0.4075
   83MOL    H8210086   4.695   0.840   0.526 -0.5263 -0.3410  1.3825
   83MOL    H8310087   4.735   1.008   0.543 -0.6570 -1.1782 -1.8216
   83MOL    H8410088   4.908   0.977   0.689 -1.2270 -0.0409  1.5546
   83MOL    H8510089   4.870   0.811   0.717  2.9991 -0.1213 -0.7946
   83MOL    C8610090   4.952   0.850   0.520 -0.3869 -0.6169  0.1664
   83MOL    C8710091   5.097   0.809   0.561  0.0395 -1.0484 -0.1700
   83MOL    H8810092   4.906   0.766   0.467  2.2244 -1.4138 -0.9847
   83MOL    H8910093   4.949   0.931   0.447  0.7831 -0.3601  0.3864
   83MOL    H9010094   5.141   0.883   0.627  0.1361  0.0537 -1.4470
   83MOL    H9110095   5.087   0.718   0.619  1.6329 -2.1861 -1.6225
   83MOL    C9210096   5.179   0.787   0.433  0.4987  0.0603 -0.3018
   83MOL    C9310097   5.209   0.642   0.387 -0.7787 -0.6691 -0.3681
   83MOL    H9410098   5.133   0.831   0.344 -1.6932  2.1631  1.7685
   83MOL    H9510099   5.272   0.843   0.443 -0.1115  1.0890 -0.3488
   83MOL    H9610100   5.222   0.578   0.474  1.2975 -0.4267 -0.4719
   83MOL    H9710101   5.117   0.602   0.343 -0.7083  0.2457 -1.3698
   83MOL    C9810102   5.331   0.640   0.300  0.0646 -0.0114 -0.1811
   83MOL    C9910103   5.368   0.501   0.243  0.1132 -0.2432 -0.3469
   83MOL   H10010104   5.302   0.712   0.223 -1.8494 -0.2443  0.2753
   83MOL   H10110105   5.414   0.679   0.358  0.8245  0.3534 -1.4919
   83MOL   H10210106   5.360   0.426   0.322  1.3993  0.0247  0.0509
   83MOL   H10310107   5.282   0.475   0.181  1.0699 -1.5261 -1.1620
   83MOL   C10410108   5.500   0.479   0.167 -0.2955 -0.3527  0.0653
   83MOL   C10510109   5.499   0.345   0.099 -0.2967  0.5459 -0.1124
   83MOL   H10610110   5.508   0.557   0.092 -0.6023 -1.7494 -1.4492
   83MOL   H10710111   5.585   0.482   0.235  0.7184 -1.0749 -1.1396
   83MOL   H10810112   5.507   0.264   0.171  3.4147  1.3752  0.4899
   83MOL   H10910113   5.401   0.318   0.060  1.4315 -2.2341 -2.7659
   83MOL   C11010114   5.609   0.318   7.686 -0.5331 -0.5755 -0.1910
   83MOL   C11110115   5.618   0.169   7.653  0.0918  0.6759 -0.0430
   83MOL   H11210116   5.603   0.362   7.587 -0.5954  0.0205  0.0731
   83MOL   H11310117   5.709   0.352   0.024 -0.1412 -0.6759 -1.3499
   83MOL   H11410118   5.666   0.119   0.045 -1.0262  0.5205  0.5094
   83MOL   H11510119   5.518   0.127   7.648 -0.4361  2.0497 -1.5858
   83MOL   C11610120   5.706   0.149   7.526 -0.9957  0.4833 -1.0597
   83MOL   C11710121   5.723   7.691   7.497  0.8883 -0.6092  0.6661
   83MOL   H11810122   5.677   0.207   7.438 -1.2026 -0.2859 -1.5077
   83MOL   H11910123   5.803   0.195   7.545 -1.2554  0.4299  0.4613
   83MOL   H12010124   5.629   7.646   7.468 -0.8626  2.1566  1.8359
   83MOL   H12110125   5.795   7.668   7.418  0.0792 -0.3889 -0.1450
   83MOL   H12210126   5.767   7.652   7.589  2.6326  2.8793  1.4390
   84MOL     C110127   3.819   0.858   5.447 -0.0167 -1.2814  0.4261
   84MOL     C210128   3.913   0.888   5.561 -0.4135 -0.3600 -0.0930
   84MOL     H310129   3.716   0.884   5.474 -0.3578  0.7429 -2.5439
   84MOL     H410130   3.821   0.751   5.428 -4.4324 -1.3491 -0.2729
   84MOL     H510131   3.888   0.828   5.649 -1.4597  2.1770  1.4197
   84MOL     H610132   4.016   0.856   5.542 -1.7510 -3.2743 -2.9173
   84MOL     H710133   3.858   0.915   5.362  0.1635  1.7043  2.4215
   84MOL     C810134   3.896   1.032   5.608 -0.4709  0.6345 -0.0904
   84MOL     C910135   3.976   1.062   5.728 -0.2763  0.2882 -0.1617
   84MOL    H1010136   3.919   1.113   5.538  0.6097  1.3378  1.0490
   84MOL    H1110137   3.789   1.049   5.613 -0.7686 -1.2274  0.3638
   84MOL    H1210138   3.958   0.993   5.810 -0.5965  1.0476  0.4206
   84MOL    H1310139   4.081   1.044   5.708  0.0712  1.4820  0.5360
   84MOL    C1410140   3.955   1.209   5.768 -0.2443 -0.4421  0.5823
   84MOL    C1510141   4.048   1.274   5.873  0.8461  0.0682 -1.0025
   84MOL    H1610142   3.974   1.276   5.684 -2.1383  0.3669  0.7615
   84MOL    H1710143   3.856   1.221   5.811  0.7813 -0.5011  3.0684
   84MOL    H1810144   4.024   1.250   5.977 -1.1628  0.5866 -1.3141
   84MOL    H1910145   4.150   1.240   5.860  0.5049 -2.6424  2.7680
   84MOL    C2010146   4.025   1.428   5.868  0.1346  0.7322  0.3464
   84MOL    C2110147   4.113   1.498   5.968 -0.1107  0.9288  0.3513
   84MOL    H2210148   4.052   1.468   5.771  2.0870  0.6986  0.8561
   84MOL    H2310149   3.920   1.454   5.884  0.4427  1.3487  1.4440
   84MOL    H2410150   4.074   1.480   6.068 -0.9280  1.1488  0.0735
   84MOL    H2510151   4.211   1.456   5.943  1.2496  3.1543  1.7469
   84MOL    C2610152   4.113   1.651   5.954  0.3588 -0.0964 -0.2943
   84MOL    C2710153   4.168   1.708   6.084 -0.5928 -0.4396 -0.6646
   84MOL    H2810154   4.152   1.684   5.858  1.2306 -0.7602 -0.1779
   84MOL    H2910155   4.009   1.685   5.953  0.2016 -0.3714  2.2791
   84MOL    H3010156   4.099   1.675   6.162  1.4811  0.7786  1.7548
   84MOL    H3110157   4.270   1.670   6.098 -1.5398 -3.5836 -1.8014
   84MOL    C3210158   4.169   1.861   6.082  0.2178 -0.5529 -0.2384
   84MOL    C3310159   4.041   1.924   6.130  0.2637  0.0028  0.3891
   84MOL    H3410160   4.253   1.902   6.140  0.6518  0.3017 -1.4521
   84MOL    H3510161   4.203   1.892   5.983  2.0251 -1.5567  0.0457
   84MOL    H3610162   4.025   2.022   6.087 -1.9479 -0.4917 -0.0051
   84MOL    H3710163   3.955   1.870   6.090  0.7425  1.2877 -2.4501
   84MOL    C3810164   4.031   1.947   6.280  0.4502  0.2540 -0.4803
   84MOL    C3910165   3.905   2.011   6.336  0.1640 -0.2591 -0.1561
   84MOL    H4010166   4.034   1.846   6.323  0.5735  0.0005 -1.0766
   84MOL    H4110167   4.115   2.009   6.312 -0.5009  1.5022 -0.3652
   84MOL    H4210168   3.885   2.108   6.290  0.2137 -0.5923 -0.9015
   84MOL    H4310169   3.813   1.956   6.316 -1.7857  2.9049 -0.2354
   84MOL    C4410170   3.915   2.043   6.490  0.3888  0.7019  0.7026
   84MOL    C4510171   3.779   2.092   6.547 -0.2850  1.1316  0.7709
   84MOL    H4610172   3.949   1.957   6.548 -1.3141 -0.0508  0.6081
   84MOL    H4710173   3.980   2.129   6.506 -0.6310  1.3549  1.4279
   84MOL    H4810174   3.744   2.181   6.496 -1.2374 -0.3104 -1.1251
   84MOL    H4910175   3.698   2.033   6.506 -0.8506  3.1386 -1.0331
   84MOL    C5010176   3.767   2.095   6.701 -0.5285 -0.0190 -0.1857
   84MOL    C5110177   3.655   2.192   6.750  0.2792  0.2569 -0.3088
   84MOL    H5210178   3.748   1.996   6.742 -2.5119 -0.5303 -2.2087
   84MOL    H5310179   3.864   2.121   6.744 -0.1443 -3.9359  1.5453
   84MOL    H5410180   3.684   2.293   6.722  0.7569 -0.2829 -1.7960
   84MOL    H5510181   3.557   2.167   6.709 -0.8367  2.1629  1.1489
   84MOL    C5610182   3.655   2.192   6.904  0.3393  0.4490 -0.6342
   84MOL    C5710183   3.537   2.270   6.956  0.3792 -0.1443 -0.2808
   84MOL    H5810184   3.661   2.093   6.947 -0.6597  0.8364  0.4214
   84MOL    H5910185   3.745   2.243   6.940 -0.4499  1.0711  0.4664
   84MOL    H6010186   3.534   2.362   6.898  0.4849  0.0748  0.0624
   84MOL    H6110187   3.445   2.212   6.954 -1.3876  2.5654  0.3874
   84MOL    C6210188   3.555   2.309   7.104  0.3415 -0.2609 -0.3971
   84MOL    C6310189   3.668   2.415   7.132 -0.3734  0.0927  0.2092
   84MOL    H6410190   3.465   2.337   7.158  1.2211  1.8544  0.0452
   84MOL    H6510191   3.586   2.223   7.162 -1.2435  0.5071  1.6094
   84MOL    H6610192   3.767   2.372   7.112 -0.9066 -0.9393 -0.3015
   84MOL    H6710193   3.664   2.503   7.069 -0.4876 -0.5722 -0.7246
   84MOL    C6810194   3.658   2.456   7.279 -0.2413  1.1880  0.1939
   84MOL    C6910195   3.766   2.556   7.324 -0.2150  0.1783 -0.5089
   84MOL    H7010196   3.562   2.503   7.298 -1.4285 -0.7858 -0.7451
   84MOL    H7110197   3.663   2.362   7.335  1.0106  0.2293 -1.4519
   84MOL    H7210198   3.859   2.503   7.308 -0.2104  0.0025  0.0865
   84MOL    H7310199   3.778   2.641   7.258 -0.8138  1.2874  0.7864
   84MOL    C7410200   3.757   2.595   7.478  0.0651 -0.6048  0.1158
   84MOL    C7510201   3.863   2.706   7.509  0.3288 -0.2233 -0.4638
   84MOL    H7610202   3.663   2.649   7.490  0.6556  0.8595 -1.7120
   84MOL    H7710203   3.762   2.511   7.548  1.4284  0.5531  1.4733
   84MOL    H7810204   3.960   2.665   7.480 -0.7871 -3.9962  0.8395
   84MOL    H7910205   3.851   2.789   7.440 -0.9507 -0.6194 -0.7365
   84MOL    C8010206   3.863   2.761   7.654 -0.0260  0.0977 -0.2992
   84MOL    C8110207   3.972   2.868   7.668 -0.0619 -0.7569  0.2549
   84MOL    H8210208   3.760   2.789   7.677  0.1637 -0.2886  1.0818
   84MOL    H8310209   3.868   2.676   0.030 -0.5331  0.1773 -0.1608
   84MOL    H8410210   4.059   2.828   7.616 -0.9742  0.4147 -2.2747
   84MOL    H8510211   3.949   2.954   7.605  1.3314  0.0623  0.8405
   84MOL    C8610212   4.002   2.900   0.127 -0.1215  0.4028 -0.0485
   84MOL    C8710213   4.063   2.784   0.212  0.2859 -0.7380 -1.0049
   84MOL    H8810214   4.081   2.976   0.129  1.5071 -1.2544  1.5873
   84MOL    H8910215   3.911   2.932   0.178 -0.7167  0.8498 -1.3788
   84MOL    H9010216   3.978   2.724   0.245  1.7645 -2.7105 -0.6538
   84MOL    H9110217   4.130   2.726   0.149  2.8089  0.6129  0.3564
   84MOL    C9210218   4.145   2.838   0.329  0.6415  0.3899  0.3450
   84MOL    C9310219   4.186   2.739   0.438 -0.0713  0.3604 -0.6741
   84MOL    H9410220   4.224   2.901   0.288  1.4630 -1.7922 -1.5555
   84MOL    H9510221   4.082   2.913   0.376  0.0088  0.3498 -0.4265
   84MOL    H9610222   4.105   2.696   0.496  0.3084 -0.3293 -0.6423
   84MOL    H9710223   4.239   2.656   0.392  0.3818  0.2875 -0.0378
   84MOL    C9810224   4.283   2.795   0.539 -0.0053  0.1911 -0.5408
   84MOL    C9910225   4.324   2.692   0.643 -0.4386  0.3029  0.1453
   84MOL   H10010226   4.369   2.842   0.491  0.6060  1.5343  1.7975
   84MOL   H10110227   4.239   2.877   0.596  1.3877 -0.8717  2.1214
   84MOL   H10210228   4.233   2.640   0.673 -0.0794  0.4437  1.5055
   84MOL   H10310229   4.385   2.622   0.586 -1.2963  1.3305 -2.0761
   84MOL   C10410230   4.393   2.748   0.772 -0.1906  0.3792  0.2096
   84MOL   C10510231   4.427   2.638   0.864 -0.1353 -0.0805 -0.2347
   84MOL   H10610232   4.481   2.807   0.744  2.3136 -1.7842  3.0442
   84MOL   H10710233   4.329   2.827   0.812 -0.0112  0.1946  0.8809
   84MOL   H10810234   4.334   2.598   0.904 -0.2767  0.6673  0.1889
   84MOL   H10910235   4.481   2.554   0.819  0.9003 -0.0092  0.8614
   84MOL   C11010236   4.503   2.691   0.993 -0.5067  0.6735  0.1768
   84MOL   C11110237   4.543   2.571   1.087 -0.1635 -0.4506 -0.1669
   84MOL   H11210238   4.596   2.740   0.965 -1.7874  2.8833 -0.4197
   84MOL   H11310239   4.438   2.764   1.041 -0.6222  0.6359  0.0790
   84MOL   H11410240   4.463   2.506   1.122  0.0796 -0.3526  0.5912
   84MOL   H11510241   4.597   2.502   1.023 -3.1418 -0.3138 -3.0099
   84MOL   C11610242   4.628   2.613   1.209  0.3473  0.5025 -0.2369
   84MOL   C11710243   4.540   2.630   1.338  0.2924  0.4901 -0.3715
   84MOL   H11810244   4.704   2.537   1.230 -0.6340 -0.1193  1.2300
   84MOL   H11910245   4.682   2.705   1.188  1.7272 -0.3555 -0.5206
   84MOL   H12010246   4.594   2.661   1.427  1.5379 -2.0301 -0.1995
   84MOL   H12110247   4.471   2.714   1.334 -1.5238 -0.8837  0.9603
   84MOL   H12210248   4.479   2.543   1.362  0.0087  0.1179 -2.3329
   85MOL     C110249   0.783   4.179   3.186 -0.1793  0.0458  0.5786
   85MOL     C210250   0.785   4.084   3.058 -0.1543  0.1606 -0.1225
   85MOL     H310251   0.818   4.140   3.282  0.9924  0.5965  0.3772
   85MOL     H410252   0.677   4.199   3.202  0.2196  2.2939  0.4554
   85MOL     H510253   0.733   4.126   2.972 -1.5211 -2.1779 -0.4783
   85MOL     H610254   0.890   4.073   3.031 -0.3280  2.4178 -1.8362
   85MOL     H710255   0.849   4.262   3.164  1.3688 -1.7041 -1.6382
   85MOL     C810256   0.722   3.946   3.079  0.3756  0.2174 -0.6745
   85MOL     C910257   0.572   3.934   3.103 -0.1833  0.3176 -1.0321
   85MOL    H1010258   0.740   3.885   2.991  2.7590  0.7997 -0.6245
   85MOL    H1110259   0.771   3.887   3.157 -0.1146  1.3085  0.4767
   85MOL    H1210260   0.552   3.986   3.196 -1.4894  0.8996 -1.6370
   85MOL    H1310261   0.516   3.990   3.029 -0.0749 -1.2252 -2.3143
   85MOL    C1410262   0.505   3.795   3.100 -0.6917  0.8916 -0.2850
   85MOL    C1510263   0.575   3.683   3.200  0.8154 -0.6732  0.4982
   85MOL    H1610264   0.397   3.802   3.107 -1.1128 -3.5974 -0.6166
   85MOL    H1710265   0.525   3.753   3.001 -1.2745  0.9848 -0.4446
   85MOL    H1810266   0.673   3.653   3.161  1.3732  1.0136  0.5719
   85MOL    H1910267   0.594   3.735   3.293  2.1321  2.6710 -1.5674
   85MOL    C2010268   0.484   3.558   3.217 -0.4926 -0.2416 -0.4035
   85MOL    C2110269   0.525   3.475   3.341  0.0164 -0.9044  0.1278
   85MOL    H2210270   0.383   3.595   3.233 -1.2118 -1.8753 -1.0937
   85MOL    H2310271   0.491   3.501   3.125  2.6473 -1.0713  0.2929
   85MOL    H2410272   0.618   3.424   3.316  0.6388  0.8727 -1.2985
   85MOL    H2510273   0.552   3.531   3.431  0.0373 -0.4473 -0.1623
   85MOL    C2610274   0.417   3.383   3.377 -0.1460 -0.1577 -0.2444
   85MOL    C2710275   0.472   3.277   3.473  0.1348 -0.1480 -0.8193
   85MOL    H2810276   0.341   3.449   3.418 -0.4372 -0.1107 -0.8558
   85MOL    H2910277   0.372   3.344   3.286 -0.8481 -0.1680  0.1067
   85MOL    H3010278   0.563   3.232   3.433  0.9609 -1.7432  2.6754
   85MOL    H3110279   0.511   3.322   3.564  0.8164 -1.7994 -0.2823
   85MOL    C3210280   0.368   3.176   3.477 -1.1290 -0.2135  0.4421
   85MOL    C3310281   0.426   3.063   3.561 -0.4207 -0.7122  0.2580
   85MOL    H3410282   0.272   3.211   3.514 -1.6269 -0.8834 -0.2011
   85MOL    H3510283   0.359   3.133   3.377 -0.5153 -2.0826  1.1525
   85MOL    H3610284   0.365   2.974   3.547 -1.8670  0.6705 -2.6552
   85MOL    H3710285   0.525   3.028   3.529  0.7841  1.6374  1.3089
   85MOL    C3810286   0.433   3.088   3.704  0.2341 -0.4743  0.2000
   85MOL    C3910287   0.475   2.968   3.788 -0.2057  0.1145  0.6090
   85MOL    H4010288   0.494   3.174   3.731 -0.5481  0.1437  0.0334
   85MOL    H4110289   0.332   3.119   3.732  0.2119 -0.3974  0.0385
   85MOL    H4210290   0.394   2.895   3.787 -1.9712  1.9583  2.4529
   85MOL    H4310291   0.557   2.929   3.728 -0.4189  0.4290  0.1054
   85MOL    C4410292   0.515   3.008   3.935  0.0632  0.6430  0.1236
   85MOL    C4510293   0.482   2.896   4.034  0.8411 -0.2301 -0.6705
   85MOL    H4610294   0.622   3.020   3.921  0.3666 -2.0631 -0.1088
   85MOL    H4710295   0.470   3.104   3.961 -0.4415  0.4532 -0.0373
   85MOL    H4810296   0.374   2.885   4.045  0.8290 -0.2148 -0.7731
   85MOL    H4910297   0.519   2.806   3.986  0.4461 -0.0179 -1.3889
   85MOL    C5010298   0.562   2.919   4.161 -0.1587  0.4966 -0.2122
   85MOL    C5110299   0.553   2.803   4.262 -0.6978 -0.3491  0.3551
   85MOL    H5210300   0.664   2.941   4.129 -0.1490  0.6345 -0.0853
   85MOL    H5310301   0.521   3.003   4.216 -1.5717 -0.4539  0.2262
   85MOL    H5410302   0.453   2.775   4.295 -1.1918  1.2063  0.2462
   85MOL    H5510303   0.579   2.708   4.217 -1.6067 -0.6798  0.5271
   85MOL    C5610304   0.643   2.804   4.388  0.4981  0.8615 -0.0248
   85MOL    C5710305   0.622   2.931   4.468  0.1545 -0.2804  0.1837
   85MOL    H5810306   0.637   2.719   4.456  1.4087 -0.7037 -1.8532
   85MOL    H5910307   0.744   2.801   4.347 -0.3617  1.9526 -2.2754
   85MOL    H6010308   0.700   2.941   4.543 -2.0122  3.5422  2.0711
   85MOL    H6110309   0.636   3.026   4.416  2.1891 -1.4455 -1.5162
   85MOL    C6210310   0.482   2.941   4.527  0.3770 -0.1123  0.3731
   85MOL    C6310311   0.448   2.839   4.642 -0.0519  0.0390 -0.0658
   85MOL    H6410312   0.474   3.039   4.574 -0.6306 -0.2475  0.4986
   85MOL    H6510313   0.417   2.938   4.439  0.1862 -0.4795  0.5230
   85MOL    H6610314   0.468   2.737   4.609  0.0691  0.1040 -0.1902
   85MOL    H6710315   0.521   2.865   4.718 -0.2675  2.9008 -0.8085
   85MOL    C6810316   0.301   2.848   4.691  0.3154  0.6723 -0.1725
   85MOL    C6910317   0.204   2.786   4.590  0.2832  0.3162 -0.6020
   85MOL    H7010318   0.295   2.807   4.792  1.2166  0.6401 -0.1276
   85MOL    H7110319   0.284   2.952   4.718  2.3477  1.3987 -1.4951
   85MOL    H7210320   0.226   2.832   4.494 -1.0019 -0.2246 -1.1609
   85MOL    H7310321   0.242   2.687   4.564 -1.4166 -0.4893 -0.0809
   85MOL    C7410322   0.054   2.773   4.635 -0.5456  0.8957 -0.2099
   85MOL    C7510323   7.645   2.722   4.537 -0.1336 -0.5208 -0.2982
   85MOL    H7610324   0.048   2.705   4.720  1.0257  1.1356  0.1144
   85MOL    H7710325   0.023   2.872   4.668  0.7286  1.4009 -0.4998
   85MOL    H7810326   7.644   2.771   4.440  0.1100 -0.4735 -0.2762
   85MOL    H7910327   7.665   2.616   4.524 -0.2934 -0.5247 -0.5034
   85MOL    C8010328   7.508   2.733   4.606 -0.0850  0.1167  0.6551
   85MOL    C8110329   7.399   2.721   4.502  0.3142  0.6418 -0.5811
   85MOL    H8210330   7.500   2.659   4.686 -0.6676 -0.0372  0.4529
   85MOL    H8310331   7.494   2.831   4.650 -0.2975 -0.1107  1.0920
   85MOL    H8410332   7.300   2.727   4.548  0.6083 -2.2130  0.5415
   85MOL    H8510333   7.404   2.801   4.429  0.5726  0.5855 -0.6260
   85MOL    C8610334   7.405   2.591   4.409 -0.2173 -0.2505 -0.3482
   85MOL    C8710335   7.302   2.585   4.294 -0.1674  0.2050 -0.4850
   85MOL    H8810336   7.504   2.585   4.363  0.7326  1.7969  1.3260
   85MOL    H8910337   7.393   2.506   4.475 -1.1014  1.0039  1.1248
   85MOL    H9010338   7.298   2.482   4.259 -1.2342 -0.0183  0.2342
   85MOL    H9110339   7.203   2.595   4.338 -1.3650 -1.6146 -2.6878
   85MOL    C9210340   7.342   2.673   4.177  0.4923  0.1002 -0.2571
   85MOL    C9310341   7.266   2.657   4.048  0.1817  0.3021  0.0028
   85MOL    H9410342   7.340   2.779   4.204 -0.9268  0.9150 -3.2885
   85MOL    H9510343   7.447   2.657   4.150  0.4066 -0.4851 -0.2422
   85MOL    H9610344   7.271   2.553   4.016 -1.2461  0.0398  0.5886
   85MOL    H9710345   7.162   2.662   4.079  0.0603 -0.5797 -0.2690
   85MOL    C9810346   7.323   2.757   3.945  0.6439  0.0991  0.0144
   85MOL    C9910347   7.257   2.727   3.809 -0.0726  0.2582 -0.1094
   85MOL   H10010348   7.304   2.860   3.975  1.9483 -0.2681  2.1599
   85MOL   H10110349   7.428   2.746   3.920 -0.1308 -0.7708 -3.0721
   85MOL   H10210350   7.286   2.630   3.768  1.9619  0.7627  0.1071
   85MOL   H10310351   7.154   2.727   3.845  0.2124  1.9603  0.7266
   85MOL   C10410352   7.284   2.838   3.710  0.4465 -0.1691 -0.5614
   85MOL   C10510353   7.200   2.827   3.583  0.1693 -0.6469  0.3801
   85MOL   H10610354   7.264   2.933   3.760 -2.8537 -0.7129 -0.7560
   85MOL   H10710355   7.388   2.829   3.679  0.2605 -0.6949 -1.0412
   85MOL   H10810356   7.210   2.726   3.543  1.9346  0.3220 -1.7067
   85MOL   H10910357   7.097   2.825   3.617 -0.2275 -0.4129 -0.8034
   85MOL   C11010358   7.208   2.942   3.476  0.0721  0.0567 -0.8413
   85MOL   C11110359   7.334   2.924   3.384 -0.4439  0.1803  1.0284
   85MOL   H11210360   7.112   2.933   3.423  0.4050 -0.7757 -1.3203
   85MOL   H11310361   7.218   3.043   3.514 -0.1136  0.0459 -0.7639
   85MOL   H11410362   7.422   2.936   3.448 -0.3305 -1.0506  1.0994
   85MOL   H11510363   7.328   2.832   3.327 -0.4322  0.8877 -0.1191
   85MOL   C11610364   7.331   3.036   3.271 -0.3471  0.2966  0.2982
   85MOL   C11710365   7.216   3.008   3.168 -0.0081 -0.6601 -0.3691
   85MOL   H11810366   7.324   3.132   3.323 -0.2088  0.4581  0.0177
   85MOL   H11910367   7.424   3.023   3.216 -0.6800 -0.3742 -0.1064
   85MOL   H12010368   7.204   3.087   3.095  2.6589 -0.7104 -0.9134
   85MOL   H12110369   7.228   2.914   3.114 -1.4840 -1.3032  0.3749
   85MOL   H12210370   7.119   2.998   3.217 -0.5635  2.0614 -0.8743
   86MOL     C110371   5.783   6.509   3.597  0.4988 -0.2517 -0.1223
   86MOL     C210372   5.885   6.392   3.611 -0.1217 -0.6720  0.0880
   86MOL     H310373   5.754   6.529   3.494 -0.1574 -1.5507 -0.1975
   86MOL     H410374   5.824   6.599   3.643 -0.7860  0.8431 -1.1054
   86MOL     H510375   5.972   6.439   3.564  1.0260 -1.4817  1.3576
   86MOL     H610376   5.908   6.388   3.718  0.1184 -2.3190 -0.0184
   86MOL     H710377   5.694   6.481   3.654 -1.1446  3.1654 -0.9170
   86MOL     C810378   5.853   6.262   3.534 -0.1494 -0.1063  0.1711
   86MOL     C910379   5.957   6.150   3.531 -0.2660  0.3750  0.3537
   86MOL    H1010380   5.763   6.214   3.573  0.8666 -0.4469  2.1227
   86MOL    H1110381   5.835   6.285   3.429  0.4522 -1.1276 -0.1601
   86MOL    H1210382   6.050   6.181   3.484 -0.6082  0.0029 -0.5784
   86MOL    H1310383   5.981   6.102   3.626 -0.6226 -3.1281 -1.2493
   86MOL    C1410384   5.902   6.029   3.456  0.0165  0.0316  0.0324
   86MOL    C1510385   6.011   5.932   3.410  0.1404 -0.0528  0.1402
   86MOL    H1610386   5.820   5.983   3.511 -1.2310  0.9663 -1.0373
   86MOL    H1710387   5.853   6.063   3.365 -1.5082 -0.2832  0.7276
   86MOL    H1810388   6.076   5.986   3.341 -0.2609 -1.4430 -1.3581
   86MOL    H1910389   6.074   5.914   3.498 -0.8665 -0.5905  0.7544
   86MOL    C2010390   5.952   5.806   3.337 -0.8244  0.3780  0.2308
   86MOL    C2110391   5.905   5.703   3.441  0.3467 -0.2253  0.2451
   86MOL    H2210392   5.876   5.831   3.264 -0.7304 -0.5111 -0.1661
   86MOL    H2310393   6.037   5.759   3.288 -0.7679  1.6629 -0.9505
   86MOL    H2410394   5.979   5.657   3.507 -0.0063 -3.1154 -1.3054
   86MOL    H2510395   5.839   5.762   3.505  0.5533  3.1275 -2.5196
   86MOL    C2610396   5.828   5.595   3.372 -0.0330 -0.2245  0.1325
   86MOL    C2710397   5.759   5.495   3.472  0.4454  0.1881 -0.0235
   86MOL    H2810398   5.754   5.633   3.302  0.6589  1.7034  0.4131
   86MOL    H2910399   5.892   5.526   3.318 -0.7208  0.3106 -1.3754
   86MOL    H3010400   5.750   5.401   3.418 -2.0778 -0.8401  2.0301
   86MOL    H3110401   5.821   5.470   3.558  1.9677 -1.9459 -1.7190
   86MOL    C3210402   5.619   5.530   3.516 -0.2108  0.2235  0.3102
   86MOL    C3310403   5.561   5.428   3.617 -0.2438  0.3105 -0.3972
   86MOL    H3410404   5.611   5.635   3.544 -0.7890  0.3609 -0.3359
   86MOL    H3510405   5.555   5.521   3.428 -1.0666  1.3508  0.8034
   86MOL    H3610406   5.577   5.324   3.589  2.5317  0.5453  0.1863
   86MOL    H3710407   5.623   5.441   3.706 -0.7061  2.2453 -0.3236
   86MOL    C3810408   5.410   5.455   3.642  0.5165 -0.1008 -0.4467
   86MOL    C3910409   5.322   5.388   3.538 -0.5783  0.0737  0.3203
   86MOL    H4010410   5.376   5.406   3.733  0.8601 -0.8648 -0.7300
   86MOL    H4110411   5.394   5.563   3.647  3.1277  0.4026 -1.7315
   86MOL    H4210412   5.250   5.463   3.504 -0.1655 -0.1691 -1.1439
   86MOL    H4310413   5.372   5.380   3.442  1.2093  0.7114  1.1880
   86MOL    C4410414   5.263   5.254   3.559  0.7226  0.2965 -0.2885
   86MOL    C4510415   5.152   5.219   3.449  0.2546 -0.4648  0.2364
   86MOL    H4610416   5.350   5.189   3.554  0.7803  0.0445  2.9346
   86MOL    H4710417   5.223   5.243   3.660  1.3227  0.1695 -0.0602
   86MOL    H4810418   5.082   5.302   3.438 -0.6153 -1.1928  0.1523
   86MOL    H4910419   5.204   5.188   3.359  1.1808 -0.7600  0.8717
   86MOL    C5010420   5.076   5.088   3.493  0.2486  0.3600 -0.0069
   86MOL    C5110421   5.009   5.094   3.630 -0.0098  0.1734  0.0533
   86MOL    H5210422   4.994   5.064   3.426  0.4865 -0.9971  0.1659
   86MOL    H5310423   5.146   5.006   3.474 -0.3630 -0.2207  0.2451
   86MOL    H5410424   5.076   5.114   3.713 -3.0538  0.0028  2.6848
   86MOL    H5510425   4.943   5.182   3.628 -0.1825  0.0466  0.1245
   86MOL    C5610426   4.933   4.960   3.663 -0.3997  0.2733  0.1403
   86MOL    C5710427   4.863   4.982   3.797  0.6331  0.2094 -0.3849
   86MOL    H5810428   4.855   4.925   3.596 -0.0792  1.2919 -0.7585
   86MOL    H5910429   5.004   4.878   3.656 -0.0379  0.2498  3.2057
   86MOL    H6010430   4.935   5.000   3.877 -0.2606  2.1380  0.0186
   86MOL    H6110431   4.803   5.073   3.801  2.0591  1.1876 -0.6818
   86MOL    C6210432   4.771   4.863   3.840 -0.1054 -0.2020  0.7837
   86MOL    C6310433   4.710   4.862   3.988  0.5863 -0.3920  0.5773
   86MOL    H6410434   4.700   4.851   3.758 -0.4570 -1.7876  1.2912
   86MOL    H6510435   4.824   4.769   3.823  0.3746  0.2829 -0.3977
   86MOL    H6610436   4.687   4.764   4.029  0.0299 -0.4844  0.0521
   86MOL    H6710437   4.788   4.894   4.057  0.4314  1.3041 -0.0007
   86MOL    C6810438   4.596   4.958   3.997  0.2687  0.4956  0.3959
   86MOL    C6910439   4.525   4.959   4.132  0.0836  0.2278  0.3703
   86MOL    H7010440   4.639   5.058   3.989 -1.4982  1.2009 -0.3981
   86MOL    H7110441   4.525   4.938   3.917  2.9265 -0.5905 -1.7870
   86MOL    H7210442   4.489   4.862   4.167  0.6702  0.6623  2.2316
   86MOL    H7310443   4.598   4.992   4.205 -1.2346 -1.0647  2.3190
   86MOL    C7410444   4.418   5.060   4.135 -0.2093 -0.5459 -0.9968
   86MOL    C7510445   4.373   5.095   4.275  0.1916  0.1993  0.2917
   86MOL    H7610446   4.459   5.156   4.102  1.5093 -0.4372  1.3589
   86MOL    H7710447   4.328   5.026   4.084  0.1841 -1.1947 -1.2590
   86MOL    H7810448   4.343   5.002   4.324  3.4641 -1.3306 -0.4596
   86MOL    H7910449   4.453   5.153   4.321  0.8395 -0.5188  0.0924
   86MOL    C8010450   4.255   5.192   4.264  0.2810  0.3141 -0.1876
   86MOL    C8110451   4.198   5.244   4.399 -0.6114 -0.0184 -0.1483
   86MOL    H8210452   4.291   5.277   4.206  1.9891  0.8658  1.6102
   86MOL    H8310453   4.172   5.159   4.201 -1.6642  0.9550  1.9257
   86MOL    H8410454   4.184   5.157   4.463 -0.6349 -1.2298 -1.7846
   86MOL    H8510455   4.278   5.300   4.448  0.0751  1.2467 -2.6414
   86MOL    C8610456   4.065   5.327   4.381 -0.8569  0.1556 -0.7411
   86MOL    C8710457   4.012   5.365   4.513  0.2574  0.2021  0.6267
   86MOL    H8810458   4.079   5.420   4.325 -0.8528  0.0055 -0.9880
   86MOL    H8910459   4.003   5.266   4.316  2.2168 -2.4953 -1.3202
   86MOL    H9010460   4.003   5.277   4.577  1.2662 -0.8389 -0.6260
   86MOL    H9110461   4.084   5.436   4.553  1.4440 -1.3445  1.2803
   86MOL    C9210462   3.873   5.440   4.504  0.0358  0.1166 -0.4623
   86MOL    C9310463   3.813   5.454   4.656 -0.6908  0.0490  0.3148
   86MOL    H9410464   3.906   5.540   4.477 -0.3867  0.2574 -0.4485
   86MOL    H9510465   3.800   5.394   4.438 -0.7080  0.9955 -0.2450
   86MOL    H9610466   3.802   5.355   4.700  0.1593 -0.6746 -1.0821
   86MOL    H9710467   3.892   5.498   4.718 -2.0879  1.3445  1.2289
   86MOL    C9810468   3.700   5.557   4.669 -0.7544  1.0191 -0.2129
   86MOL    C9910469   3.694   5.623   4.814 -0.1925 -0.2556  0.3974
   86MOL   H10010470   3.700   5.643   4.602  0.1842  1.9364  0.9175
   86MOL   H10110471   3.615   5.493   4.646 -1.7444  1.5575  1.7599
   86MOL   H10210472   3.653   5.552   4.887 -1.7136 -0.8841 -1.0523
   86MOL   H10310473   3.787   5.658   4.859 -0.6139  0.8704  0.4250
   86MOL   C10410474   3.604   5.746   4.811  0.8733  0.3113 -0.0638
   86MOL   C10510475   3.599   5.816   4.947  0.3347  0.7405 -0.1837
   86MOL   H10610476   3.644   5.820   4.742  1.3349 -0.3139 -0.4707
   86MOL   H10710477   3.502   5.723   4.782 -0.0085  3.4527  0.3546
   86MOL   H10810478   3.567   5.753   5.029  1.6037  1.0883  0.5859
   86MOL   H10910479   3.700   5.841   4.980  0.1433  1.3008 -0.0198
   86MOL   C11010480   3.516   5.948   4.955  0.1065  0.3870 -0.4942
   86MOL   C11110481   3.461   5.988   5.093  0.2907 -0.4027 -0.2529
   86MOL   H11210482   3.574   6.032   4.917 -2.8966  2.8349  0.2597
   86MOL   H11310483   3.418   5.929   4.911 -0.3351 -3.6689  2.0030
   86MOL   H11410484   3.405   5.907   5.139  1.2606 -0.6717  0.4651
   86MOL   H11510485   3.545   6.012   5.157  0.3144 -0.0731 -0.4074
   86MOL   C11610486   3.368   6.113   5.093 -0.0586 -0.5418 -0.5775
   86MOL   C11710487   3.299   6.117   5.228 -0.4115  0.8230 -0.2479
   86MOL   H11810488   3.414   6.210   5.070  1.4424 -1.2371 -0.5240
   86MOL   H11910489   3.294   6.098   5.015 -0.4172  0.0769 -0.3632
   86MOL   H12010490   3.254   6.018   5.243  1.7813 -0.1430  0.1520
   86MOL   H12110491   3.364   6.141   5.312  0.1995 -0.4775 -0.3371
   86MOL   H12210492   3.211   6.180   5.224 -0.7804  0.4651  1.7338
   87MOL     C110493   0.266   7.157   4.238 -0.3651 -0.1682  0.0838
   87MOL     C210494   0.268   7.097   4.376  0.0245 -0.1792 -0.4445
   87MOL     H310495   0.295   7.078   4.168  2.9702  0.6993  0.4388
   87MOL     H410496   0.344   7.233   4.232  0.1822 -0.7195  0.1279
   87MOL     H510497   0.188   7.023   4.370 -1.1350  1.1617 -2.0810
   87MOL     H610498   0.364   7.047   4.383 -0.1071 -0.1383  2.1667
   87MOL     H710499   0.175   7.212   4.215  0.8672  0.7989 -2.7134
   87MOL     C810500   0.243   7.209   4.477  0.0257 -0.2637  0.3713
   87MOL     C910501   0.248   7.160   4.619  0.2453  0.0018 -0.1494
   87MOL    H1010502   0.329   7.275   4.475 -0.7142  0.6961 -0.0480
   87MOL    H1110503   0.149   7.259   4.455  0.7636  0.4455 -1.2329
   87MOL    H1210504   0.198   7.064   4.634  1.3299 -0.5276  0.1208
   87MOL    H1310505   0.350   7.143   4.653 -0.2317 -0.0377  1.3000
   87MOL    C1410506   0.216   7.278   4.715  0.1564  0.5354  0.7359
   87MOL    C1510507   0.231   7.248   4.861  0.3819 -0.6578 -0.3833
   87MOL    H1610508   0.277   7.367   4.697  0.7988  0.0513  0.5039
   87MOL    H1710509   0.118   7.317   4.689  0.8687  0.4159 -2.3079
   87MOL    H1810510   0.148   7.181   4.886 -0.4153  0.0785 -1.0390
   87MOL    H1910511   0.323   7.197   4.890  1.7155  0.4463 -2.5244
   87MOL    C2010512   0.227   7.371   4.951  0.3985  0.7020  1.1553
   87MOL    C2110513   0.235   7.336   5.099 -0.0431  0.0403 -0.0129
   87MOL    H2210514   0.302   7.447   4.929 -0.3301  1.2413  0.4712
   87MOL    H2310515   0.132   7.421   4.930 -0.4692 -2.0588 -2.0766
   87MOL    H2410516   0.152   7.273   5.132  1.0715 -1.2865  0.2790
   87MOL    H2510517   0.325   7.278   5.117 -0.0882  0.5340  1.9064
   87MOL    C2610518   0.235   7.460   5.185 -0.1123  0.0814  0.9440
   87MOL    C2710519   0.242   7.414   5.342 -0.0886  0.5408 -0.0236
   87MOL    H2810520   0.326   7.518   5.170 -1.2174  0.8144 -3.5894
   87MOL    H2910521   0.138   7.506   5.165 -0.6481 -1.7312 -0.7698
   87MOL    H3010522   0.156   7.351   5.365  1.3453 -1.6639 -0.5148
   87MOL    H3110523   0.333   7.355   5.355 -0.4863  0.2261  1.4471
   87MOL    C3210524   0.233   7.532   5.429  0.4212 -0.9836  0.3788
   87MOL    C3310525   0.248   7.489   5.574  0.5527 -0.7052 -0.3873
   87MOL    H3410526   0.293   7.613   5.388 -0.6192 -0.4217 -0.0686
   87MOL    H3510527   0.135   7.578   5.414  1.3162  1.3051  1.3367
   87MOL    H3610528   0.184   7.404   5.598 -0.3824 -0.3016 -1.3852
   87MOL    H3710529   0.349   7.451   5.587  0.2214 -0.3510  3.9943
   87MOL    C3810530   0.230   7.605   5.678  0.4047  0.1103  0.2164
   87MOL    C3910531   0.255   7.564   5.824 -0.0613 -0.7642  0.6905
   87MOL    H4010532   0.301   7.682   5.648 -0.9189  0.8757 -0.9869
   87MOL    H4110533   0.129   7.644   5.666  1.2167  2.4128  0.5226
   87MOL    H4210534   0.172   7.504   5.863  0.0856  0.0642  2.2969
   87MOL    H4310535   0.350   7.512   5.835  0.8713  0.4137 -1.3990
   87MOL    C4410536   0.275   7.690   5.915  0.2294 -0.3155  0.2094
   87MOL    C4510537   0.298   7.658   6.062  0.9625 -0.8141 -0.1100
   87MOL    H4610538   0.355   0.052   5.866  0.1573  0.6211  1.1207
   87MOL    H4710539   0.182   0.056   5.909  0.3034 -0.4568 -3.8728
   87MOL    H4810540   0.218   7.598   6.103  1.0011 -2.0232 -1.7371
   87MOL    H4910541   0.384   7.593   6.075  1.0770 -1.1379 -2.2386
   87MOL    C5010542   0.322   0.094   6.131 -0.0862  0.8572 -0.1130
   87MOL    C5110543   0.344   0.073   6.286  0.1464 -0.6725 -0.4025
   87MOL    H5210544   0.400   0.149   6.077  0.6753  0.1816  0.2783
   87MOL    H5310545   0.231   0.152   6.114 -0.5508  0.4015  0.8181
   87MOL    H5410546   0.250   0.022   6.307 -2.0949  3.6224  0.5851
   87MOL    H5510547   0.413   7.691   6.327  0.9213 -0.4194 -1.2321
   87MOL    C5610548   0.339   0.213   6.364  0.1736  0.3438  0.8343
   87MOL    C5710549   0.353   0.201   6.516 -0.4420  0.3288 -0.1530
   87MOL    H5810550   0.421   0.274   6.326  0.2614 -0.2382  0.0863
   87MOL    H5910551   0.240   0.256   6.346  0.3810  0.2503 -0.5665
   87MOL    H6010552   0.267   0.143   6.552  0.0207 -1.4485 -1.8078
   87MOL    H6110553   0.449   0.166   6.553 -1.1374 -0.5265  0.8920
   87MOL    C6210554   0.342   0.338   6.582  0.6549  0.0676  0.7147
   87MOL    C6310555   0.371   0.329   6.734 -0.4439 -0.1602  0.2296
   87MOL    H6410556   0.393   0.419   6.529  0.0382 -0.7935 -1.2374
   87MOL    H6510557   0.240   0.375   6.568  0.4239 -0.0836  1.9676
   87MOL    H6610558   0.304   0.253   6.774  0.4434 -1.5174 -0.7858
   87MOL    H6710559   0.473   0.289   6.737 -0.1727  0.1496 -2.9900
   87MOL    C6810560   0.355   0.462   6.806  0.4941  0.4689  0.0325
   87MOL    C6910561   0.437   0.462   6.943  0.6350 -0.2703 -0.5428
   87MOL    H7010562   0.407   0.539   6.750  1.9296 -0.3385  0.2245
   87MOL    H7110563   0.248   0.477   6.819 -0.0658 -1.8740 -1.4624
   87MOL    H7210564   0.404   0.381   7.008 -1.1081  1.0069  0.2092
   87MOL    H7310565   0.541   0.447   6.916  0.6437  0.4702 -0.9298
   87MOL    C7410566   0.435   0.602   7.009 -0.5370  0.0892 -0.2320
   87MOL    C7510567   0.524   0.618   7.134 -0.0671 -0.1453 -0.0219
   87MOL    H7610568   0.470   0.669   6.930  1.0409  0.2272  0.5632
   87MOL    H7710569   0.333   0.633   7.031  0.0946  2.4562 -0.4274
   87MOL    H7810570   0.500   0.542   7.209  0.5040 -0.3623 -0.0515
   87MOL    H7910571   0.626   0.615   7.096 -0.9062  0.4396 -2.4107
   87MOL    C8010572   0.490   0.743   7.216  0.1418  0.2602 -0.2457
   87MOL    C8110573   0.612   0.781   7.307  0.9161 -0.0429 -0.0613
   87MOL    H8210574   0.472   0.823   7.144 -1.9155  1.5127  1.5859
   87MOL    H8310575   0.393   0.728   7.264  1.0352  1.5578  2.0558
   87MOL    H8410576   0.639   0.698   7.372  0.8161  0.7676  1.0399
   87MOL    H8510577   0.705   0.785   7.250  0.9005 -0.3172 -0.1068
   87MOL    C8610578   0.587   0.900   7.393  0.3645 -0.1742 -0.5073
   87MOL    C8710579   0.703   0.933   7.490  0.5026 -0.3229  0.5534
   87MOL    H8810580   0.581   0.985   7.326  1.8236  1.0306  0.8623
   87MOL    H8910581   0.494   0.888   7.449 -1.2636  2.8320 -2.4224
   87MOL    H9010582   0.741   0.857   7.558  0.1219 -0.4001  0.6752
   87MOL    H9110583   0.791   0.957   7.430  0.7191 -0.0845  0.9649
   87MOL    C9210584   0.657   1.057   7.575 -0.4225 -0.8234  0.2154
   87MOL    C9310585   0.765   1.105   7.678 -0.0481  0.0955 -0.1820
   87MOL    H9410586   0.648   1.142   7.508  0.7794  0.8654  2.1553
   87MOL    H9510587   0.565   1.041   7.631 -0.6458  2.8039  0.9608
   87MOL    H9610588   0.791   1.025   0.054  0.4801  0.3152 -0.1225
   87MOL    H9710589   0.856   1.136   7.627  0.0921  1.2162  0.7135
   87MOL    C9810590   0.713   1.223   0.071  0.0919 -0.1275 -0.2246
   87MOL    C9910591   0.797   1.264   0.189  0.7461  0.5162 -0.9150
   87MOL   H10010592   0.705   1.303   7.689 -0.3554 -1.1601 -1.3116
   87MOL   H10110593   0.607   1.211   0.096 -0.0746  2.6119  0.4900
   87MOL   H10210594   0.753   1.329   0.265 -0.1192 -2.1275  0.9211
   87MOL   H10310595   0.808   1.172   0.246  0.8763  1.8064  1.2115
   87MOL   C10410596   0.940   1.311   0.163 -0.3430 -0.6776 -0.8936
   87MOL   C10510597   1.035   1.329   0.294  0.1293 -0.2852 -0.4348
   87MOL   H10610598   0.990   1.235   0.103  0.8385 -1.7660  1.4213
   87MOL   H10710599   0.930   1.401   0.102 -2.0844 -0.2582 -0.0147
   87MOL   H10810600   0.989   1.392   0.370  1.3823 -1.1167  1.0448
   87MOL   H10910601   1.041   1.227   0.330  0.7368 -0.4694 -1.0527
   87MOL   C11010602   1.180   1.355   0.263  0.1344 -0.2447  0.2733
   87MOL   C11110603   1.269   1.314   0.391 -0.0905  0.4660  0.3923
   87MOL   H11210604   1.204   1.285   0.183  0.9679 -1.9905  1.9956
   87MOL   H11310605   1.188   1.457   0.227 -0.6032  0.0786  1.0172
   87MOL   H11410606   1.236   1.379   0.472  1.5454  1.2612  0.4474
   87MOL   H11510607   1.254   1.208   0.412  0.5665 -0.2850 -2.5875
   87MOL   C11610608   1.416   1.321   0.348 -0.4987  1.2790 -0.3634
   87MOL   C11710609   1.498   1.278   0.467 -0.0603  0.7268 -0.1525
   87MOL   H11810610   1.442   1.251   0.269 -0.4198  1.7957 -0.7930
   87MOL   H11910611   1.453   1.421   0.327  2.0778  0.2414 -0.8805
   87MOL   H12010612   1.474   1.336   0.556  2.2273  2.6085 -0.7151
   87MOL   H12110613   1.501   1.171   0.487  1.1749  1.0091  1.3120
   87MOL   H12210614   1.605   1.295   0.457 -0.0033  0.8632  0.6827
   88MOL     C110615   6.671   3.886   4.071  0.1174  0.0268 -0.7788
   88MOL     C210616   6.663   3.934   3.923  0.0260  0.2939 -0.0428
   88MOL     H310617   6.749   3.936   4.129 -0.6602 -3.0825  3.1138
   88MOL     H410618   6.701   3.781   4.072 -0.5404 -0.1614 -0.7100
   88MOL     H510619   6.591   3.874   3.869  0.5547  1.2595 -1.8685
   88MOL     H610620   6.615   4.032   3.918  0.7816  0.7069  0.6392
   88MOL     H710621   6.577   3.897   4.124  1.2984 -0.1512  1.4020
   88MOL     C810622   6.809   3.934   3.867  0.5031 -0.0458 -0.0837
   88MOL     C910623   6.892   4.061   3.899 -0.0717  0.3404 -0.2496
   88MOL    H1010624   6.866   3.844   3.892  0.2474 -0.2842 -0.3454
   88MOL    H1110625   6.799   3.940   3.759 -0.3682  0.2639  0.0064
   88MOL    H1210626   6.838   4.153   3.874 -1.6187 -0.1847  1.0506
   88MOL    H1310627   6.909   4.073   4.006 -1.9647 -0.5313  0.1731
   88MOL    C1410628   7.020   4.059   3.829  0.3439 -0.3580  0.0978
   88MOL    C1510629   7.100   4.183   3.857 -0.3980 -0.4246 -0.2284
   88MOL    H1610630   7.086   3.977   3.856 -0.0887 -0.8968 -0.4848
   88MOL    H1710631   6.995   4.051   3.724  3.4135 -0.4326 -0.6546
   88MOL    H1810632   7.040   4.268   3.826  1.1588  1.3196  1.3163
   88MOL    H1910633   7.108   4.205   3.964 -0.6546  0.9329 -0.4710
   88MOL    C2010634   7.234   4.184   3.794 -0.4490 -0.2211  0.4005
   88MOL    C2110635   7.229   4.171   3.639 -0.5173  0.5935  0.4294
   88MOL    H2210636   7.280   4.280   3.817  1.3255 -0.8637 -0.4119
   88MOL    H2310637   7.312   4.124   3.841 -0.3071 -2.2285 -2.2891
   88MOL    H2410638   7.172   4.085   3.605  0.2229 -0.0692  0.8240
   88MOL    H2510639   7.179   4.254   3.590 -1.3297  1.2978  2.4054
   88MOL    C2610640   7.374   4.164   3.575  0.4613 -0.1366 -0.3458
   88MOL    C2710641   7.463   4.294   3.588  0.0570 -0.3524 -0.7701
   88MOL    H2810642   7.420   4.069   3.601  0.7396  0.2683  0.6689
   88MOL    H2910643   7.358   4.145   3.469  3.6638 -0.4771 -0.8228
   88MOL    H3010644   7.466   4.331   3.691  0.5291  0.6319 -1.1335
   88MOL    H3110645   7.568   4.274   3.569  0.4721  1.7777 -0.8890
   88MOL    C3210646   7.411   4.408   3.492 -0.2371  0.2927  0.5729
   88MOL    C3310647   7.338   4.519   3.566 -0.9151  0.0684 -0.5237
   88MOL    H3410648   7.500   4.447   3.445 -0.7238 -0.5739 -1.0990
   88MOL    H3510649   7.353   4.373   3.406  1.2561 -1.3832  0.2285
   88MOL    H3610650   7.301   4.593   3.495 -0.9569  0.6577  0.1108
   88MOL    H3710651   7.249   4.475   3.610 -0.8469 -1.2404 -1.6667
   88MOL    C3810652   7.426   4.602   3.661 -0.7859  0.6585 -0.0308
   88MOL    C3910653   7.339   4.688   3.759 -0.7599  0.2206 -0.8037
   88MOL    H4010654   7.496   4.550   3.726 -1.0827  0.1596 -0.1065
   88MOL    H4110655   7.496   4.668   3.610 -0.3066  1.8700  2.1284
   88MOL    H4210656   7.277   4.757   3.702  1.2378  2.1583 -0.6800
   88MOL    H4310657   7.284   4.610   3.813  1.8850 -2.0828 -1.2797
   88MOL    C4410658   7.427   4.762   3.855 -0.2589 -0.2035  0.1660
   88MOL    C4510659   7.355   4.817   3.978  0.5898 -0.3895  1.0310
   88MOL    H4610660   7.504   4.697   3.898  0.1958  0.3259  0.1656
   88MOL    H4710661   7.482   4.840   3.801 -0.9312  0.6603  0.7032
   88MOL    H4810662   7.270   4.873   3.941  0.7524 -1.0901 -0.4070
   88MOL    H4910663   7.309   4.734   4.032 -0.7316  0.1972  0.8061
   88MOL    C5010664   7.438   4.898   4.075 -0.0575  0.0445 -0.0716
   88MOL    C5110665   7.347   4.948   4.186 -0.5085 -0.3660 -0.2239
   88MOL    H5210666   7.514   4.834   4.120 -1.1962 -0.5889  1.0029
   88MOL    H5310667   7.497   4.981   4.036  0.1030  1.2491  2.6404
   88MOL    H5410668   7.261   5.001   4.146 -2.8929 -2.2658  2.1804
   88MOL    H5510669   7.323   4.868   4.256 -0.7995 -0.2582 -0.1993
   88MOL    C5610670   7.431   5.033   4.285  0.0520 -0.0123  0.1322
   88MOL    C5710671   7.361   5.073   4.416 -0.0575 -0.4090  0.0130
   88MOL    H5810672   7.509   4.963   4.314  0.3259 -0.1481 -0.8899
   88MOL    H5910673   7.483   5.120   4.244  2.0925 -0.6911  1.2237
   88MOL    H6010674   7.263   5.118   4.402  0.0095 -1.0997 -3.0829
   88MOL    H6110675   7.331   4.986   4.475 -1.6136  1.1302  1.5205
   88MOL    C6210676   7.451   5.165   4.502 -0.2626 -0.2061  0.0104
   88MOL    C6310677   7.393   5.205   4.642  0.1245 -0.1436 -0.5926
   88MOL    H6410678   7.547   5.117   4.519 -1.2088 -2.2225 -0.2815
   88MOL    H6510679   7.478   5.253   4.443  1.3585  0.1979  1.3231
   88MOL    H6610680   7.299   5.256   4.622  0.0230 -0.2531 -0.3896
   88MOL    H6710681   7.355   5.115   4.691  0.0799  0.3853  0.3659
   88MOL    C6810682   7.468   5.290   4.747  0.6480  0.2962  0.5687
   88MOL    C6910683   7.388   5.306   4.875  0.5631 -0.3409  0.1320
   88MOL    H7010684   7.554   5.225   4.760  1.5210  1.6194  1.4251
   88MOL    H7110685   7.496   5.386   4.703  0.4580 -1.8464 -4.6500
   88MOL    H7210686   7.304   5.372   4.856 -0.1563 -1.3165 -0.0970
   88MOL    H7310687   7.341   5.215   4.912  2.0411 -0.6490  1.3226
   88MOL    C7410688   7.469   5.367   4.986  0.1295  0.8934 -0.1120
   88MOL    C7510689   7.383   5.412   5.107 -0.4998  0.3932 -0.6074
   88MOL    H7610690   7.548   5.301   5.020  0.4352  2.3418  2.0882
   88MOL    H7710691   7.514   5.453   4.937 -0.8116  0.4918 -1.7231
   88MOL    H7810692   7.298   5.473   5.077 -1.0818 -0.3236 -0.4358
   88MOL    H7910693   7.340   5.322   5.151  0.4839  0.2994  0.1739
   88MOL    C8010694   7.454   5.493   5.218 -0.3862  0.3200 -0.1691
   88MOL    C8110695   7.367   5.507   5.348  0.2336 -0.0307  0.7385
   88MOL    H8210696   7.539   5.439   5.260  0.5941  1.6050 -0.4512
   88MOL    H8310697   7.489   5.590   5.181 -1.6418  0.2370 -1.6100
   88MOL    H8410698   7.270   5.553   5.329  1.2020  1.6161 -0.2992
   88MOL    H8510699   7.345   5.412   5.398  0.8666 -0.9413 -0.6782
   88MOL    C8610700   7.440   5.588   5.450 -0.6845 -0.0426  0.0391
   88MOL    C8710701   7.340   5.626   5.561  0.0895  0.4844 -0.3999
   88MOL    H8810702   7.521   5.524   5.486 -0.2157  1.0207  0.8988
   88MOL    H8910703   7.486   5.679   5.410 -0.6219  0.9123  2.2412
   88MOL    H9010704   7.262   5.682   5.510 -0.9116 -0.1970  0.3640
   88MOL    H9110705   7.300   5.542   5.618  2.5799  1.2919  2.7210
   88MOL    C9210706   7.404   5.724   5.668 -0.2648  0.6283  0.3047
   88MOL    C9310707   7.306   5.771   5.778 -0.0533  0.2444  0.3631
   88MOL    H9410708   7.495   5.674   5.702 -1.4562 -0.0327  2.6233
   88MOL    H9510709   7.440   5.805   5.605 -1.2997  0.0079 -1.1049
   88MOL    H9610710   7.362   5.825   5.853 -1.9303  1.9001  0.6003
   88MOL    H9710711   7.229   5.841   5.746  1.1539  1.0396 -0.9139
   88MOL    C9810712   7.238   5.662   5.858 -0.4277  0.5284  0.8325
   88MOL    C9910713   7.177   5.712   5.993  0.3190 -0.2564 -0.7586
   88MOL   H10010714   7.153   5.628   5.799 -0.2093  0.9698  0.2502
   88MOL   H10110715   7.302   5.576   5.878 -0.1120  0.7316  0.7084
   88MOL   H10210716   7.253   5.721   6.070  0.4299  0.2821 -0.9296
   88MOL   H10310717   7.125   5.807   5.980 -3.9640 -2.4048 -0.2021
   88MOL   C10410718   7.077   5.622   6.069 -0.0906 -0.2319  0.0378
   88MOL   C10510719   7.023   5.682   6.201  0.1627 -0.2329  0.6973
   88MOL   H10610720   6.990   5.595   6.009 -1.3191  0.6242  1.3922
   88MOL   H10710721   7.147   5.542   6.094  2.8460  2.4261  0.5974
   88MOL   H10810722   7.098   5.724   6.268 -0.1413 -0.0445  0.9172
   88MOL   H10910723   6.969   5.770   6.166 -1.6800 -2.8190 -3.3731
   88MOL   C11010724   6.920   5.588   6.271  0.0855 -0.0165 -0.8531
   88MOL   C11110725   6.869   5.634   6.409  0.1686  0.4538 -0.1133
   88MOL   H11210726   6.840   5.561   6.201  0.9091 -3.5828 -0.5395
   88MOL   H11310727   6.972   5.494   6.291  0.3194  0.5816  1.4122
   88MOL   H11410728   6.960   5.646   6.468  0.4499  0.1371 -0.4771
   88MOL   H11510729   6.814   5.728   6.402 -2.5199 -0.7671  3.1727
   88MOL   C11610730   6.775   5.532   6.475 -0.0273  0.6989 -0.3539
   88MOL   C11710731   6.705   5.580   6.597  0.5931  1.0165  0.2182
   88MOL   H11810732   6.695   5.491   6.412 -1.1762  2.0371  0.2063
   88MOL   H11910733   6.832   5.443   6.504 -0.3535  0.8921  0.9356
   88MOL   H12010734   6.776   5.587   6.680  1.5602 -0.3396 -0.4702
   88MOL   H12110735   6.650   5.670   6.572  1.3290  1.0081 -1.4476
   88MOL   H12210736   6.653   5.491   6.633  1.1057  1.0314  1.0259
   89MOL     C110737   4.753   6.971   1.476 -0.8364  0.4967 -0.1480
   89MOL     C210738   4.770   6.953   1.323  0.0036 -0.5929 -0.3082
   89MOL     H310739   4.733   6.877   1.527 -0.3601 -0.0223 -0.8931
   89MOL     H410740   4.666   7.035   1.482 -0.0793  1.4118  1.2455
   89MOL     H510741   4.678   6.936   1.268 -0.6470  0.6187  0.3815
   89MOL     H610742   4.785   7.055   1.285  1.0885 -1.2190 -1.5894
   89MOL     H710743   4.834   7.031   1.517  0.1552 -0.4148 -0.7192
   89MOL     C810744   4.895   6.876   1.271 -0.0223 -0.2594 -0.3965
   89MOL     C910745   4.880   6.729   1.309 -0.2759  0.2724 -0.0797
   89MOL    H1010746   4.915   6.895   1.165 -0.0357  0.3571 -0.2870
   89MOL    H1110747   4.976   6.914   1.332 -0.7923  1.4687 -0.4332
   89MOL    H1210748   4.843   6.718   1.411  0.9283  2.6696  0.6382
   89MOL    H1310749   4.797   6.682   1.255 -1.4036  1.6643  0.4344
   89MOL    C1410750   5.015   6.650   1.302  0.5129  0.4074  0.1301
   89MOL    C1510751   4.985   6.501   1.329  0.2376 -0.4386  0.3152
   89MOL    H1610752   5.057   6.651   1.201  2.9346 -0.4556  1.1021
   89MOL    H1710753   5.092   6.687   1.369  1.5482 -0.1601 -0.7385
   89MOL    H1810754   4.898   6.465   1.273  0.7192 -0.2584 -0.5503
   89MOL    H1910755   5.071   6.440   1.300  0.7459  1.2065 -1.6547
   89MOL    C2010756   4.966   6.471   1.476 -0.0325  0.3641  0.3446
   89MOL    C2110757   4.933   6.318   1.493 -0.1033  0.1731  0.1833
   89MOL    H2210758   5.057   6.494   1.531 -0.6065  1.0310  1.0104
   89MOL    H2310759   4.882   6.528   1.516 -2.0137 -0.2506 -2.7103
   89MOL    H2410760   4.828   6.296   1.472 -0.0083  0.7949 -1.0352
   89MOL    H2510761   4.985   6.259   1.417  0.6414  0.3482  0.5587
   89MOL    C2610762   4.952   6.278   1.640 -0.0291  0.2368  0.1224
   89MOL    C2710763   4.956   6.123   1.656 -0.5799  0.2811 -0.1634
   89MOL    H2810764   5.046   6.325   1.668  0.3041 -0.2453 -0.1767
   89MOL    H2910765   4.874   6.308   1.710  1.9952  0.3942  2.3440
   89MOL    H3010766   5.034   6.079   1.594 -2.4933  0.2642 -2.6647
   89MOL    H3110767   4.983   6.108   1.760 -2.6059  1.2591  0.5210
   89MOL    C3210768   4.831   6.040   1.636  0.1888 -0.0471 -0.0326
   89MOL    C3310769   4.844   5.893   1.658  0.0234  0.1277 -0.1337
   89MOL    H3410770   4.750   6.079   1.698 -1.2054 -2.9297  0.0218
   89MOL    H3510771   4.795   6.057   1.535  0.4545  0.5935 -0.0260
   89MOL    H3610772   4.914   5.860   1.581  1.1949 -1.2960  1.4974
   89MOL    H3710773   4.904   5.882   1.749 -0.8687  0.3559  0.4824
   89MOL    C3810774   4.719   5.797   1.659 -0.4445 -0.2188  0.3829
   89MOL    C3910775   4.619   5.836   1.776  0.0545 -0.7905  0.0831
   89MOL    H4010776   4.680   5.814   1.559  1.5606 -1.0112 -0.5540
   89MOL    H4110777   4.754   5.694   1.665 -3.2913 -1.3589 -1.4664
   89MOL    H4210778   4.667   5.841   1.873 -0.1177  2.7942  0.0538
   89MOL    H4310779   4.598   5.943   1.771  1.1874 -0.5805 -0.5296
   89MOL    C4410780   4.493   5.753   1.770  0.0611  0.3726  0.8866
   89MOL    C4510781   4.380   5.818   1.850  0.5205 -0.2367 -0.2376
   89MOL    H4610782   4.463   5.752   1.666 -1.1166  2.4268  1.1803
   89MOL    H4710783   4.518   5.651   1.802  1.1426  0.2822 -0.2011
   89MOL    H4810784   4.418   5.842   1.949  1.5175  1.0869 -0.9241
   89MOL    H4910785   4.372   5.916   1.802 -0.8359 -0.0295  0.4029
   89MOL    C5010786   4.248   5.741   1.845 -0.3538 -0.2741 -0.1522
   89MOL    C5110787   4.127   5.835   1.886 -0.0783 -0.5293 -0.0441
   89MOL    H5210788   4.232   5.697   1.747  0.8370 -0.2823 -0.3536
   89MOL    H5310789   4.263   5.660   1.917 -0.2350 -1.9089 -1.9709
   89MOL    H5410790   4.136   5.868   1.989 -1.5577  1.1583 -0.4348
   89MOL    H5510791   4.144   5.929   1.834  2.1039 -1.1831 -0.5730
   89MOL    C5610792   3.985   5.778   1.877  0.1780  0.4390 -0.3503
   89MOL    C5710793   3.874   5.891   1.872 -0.6069  0.0851 -0.1463
   89MOL    H5810794   3.969   5.718   1.787  1.2420 -1.8035  0.9101
   89MOL    H5910795   3.960   5.704   1.953 -2.7900  0.4425 -1.2725
   89MOL    H6010796   3.898   5.970   1.801  0.0826 -0.1424 -0.1620
   89MOL    H6110797   3.776   5.854   1.840 -0.3666 -1.9182  1.3850
   89MOL    C6210798   3.836   5.952   2.011  0.3733  0.9950  0.1747
   89MOL    C6310799   3.746   6.069   1.998  0.6231 -0.9385  0.0453
   89MOL    H6410800   3.792   5.875   2.075 -0.0713 -0.1408 -1.4476
   89MOL    H6510801   3.931   5.980   2.057  1.2243  0.2393 -1.0711
   89MOL    H6610802   3.781   6.146   1.929 -0.3843  2.0423  2.6835
   89MOL    H6710803   3.650   6.032   1.961 -1.0161  0.6844  2.4906
   89MOL    C6810804   3.713   6.134   2.141  0.4539  0.0050  0.2786
   89MOL    C6910805   3.623   6.258   2.121 -0.3355  0.4399  0.7494
   89MOL    H7010806   3.669   6.058   2.206 -1.7307  0.5437 -0.5342
   89MOL    H7110807   3.802   6.173   2.190 -1.3439  0.9201  2.9785
   89MOL    H7210808   3.674   6.328   2.055 -3.1989 -0.0414 -2.1113
   89MOL    H7310809   3.534   6.242   2.060  0.8750 -0.2289 -0.8817
   89MOL    C7410810   3.592   6.323   2.256 -0.2159  0.1718  0.0544
   89MOL    C7510811   3.507   6.446   2.236  0.1979  0.0784 -0.0639
   89MOL    H7610812   3.534   6.246   2.306 -0.4223  0.5831  0.4440
   89MOL    H7710813   3.683   6.336   2.314  0.0345 -0.7666 -0.1085
   89MOL    H7810814   3.551   6.516   2.164  2.6618 -2.6784 -1.3731
   89MOL    H7910815   3.422   6.414   2.176  1.6085 -2.0147 -0.9900
   89MOL    C8010816   3.462   6.493   2.377 -0.0972  0.5102  0.3214
   89MOL    C8110817   3.389   6.619   2.376 -0.2635 -0.6228  0.0222
   89MOL    H8210818   3.390   6.417   2.407  0.8390 -0.4500  0.1545
   89MOL    H8310819   3.535   6.493   2.457 -0.2921  0.2281  0.4986
   89MOL    H8410820   3.436   6.690   2.307 -2.0073  0.8228  0.2663
   89MOL    H8510821   3.289   6.598   2.337 -0.0604 -1.6006  0.0234
   89MOL    C8610822   3.385   6.673   2.516 -0.6289 -0.2569 -0.3574
   89MOL    C8710823   3.300   6.796   2.526  0.5859  0.0053  0.5017
   89MOL    H8810824   3.350   6.597   2.587  2.1126 -0.7720  0.5006
   89MOL    H8910825   3.485   6.691   2.557 -1.4859  3.7046  0.1459
   89MOL    H9010826   3.336   6.878   2.463  0.5461  1.2138  2.0126
   89MOL    H9110827   3.204   6.777   2.478  0.3542  1.6580  0.2861
   89MOL    C9210828   3.277   6.859   2.665 -0.6426 -0.5817  0.1361
   89MOL    C9310829   3.400   6.916   2.738  0.4681 -0.0031 -0.4847
   89MOL    H9410830   3.213   6.945   2.648 -0.9994 -0.8379  0.1648
   89MOL    H9510831   3.220   6.792   2.729 -0.2785 -0.6621  0.3729
   89MOL    H9610832   3.462   6.836   2.778 -0.6117  0.5158  2.3175
   89MOL    H9710833   3.477   6.960   2.674  0.5746 -0.3440 -0.5937
   89MOL    C9810834   3.363   7.005   2.850 -0.0235 -0.8274  0.1723
   89MOL    C9910835   3.478   7.036   2.951 -0.1705  0.2151  0.0873
   89MOL   H10010836   3.321   7.098   2.813  1.4974 -0.5542 -0.8979
   89MOL   H10110837   3.288   6.951   2.908  0.8645 -0.3579  1.7897
   89MOL   H10210838   3.548   7.099   2.895 -0.5468  0.0413 -0.5863
   89MOL   H10310839   3.436   7.097   3.030  0.8114 -1.1299  1.6836
   89MOL   C10410840   3.546   6.919   3.020  0.6186 -0.0654 -0.2118
   89MOL   C10510841   3.618   6.950   3.150  0.6604 -0.0847 -0.0615
   89MOL   H10610842   3.471   6.841   3.033  1.4970 -0.9949 -0.7309
   89MOL   H10710843   3.619   6.884   2.947  0.5927  1.1139 -0.8163
   89MOL   H10810844   3.702   7.017   3.126  0.7205 -0.9243 -2.2965
   89MOL   H10910845   3.558   6.992   3.231  0.0409  0.9950 -1.0527
   89MOL   C11010846   3.669   6.818   3.205 -0.1198 -0.0071 -0.1562
   89MOL   C11110847   3.790   6.758   3.123 -0.0904 -0.4908  0.7451
   89MOL   H11210848   3.706   6.838   3.306  0.6757  0.3235 -0.5105
   89MOL   H11310849   3.599   6.737   3.228  0.1049 -0.5693 -1.4172
   89MOL   H11410850   3.745   6.707   3.039 -0.6346  0.7334  0.2911
   89MOL   H11510851   3.859   6.836   3.090  1.0208 -1.4780  0.6862
   89MOL   C11610852   3.861   6.639   3.200  0.2815 -0.1819 -0.5151
   89MOL   C11710853   3.970   6.669   3.312  0.5351 -0.6940 -0.3712
   89MOL   H11810854   3.776   6.576   3.228  0.8792 -0.3700  0.9232
   89MOL   H11910855   3.912   6.577   3.126  1.5752  0.4999 -0.2022
   89MOL   H12010856   4.045   6.744   3.286 -0.6695  0.1627 -1.4319
   89MOL   H12110857   3.912   6.720   3.389  0.0480 -0.4358 -0.9078
   89MOL   H12210858   4.005   6.570   3.342  1.4925 -0.6176 -1.1967
   90MOL     C110859   7.437   5.513   0.457 -0.0304 -0.1116 -0.1016
   90MOL     C210860   7.454   5.506   0.308  0.3387 -0.2780  0.9651
   90MOL     H310861   7.391   5.420   0.491 -0.3492 -0.4105 -1.3366
   90MOL     H410862   7.388   5.603   0.495  1.3366  0.7432 -0.3157
   90MOL     H510863   7.509   5.594   0.275  0.6969 -0.6422  0.5795
   90MOL     H610864   7.532   5.437   0.276 -0.6156 -0.6650 -0.6149
   90MOL     H710865   7.539   5.526   0.494 -0.5493  1.7417  0.7650
   90MOL     C810866   7.325   5.477   0.227  0.2425  0.1190 -0.6308
   90MOL     C910867   7.354   5.504   0.079 -0.1495  0.1679 -0.5313
   90MOL    H1010868   7.310   5.370   0.239  1.7159 -0.0544 -0.2756
   90MOL    H1110869   7.243   5.535   0.270  0.8956  1.6431 -1.4115
   90MOL    H1210870   7.376   5.610   0.069 -0.0905  0.1146 -0.9511
   90MOL    H1310871   7.437   5.442   0.044  0.1426  1.0930 -1.4952
   90MOL    C1410872   7.228   5.484   7.677 -0.6923  0.4150  0.6524
   90MOL    C1510873   7.123   5.602   7.687 -0.2468  0.0487 -0.3127
   90MOL    H1610874   7.257   5.470   7.573 -0.8585 -1.6407  0.8560
   90MOL    H1710875   7.170   5.396   0.013  1.9997 -2.1568 -1.4515
   90MOL    H1810876   7.057   5.594   0.082  1.3145  0.3606  0.9118
   90MOL    H1910877   7.175   5.697   0.006  0.0473  0.2124 -2.6858
   90MOL    C2010878   7.049   5.605   7.556 -0.2930 -0.0296 -0.2328
   90MOL    C2110879   6.927   5.701   7.547  0.3234 -0.1974 -0.0143
   90MOL    H2210880   7.122   5.618   7.476 -0.8515  4.1365 -0.1626
   90MOL    H2310881   7.006   5.505   7.546 -1.4034  0.3245  0.8202
   90MOL    H2410882   6.852   5.673   7.620 -1.8072 -0.5467 -2.2601
   90MOL    H2510883   6.949   5.806   7.569  2.0510 -0.5099 -0.2102
   90MOL    C2610884   6.851   5.693   7.406 -0.0453 -0.1775 -0.3251
   90MOL    C2710885   6.742   5.795   7.376 -0.1717  1.3082 -0.0665
   90MOL    H2810886   6.929   5.690   7.329  0.4653 -0.7290  0.2021
   90MOL    H2910887   6.814   5.590   7.407  0.0261 -0.2039 -0.3095
   90MOL    H3010888   6.706   5.785   7.274 -0.7353  1.1217  0.1499
   90MOL    H3110889   6.654   5.763   7.432  0.2323 -3.9337 -2.1278
   90MOL    C3210890   6.774   5.943   7.383  0.3564 -0.5416  0.1010
   90MOL    C3310891   6.676   6.040   7.321  0.0360  0.3601  0.7655
   90MOL    H3410892   6.801   5.960   7.488  1.3219  1.0371 -0.3820
   90MOL    H3510893   6.863   5.960   7.322 -0.7871 -1.6243 -1.8912
   90MOL    H3610894   6.681   6.040   7.212 -0.7440  0.8509  0.7220
   90MOL    H3710895   6.575   6.012   7.350  0.3987  1.2161  2.9492
   90MOL    C3810896   6.700   6.187   7.370  0.3223  0.6189 -0.6739
   90MOL    C3910897   6.843   6.225   7.402  0.4593 -0.2763 -0.5791
   90MOL    H4010898   6.678   6.256   7.288  0.9778  0.1200 -1.2797
   90MOL    H4110899   6.635   6.210   7.454  0.9564  0.7005 -0.2088
   90MOL    H4210900   6.870   6.171   7.492 -0.7341 -0.3491 -0.2655
   90MOL    H4310901   6.903   6.184   7.320  0.0239 -2.1002 -0.0078
   90MOL    C4410902   6.860   6.379   7.423 -0.2454 -0.1003 -0.3563
   90MOL    C4510903   7.007   6.424   7.455  1.2176  0.3221  0.0246
   90MOL    H4610904   6.818   6.425   7.333 -2.5543 -0.1837  0.6272
   90MOL    H4710905   6.795   6.416   7.503 -1.0019  3.9851 -2.6873
   90MOL    H4810906   7.030   6.389   7.556 -0.2817 -1.2358 -0.1481
   90MOL    H4910907   7.077   6.381   7.384 -0.0829 -1.1009 -0.4383
   90MOL    C5010908   7.033   6.575   7.445 -0.8137  0.3392  0.0729
   90MOL    C5110909   7.180   6.613   7.458 -0.0226 -0.3476 -0.5096
   90MOL    H5210910   7.001   6.619   7.350 -1.8836 -1.0174 -0.2019
   90MOL    H5310911   6.980   6.619   7.529 -0.2792  3.9514 -1.3498
   90MOL    H5410912   7.208   6.561   7.549 -0.9215 -0.3611 -0.2388
   90MOL    H5510913   7.233   6.569   7.374  0.7242 -0.2902 -0.0716
   90MOL    C5610914   7.194   6.764   7.459 -0.0613 -0.4589  0.2312
   90MOL    C5710915   7.328   6.815   7.507  0.3101  0.1221  0.2831
   90MOL    H5810916   7.178   6.790   7.355 -1.1384 -0.3919  0.4121
   90MOL    H5910917   7.121   6.817   7.522 -0.5084 -0.3684 -0.3641
   90MOL    H6010918   7.341   6.783   7.610 -1.9686 -0.4323  0.4205
   90MOL    H6110919   7.410   6.769   7.452  0.2355  1.0566 -0.6287
   90MOL    C6210920   7.342   6.965   7.497  0.0304 -0.8003 -0.0638
   90MOL    C6310921   7.472   7.018   7.549  0.2485 -0.3891 -0.2747
   90MOL    H6410922   7.324   7.002   7.397  2.1958  3.1861  0.9198
   90MOL    H6510923   7.261   7.005   7.559 -0.1950 -1.3221 -0.0218
   90MOL    H6610924   7.496   6.974   7.645 -0.6118 -1.6471 -0.6238
   90MOL    H6710925   7.552   6.995   7.479 -1.5138  1.1460 -2.8980
   90MOL    C6810926   7.478   7.177   7.556  0.8836 -0.2916  0.4376
   90MOL    C6910927   7.615   7.241   7.555  0.1945  0.3878 -0.3458
   90MOL    H7010928   7.433   7.217   7.465  0.8486 -1.1831  0.0588
   90MOL    H7110929   7.407   7.219   7.628 -0.3597  0.5512 -1.2485
   90MOL    H7210930   7.669   7.212   7.465  0.1481 -1.7090  0.2660
   90MOL    H7310931   7.601   7.349   7.549  0.0009  0.5469  2.2809
   90MOL    C7410932   7.691   7.208   7.684 -0.5611 -1.2321 -0.1457
   90MOL    C7510933   0.137   7.277   7.691  0.2055 -0.0531 -0.2328
   90MOL    H7610934   7.630   7.237   0.078 -0.1743  0.1555 -0.3304
   90MOL    H7710935   0.008   7.100   0.000 -1.0367 -1.2425  0.2577
   90MOL    H7810936   0.206   7.221   0.062  0.5248 -0.3430 -0.8326
   90MOL    H7910937   0.189   7.273   7.595  0.6148  0.8193 -0.0559
   90MOL    C8010938   0.113   7.416   0.052  0.3161 -0.3032 -0.6888
   90MOL    C8110939   0.242   7.479   0.111  0.6953  0.2212 -0.3663
   90MOL    H8210940   0.061   7.477   7.671  0.4441  0.8735  0.1835
   90MOL    H8310941   0.036   7.422   0.128  0.9864 -0.1554 -0.0135
   90MOL    H8410942   0.219   7.565   0.174  2.2674 -0.0199  0.5552
   90MOL    H8510943   0.301   7.418   0.179  1.5469 -0.3202 -1.5797
   90MOL    C8610944   0.320   7.546   7.692  0.0269 -0.6939  0.2784
   90MOL    C8710945   0.440   7.633   0.051  0.0625 -0.3543  0.2315
   90MOL    H8810946   0.368   7.474   7.626 -0.0444  0.4084 -0.9941
   90MOL    H8910947   0.262   7.607   7.623  1.7238  0.1033 -0.4949
   90MOL    H9010948   0.491   7.575   0.129 -1.9682 -1.6084  0.6605
   90MOL    H9110949   0.508   7.665   7.664  0.1147 -0.7909  0.0983
   90MOL    C9210950   0.393   0.066   0.123 -0.2752 -0.3120 -0.0571
   90MOL    C9310951   0.508   0.152   0.175  0.4553 -0.7297 -0.5536
   90MOL    H9410952   0.335   0.122   0.050 -0.8204 -0.5944  0.1589
   90MOL    H9510953   0.327   0.042   0.206 -0.9215 -0.0954 -0.5117
   90MOL    H9610954   0.564   0.078   0.232 -0.1110  0.1261  1.1296
   90MOL    H9710955   0.557   0.195   0.088 -2.1478  0.7566 -1.3318
   90MOL    C9810956   0.475   0.263   0.274  0.4950  0.1571 -0.4037
   90MOL    C9910957   0.592   0.319   0.361  0.0162  0.7621  0.9813
   90MOL   H10010958   0.411   0.341   0.234 -2.0936 -0.3553  2.5000
   90MOL   H10110959   0.412   0.225   0.355  0.7720 -0.0237 -0.2727
   90MOL   H10210960   0.652   0.242   0.410 -0.5368  0.9629  1.9762
   90MOL   H10310961   0.664   0.368   0.295  0.5793  2.1640  2.5889
   90MOL   C10410962   0.537   0.416   0.467  0.1872 -0.4916 -0.2839
   90MOL   C10510963   0.648   0.477   0.551  0.5451 -0.4458 -0.3167
   90MOL   H10610964   0.482   0.497   0.418  0.9835 -1.1154 -2.2705
   90MOL   H10710965   0.475   0.357   0.535 -1.0729  2.0836  0.8515
   90MOL   H10810966   0.709   0.401   0.601  0.3093  0.4710  1.4089
   90MOL   H10910967   0.707   0.528   0.474 -1.3250  0.7772 -0.9554
   90MOL   C11010968   0.599   0.591   0.648 -0.0319 -0.7251  0.1746
   90MOL   C11110969   0.713   0.672   0.710 -0.8760 -0.0028 -0.9244
   90MOL   H11210970   0.532   0.654   0.589  1.0734 -0.7847 -1.1834
   90MOL   H11310971   0.535   0.559   0.731 -0.9333 -1.0799 -0.6409
   90MOL   H11410972   0.760   0.611   0.787 -3.2235 -1.9155 -0.9683
   90MOL   H11510973   0.785   0.695   0.631  1.1607 -1.8053  0.3367
   90MOL   C11610974   0.655   0.792   0.782  0.6582 -0.7464  0.4848
   90MOL   C11710975   0.767   0.861   0.865 -0.7919 -0.0509  0.8816
   90MOL   H11810976   0.611   0.847   0.699  0.4050 -1.3813  0.2001
   90MOL   H11910977   0.582   0.769   0.859  0.7832 -1.6907  0.3174
   90MOL   H12010978   0.829   0.915   0.794 -0.4580  2.9896  3.3801
   90MOL   H12110979   0.726   0.943   0.924 -2.3918  1.9548 -2.8486
   90MOL   H12210980   0.822   0.793   0.930 -0.7714 -0.2263  0.6833
   91MOL     C110981   6.700   7.373   6.601 -0.3447 -0.0759  0.1058
   91MOL     C210982   6.600   7.340   6.716 -0.2988  0.1914 -0.4540
   91MOL     H310983   6.629   7.387   6.519 -0.5584 -0.6039  0.2016
   91MOL     H410984   6.772   7.296   6.572 -0.0161  0.9796 -2.0076
   91MOL     H510985   6.657   7.329   6.809 -1.5234  0.4902  0.3560
   91MOL     H610986   6.537   7.428   6.730 -0.3537  0.0521  0.2005
   91MOL     H710987   6.760   7.459   6.632 -0.4289 -0.6940  2.0282
   91MOL     C810988   6.527   7.210   6.699 -0.7236 -0.1024  0.1743
   91MOL     C910989   6.456   7.202   6.568 -0.4500  0.0470  0.4849
   91MOL    H1010990   6.597   7.127   6.704 -1.8289 -1.0085  0.9231
   91MOL    H1110991   6.449   7.187   6.771 -0.7314  0.7982  0.4636
   91MOL    H1210992   6.406   7.298   6.562  1.1339  0.9195  1.0609
   91MOL    H1310993   6.521   7.208   6.480 -1.1690  1.8670  0.0662
   91MOL    C1410994   6.358   7.080   6.545 -0.0995 -0.5227  0.2986
   91MOL    C1510995   6.281   7.084   6.416  1.1406 -0.0800 -0.4184
   91MOL    H1610996   6.430   6.998   6.540  0.0299 -0.3802 -0.1576
   91MOL    H1710997   6.296   7.063   6.633  1.4852 -2.1570  1.1488
   91MOL    H1810998   6.238   7.184   6.407 -0.3462 -0.8285 -1.8019
   91MOL    H1910999   6.350   7.085   6.333  0.4322 -1.0221 -1.0304
   91MOL    C2011000   6.182   6.973   6.401 -0.3821 -0.6352  0.2591
   91MOL    C2111001   6.110   6.988   6.268 -0.0478  0.1212  0.0171
   91MOL    H2211002   6.219   6.870   6.412 -2.1765 -1.4873 -1.4509
   91MOL    H2311003   6.106   6.996   6.475 -0.1806  0.0658  0.2501
   91MOL    H2411004   6.035   7.066   6.280 -0.4021 -0.2340  0.1133
   91MOL    H2511005   6.173   7.029   6.189 -0.1579  0.1934 -0.0327
   91MOL    C2611006   6.038   6.863   6.213  0.1813  0.5749 -0.2179
   91MOL    C2711007   5.997   6.868   6.065  0.1313 -0.3481 -0.5467
   91MOL    H2811008   6.099   6.773   6.220 -0.4720  0.0322 -1.3120
   91MOL    H2911009   5.949   6.846   6.274 -0.6376  0.0954 -1.5120
   91MOL    H3011010   5.937   6.957   6.045  0.7140  0.4701  1.1739
   91MOL    H3111011   6.090   6.882   6.011  0.5527 -0.7571  0.0649
   91MOL    C3211012   5.934   6.739   6.010 -0.3554  0.1167 -0.6236
   91MOL    C3311013   5.911   6.741   5.863  0.0368  0.5047  0.3732
   91MOL    H3411014   5.990   6.650   6.040 -1.9372 -0.9249 -0.7289
   91MOL    H3511015   5.845   6.724   6.071  0.4503  1.9184  1.0704
   91MOL    H3611016   5.846   6.824   5.836  0.7274  1.2826  1.0604
   91MOL    H3711017   5.993   6.773   5.799  0.1814  2.2143  1.3775
   91MOL    C3811018   5.857   6.600   5.815 -0.0142 -0.2038 -0.4227
   91MOL    C3911019   5.805   6.599   5.672  1.2243 -0.7046 -0.1744
   91MOL    H4011020   5.939   6.529   5.826  0.7859  0.7082 -0.4323
   91MOL    H4111021   5.779   6.563   5.882  1.2928  0.0553  1.2698
   91MOL    H4211022   5.732   6.680   5.659  1.0456 -0.5975  1.4007
   91MOL    H4311023   5.885   6.631   5.605  1.2505 -1.9269 -0.7405
   91MOL    C4411024   5.762   6.455   5.634 -0.1280 -0.5582  0.3083
   91MOL    C4511025   5.720   6.437   5.493  0.2176  0.2778 -0.2689
   91MOL    H4611026   5.856   6.401   5.646  0.9404  0.9352 -1.1214
   91MOL    H4711027   5.702   6.404   5.709 -0.2040 -0.4472  0.3232
   91MOL    H4811028   5.616   6.467   5.479  0.4745  1.2116 -0.1807
   91MOL    H4911029   5.776   6.492   5.418 -2.5886  1.0520 -1.8665
   91MOL    C5011030   5.729   6.289   5.457 -0.0544  0.2917 -0.0089
   91MOL    C5111031   5.708   6.257   5.306  0.0917  0.1865  0.9861
   91MOL    H5211032   5.828   6.249   5.482 -0.1094  0.4493  0.4726
   91MOL    H5311033   5.659   6.234   5.520  0.7664 -2.2730 -1.2657
   91MOL    H5411034   5.621   6.308   5.265  1.0132  1.0928  0.1435
   91MOL    H5511035   5.790   6.309   5.256  0.7135 -1.9050 -0.2341
   91MOL    C5611036   5.698   6.100   5.285 -0.8118  0.3763 -1.0721
   91MOL    C5711037   5.635   6.075   5.145 -0.4759  0.3253  0.7833
   91MOL    H5811038   5.799   6.062   5.301 -1.6280 -1.0308  0.9493
   91MOL    H5911039   5.633   6.052   5.359  1.6766 -1.8717 -0.2509
   91MOL    H6011040   5.534   6.114   5.131 -0.1808  0.2674 -1.8445
   91MOL    H6111041   5.705   6.127   5.080 -0.9556  0.3097  0.2523
   91MOL    C6211042   5.624   5.929   5.104  0.0741  0.4242 -0.3688
   91MOL    C6311043   5.587   5.912   4.959  0.0359  0.7232 -0.4653
   91MOL    H6411044   5.719   5.879   5.124 -1.8910 -3.4341 -0.2563
   91MOL    H6511045   5.545   5.884   5.163  0.6286  2.2462  1.8417
   91MOL    H6611046   5.489   5.956   4.941 -0.5870 -0.9413 -1.2885
   91MOL    H6711047   5.671   5.964   4.913  1.3000 -2.2480 -1.6582
   91MOL    C6811048   5.596   5.764   4.913 -0.1464 -0.5378 -0.5286
   91MOL    C6911049   5.621   5.760   4.760  0.3313 -0.0386 -0.7143
   91MOL    H7011050   5.679   5.719   4.967 -1.1650  0.9269  2.3530
   91MOL    H7111051   5.511   5.705   4.947 -0.4597  0.6186  0.7453
   91MOL    H7211052   5.618   5.656   4.727  1.4192  0.1958 -1.6017
   91MOL    H7311053   5.545   5.810   4.700 -0.0310  0.5694  0.2414
   91MOL    C7411054   5.754   5.816   4.708  0.1133 -0.3946 -0.1703
   91MOL    C7511055   5.874   5.731   4.744 -0.5120 -0.5114  0.6859
   91MOL    H7611056   5.746   5.818   4.599 -1.8022 -0.2099 -0.0420
   91MOL    H7711057   5.780   5.917   4.741 -1.5253  0.1211 -0.4044
   91MOL    H7811058   5.891   5.736   4.852 -2.4404  0.4755  0.9604
   91MOL    H7911059   5.846   5.627   4.728 -0.3806 -0.5557  0.7396
   91MOL    C8011060   6.006   5.766   4.681 -0.2544  0.3907 -0.2697
   91MOL    C8111061   6.123   5.669   4.714 -0.5224  0.0012 -0.0793
   91MOL    H8211062   5.991   5.772   4.573 -0.0192 -1.7246 -0.4471
   91MOL    H8311063   6.027   5.868   4.712 -2.9177  0.4108  1.6500
   91MOL    H8411064   6.101   5.619   4.808  2.7814  0.1197  0.8136
   91MOL    H8511065   6.130   5.585   4.644 -1.0762  1.3423 -1.7931
   91MOL    C8611066   6.257   5.748   4.722  1.1083 -0.0598  0.1186
   91MOL    C8711067   6.383   5.670   4.767 -0.3552  0.3139  0.2261
   91MOL    H8811068   6.276   5.778   4.619  0.1063  0.3201  0.0395
   91MOL    H8911069   6.251   5.846   4.770  1.1765  1.2583 -2.4972
   91MOL    H9011070   6.375   5.649   4.873  0.0716  0.7739  0.3442
   91MOL    H9111071   6.374   5.574   4.716 -2.2878  0.3772  0.4068
   91MOL    C9211072   6.516   5.735   4.738 -0.1403  0.5133 -0.1884
   91MOL    C9311073   6.641   5.649   4.758  0.1850  0.1707  0.2443
   91MOL    H9411074   6.516   5.764   4.633 -1.0469  1.6961  0.1284
   91MOL    H9511075   6.528   5.833   4.785  2.4823  1.6429 -2.9720
   91MOL    H9611076   6.655   5.615   4.860  2.1874  0.6355  0.1553
   91MOL    H9711077   6.635   5.553   4.706  1.3810  0.5405 -0.6266
   91MOL    C9811078   6.770   5.726   4.723  0.1365  0.9220 -0.4243
   91MOL    C9911079   6.902   5.656   4.759 -0.3918 -0.1621  0.1031
   91MOL   H10011080   6.773   5.754   4.617 -1.4180  0.0982 -0.6986
   91MOL   H10111081   6.773   5.820   4.777 -2.9027  0.7687  0.0612
   91MOL   H10211082   6.901   5.614   4.859 -1.4791 -0.9747 -0.2405
   91MOL   H10311083   6.913   5.569   4.693 -2.5933  1.0143 -1.8910
   91MOL   C10411084   7.030   5.741   4.750  0.6231 -0.2772  0.1323
   91MOL   C10511085   7.158   5.675   4.806 -0.2529 -0.3109 -0.2540
   91MOL   H10611086   7.047   5.768   4.646 -0.2164 -0.1021  0.0373
   91MOL   H10711087   6.997   5.832   4.800  0.6456 -1.9331  3.2576
   91MOL   H10811088   7.139   5.636   4.906 -1.3203 -0.3713 -0.4785
   91MOL   H10911089   7.177   5.582   4.754  1.7629 -0.4884  0.7649
   91MOL   C11011090   7.276   5.771   4.803  0.4036  0.2151 -0.4358
   91MOL   C11111091   7.405   5.715   4.863  0.4246 -0.0271  0.2774
   91MOL   H11211092   7.314   5.811   4.709 -0.9727  1.0782 -0.6333
   91MOL   H11311093   7.253   5.852   4.872  3.2008  0.6406  0.0475
   91MOL   H11411094   7.376   5.657   4.951 -0.6093  0.2377  0.1261
   91MOL   H11511095   7.436   5.638   4.793  0.8087 -0.6294  1.0957
   91MOL   C11611096   7.520   5.821   4.873  0.1400 -0.5625  0.1173
   91MOL   C11711097   7.651   5.756   4.912 -0.0924  0.0630  0.2792
   91MOL   H11811098   7.525   5.869   4.775 -1.8619  0.3309  0.4286
   91MOL   H11911099   7.497   5.903   4.941  0.6275 -0.1966 -0.1530
   91MOL   H12011100   7.630   5.721   5.013  1.1715  0.9894  0.8687
   91MOL   H12111101   7.678   5.670   4.851  1.1050  1.3860 -1.1035
   91MOL   H12211102   0.044   5.824   4.904 -1.5136  2.0628  1.8616
   92MOL     C111103   1.580   6.969   1.604  0.1455 -0.2060  0.5146
   92MOL     C211104   1.560   7.105   1.539  0.2413  0.1589 -0.2516
   92MOL     H311105   1.517   6.966   1.693 -4.0831 -0.0916 -2.2752
   92MOL     H411106   1.686   6.954   1.624  0.2558 -0.4130 -0.2207
   92MOL     H511107   1.657   7.153   1.548  1.2231 -1.8774  0.2337
   92MOL     H611108   1.540   7.089   1.433  2.3169 -0.3696 -0.5759
   92MOL     H711109   1.550   6.885   1.541 -3.9685 -0.1629  2.2189
   92MOL     C811110   1.448   7.190   1.599  0.1726 -0.0019  0.8699
   92MOL     C911111   1.414   7.299   1.497  0.4808 -0.2266 -0.1517
   92MOL    H1011112   1.360   7.127   1.612  0.0094  0.2042  0.7577
   92MOL    H1111113   1.478   7.233   1.695  2.6437 -0.2639  0.2445
   92MOL    H1211114   1.511   7.337   1.464  1.6115 -2.0365  0.9835
   92MOL    H1311115   1.372   7.259   1.405  0.3111  0.6929 -0.4866
   92MOL    C1411116   1.308   7.403   1.544 -0.3531  0.2768  0.1302
   92MOL    C1511117   1.249   7.494   1.434  0.6241 -0.0120  0.6391
   92MOL    H1611118   1.231   7.354   1.603 -0.0609 -1.1454 -0.6581
   92MOL    H1711119   1.358   7.479   1.604  1.1108  0.5507 -1.3799
   92MOL    H1811120   1.329   7.534   1.372  0.5939  0.4298  0.8873
   92MOL    H1911121   1.195   7.433   1.362  0.9844 -0.2588  0.5745
   92MOL    C2011122   1.168   7.619   1.493  0.6414  0.2191  0.0735
   92MOL    C2111123   1.074   0.005   1.394 -0.0529  0.3741 -0.7187
   92MOL    H2211124   1.105   7.587   1.576 -0.9274 -1.2528 -1.6511
   92MOL    H2311125   1.247   7.684   1.530  1.0522 -0.7120  0.8894
   92MOL    H2411126   1.044   0.102   1.434 -0.5047  0.6949 -1.8215
   92MOL    H2511127   1.129   0.040   1.307 -1.2971  0.6689 -1.4053
   92MOL    C2611128   0.950   7.619   1.326 -0.4433 -0.6727  0.8158
   92MOL    C2711129   0.863   0.023   1.242  0.1156  0.8821 -0.7596
   92MOL    H2811130   0.994   7.539   1.267  1.7771  1.3481 -0.3706
   92MOL    H2911131   0.888   7.574   1.404 -0.8828 -0.1316  0.7819
   92MOL    H3011132   0.833   0.103   1.309  0.1289 -0.1087  0.4687
   92MOL    H3111133   0.924   0.066   1.163  0.1106  1.5768 -0.3900
   92MOL    C3211134   0.742   7.638   1.181  0.5616 -0.0045  0.6419
   92MOL    C3311135   0.645   0.039   1.106 -0.0767 -1.0506  0.1229
   92MOL    H3411136   0.778   7.564   1.109 -0.7839  0.5126 -0.5778
   92MOL    H3511137   0.690   7.570   1.248  0.5124 -0.6889 -0.0912
   92MOL    H3611138   0.597   0.115   1.167  2.5996  0.6729  0.1417
   92MOL    H3711139   0.709   0.103   1.045 -0.3764 -0.4947  0.3896
   92MOL    C3811140   0.546   7.652   1.008 -0.1025 -0.4017 -0.0258
   92MOL    C3911141   0.424   7.593   1.079 -0.4759 -0.3806 -0.5749
   92MOL    H4011142   0.517   0.030   0.930  1.2315 -0.4402 -0.5648
   92MOL    H4111143   0.607   7.576   0.958  1.6963  0.0863  1.3646
   92MOL    H4211144   0.449   7.527   1.162 -1.4413 -0.9687 -0.7499
   92MOL    H4311145   0.374   7.681   1.121 -1.5049 -0.5295 -1.4838
   92MOL    C4411146   0.335   7.512   0.985  0.5960 -0.5677  0.2863
   92MOL    C4511147   0.210   7.447   1.049 -0.2152 -0.4981 -0.0485
   92MOL    H4611148   0.297   7.575   0.904 -1.8619 -1.3593  0.7916
   92MOL    H4711149   0.395   7.437   0.935 -0.6334 -2.0266  0.9719
   92MOL    H4811150   0.239   7.384   1.133  0.9795 -0.3927 -0.3860
   92MOL    H4911151   0.138   7.516   1.095 -0.1432 -2.3789  3.0026
   92MOL    C5011152   0.128   7.382   0.934 -0.3830 -0.3121 -0.1287
   92MOL    C5111153   0.030   7.269   0.970 -0.0610 -0.8882 -0.0092
   92MOL    H5211154   0.077   7.465   0.887 -1.7151 -1.3809 -0.6065
   92MOL    H5311155   0.203   7.349   0.862  0.9252  0.5917  0.8109
   92MOL    H5411156   0.076   7.196   1.036  0.0785 -0.4488  0.3846
   92MOL    H5511157   7.638   7.317   1.021  2.2946  1.6065  1.6658
   92MOL    C5611158   7.653   7.208   0.846 -0.3869 -0.7658 -0.0050
   92MOL    C5711159   7.551   7.098   0.869 -0.5808  0.2676 -0.2014
   92MOL    H5811160   7.601   7.288   0.795  0.7155  0.2119  0.3813
   92MOL    H5911161   0.039   7.169   0.780 -0.8052 -0.0132 -0.9573
   92MOL    H6011162   7.607   7.018   0.918  1.1459  1.6935  0.2128
   92MOL    H6111163   7.484   7.131   0.949  3.9500  1.2648  3.4122
   92MOL    C6211164   7.477   7.055   0.747 -0.2901 -0.4867  0.1563
   92MOL    C6311165   7.340   6.992   0.773 -0.2703 -0.0891  0.2336
   92MOL    H6411166   7.472   7.141   0.680 -0.9577 -1.1610 -0.6539
   92MOL    H6511167   7.537   6.980   0.695  1.2687  1.9860 -1.7306
   92MOL    H6611168   7.362   6.927   0.857 -1.8162  0.3864  1.0096
   92MOL    H6711169   7.261   7.057   0.808  1.2922  0.6997  2.3776
   92MOL    C6811170   7.294   6.908   0.655 -0.4534  0.2157  0.0671
   92MOL    C6911171   7.153   6.844   0.664  0.8283  0.2952  0.6711
   92MOL    H7011172   7.284   6.975   0.570 -1.7232  1.9388  1.5297
   92MOL    H7111173   7.362   6.826   0.632 -1.6844 -0.5546 -0.9182
   92MOL    H7211174   7.150   6.767   0.740 -2.5144 -2.3346 -1.9315
   92MOL    H7311175   7.080   6.918   0.698 -0.1257 -1.2179  1.9490
   92MOL    C7411176   7.105   6.777   0.533 -0.0281 -0.0487  0.3514
   92MOL    C7511177   6.970   6.712   0.546  0.4896 -0.3057 -0.7564
   92MOL    H7611178   7.113   6.850   0.453  1.5862 -0.5622  0.0294
   92MOL    H7711179   7.172   6.695   0.506  0.8362  1.0923 -1.0064
   92MOL    H7811180   6.981   6.626   0.611 -0.7237  1.0091  1.2377
   92MOL    H7911181   6.902   6.783   0.592 -0.5304  0.0159 -2.7109
   92MOL    C8011182   6.918   6.683   0.399 -0.2505  0.5198 -0.0114
   92MOL    C8111183   6.837   6.557   0.393 -0.2469 -0.7825  0.2792
   92MOL    H8211184   6.851   6.750   0.347 -1.1618 -0.1967  0.2307
   92MOL    H8311185   6.998   6.666   0.326 -0.2130 -2.4283  0.6481
   92MOL    H8411186   6.887   6.469   0.434 -0.1565 -0.3887  1.0261
   92MOL    H8511187   6.748   6.564   0.456 -0.7485 -1.2173 -0.3685
   92MOL    C8611188   6.785   6.533   0.247  0.0122  0.1793 -0.0277
   92MOL    C8711189   6.676   6.421   0.239  0.2307 -0.1328  0.6934
   92MOL    H8811190   6.750   6.623   0.196 -0.2842  0.7242  1.1140
   92MOL    H8911191   6.866   6.497   0.184 -0.7857  1.4013 -1.8030
   92MOL    H9011192   6.709   6.329   0.287 -4.3300 -2.3352 -0.1041
   92MOL    H9111193   6.589   6.453   0.296 -1.3626 -2.4336 -0.3416
   92MOL    C9211194   6.619   6.402   0.100 -0.0610  0.2633  0.0135
   92MOL    C9311195   6.529   6.272   0.090 -0.1724 -0.6698 -0.5381
   92MOL    H9411196   6.560   6.490   0.075  0.1069  0.6811  1.0929
   92MOL    H9511197   6.697   6.389   0.024 -2.2954  0.8971 -2.4501
   92MOL    H9611198   6.466   6.265   0.179 -0.8431 -1.2984 -1.0614
   92MOL    H9711199   6.465   6.274   0.002  0.4046  1.5365 -0.9198
   92MOL    C9811200   6.613   6.143   0.082  0.2076 -0.0043 -0.2231
   92MOL    C9911201   6.519   6.024   0.051 -0.1605 -0.3055 -0.3123
   92MOL   H10011202   6.697   6.145   0.013 -0.2102 -1.0609 -0.7828
   92MOL   H10111203   6.663   6.121   0.177  1.1976 -0.7720 -0.9150
   92MOL   H10211204   6.437   6.033   0.122  1.2872  2.4610  1.0786
   92MOL   H10311205   6.482   6.037   7.641  0.4588  0.8623 -0.3979
   92MOL   C10411206   6.600   5.895   0.052 -0.1301 -0.1433 -0.2446
   92MOL   C10511207   6.514   5.767   0.034 -0.0396  0.0029 -0.8263
   92MOL   H10611208   6.683   5.891   7.672  1.3230 -1.8319  1.4688
   92MOL   H10711209   6.650   5.883   0.148 -2.6982 -1.7689  0.9244
   92MOL   H10811210   6.413   5.779   0.072 -0.3926 -1.2816 -1.3297
   92MOL   H10911211   6.485   5.748   7.623 -2.6382  0.8838 -0.2890
   92MOL   C11011212   6.568   5.638   0.101  0.5713  0.2293  0.1763
   92MOL   C11111213   6.494   5.515   0.051  0.8773 -0.3006 -0.1256
   92MOL   H11211214   6.669   5.602   0.084  0.1057 -0.9796 -0.0712
   92MOL   H11311215   6.559   5.651   0.209 -5.8858  1.3585 -0.3000
   92MOL   H11411216   6.390   5.543   0.065  1.5229  1.4511  1.3991
   92MOL   H11511217   6.505   5.504   7.635 -1.4225  0.9352 -0.5166
   92MOL   C11611218   6.514   5.390   0.124  0.2860 -0.5229 -0.1965
   92MOL   C11711219   6.638   5.319   0.083 -0.4786  0.5746 -0.3855
   92MOL   H11811220   6.503   5.412   0.231  0.8664  0.6976 -0.3742
   92MOL   H11911221   6.434   5.324   0.092  1.3697 -1.7566 -0.3631
   92MOL   H12011222   6.675   5.259   0.165  0.9380  1.1987 -0.5590
   92MOL   H12111223   6.622   5.245   0.005  1.4509  1.3343 -1.5326
   92MOL   H12211224   6.727   5.376   0.057  0.3338 -0.8644 -0.8166
   93MOL     C111225   0.397   0.560   6.013  0.2230 -0.0825 -0.3663
   93MOL     C211226   0.463   0.662   6.111 -0.0416  0.4410  0.5039
   93MOL     H311227   0.470   0.495   5.965 -1.5997 -2.4436 -0.0030
   93MOL     H411228   0.341   0.612   5.935  1.6920 -0.8304 -1.9565
   93MOL     H511229   0.523   0.606   6.183 -2.0345 -0.4663  1.4966
   93MOL     H611230   0.535   0.722   6.056 -0.9336 -1.1282 -2.4742
   93MOL     H711231   0.328   0.492   6.064  0.8980 -0.2089  0.3724
   93MOL     C811232   0.365   0.767   6.184  0.3007  0.2037  0.3714
   93MOL     C911233   0.435   0.851   6.291 -0.3833  0.0927 -0.4643
   93MOL    H1011234   0.316   0.825   6.106  0.0602 -2.3705 -1.4884
   93MOL    H1111235   0.284   0.713   6.234  0.1852 -0.1612 -0.1972
   93MOL    H1211236   0.488   0.780   6.355 -0.6790  1.7928  1.7385
   93MOL    H1311237   0.496   0.928   6.244 -0.6931  0.4685 -0.2533
   93MOL    C1411238   0.341   0.917   6.389 -0.3307  0.1410  0.0493
   93MOL    C1511239   0.421   1.009   6.491 -0.1076 -0.0593  0.5454
   93MOL    H1611240   0.260   0.975   6.346 -0.4701  0.9239  1.3334
   93MOL    H1711241   0.279   0.846   6.444 -0.3405  0.4858  0.4857
   93MOL    H1811242   0.514   0.959   6.519 -0.1118  0.7781  2.1346
   93MOL    H1911243   0.450   1.108   6.456  1.3330 -0.7716 -0.3068
   93MOL    C2011244   0.347   1.026   6.624 -0.8853 -0.0644  0.4371
   93MOL    C2111245   0.411   1.135   6.720  0.6765  0.4463  0.5524
   93MOL    H2211246   0.243   1.059   6.614 -1.2074 -0.3553  2.4689
   93MOL    H2311247   0.336   0.929   6.672 -0.5961 -0.3086  0.0026
   93MOL    H2411248   0.514   1.101   6.723  0.3863 -0.6381 -1.1153
   93MOL    H2511249   0.404   1.229   6.666  0.4295 -0.6788 -1.4560
   93MOL    C2611250   0.358   1.134   6.866 -0.7235  0.0502 -0.1976
   93MOL    C2711251   0.449   1.221   6.945 -0.1375 -0.0035  0.0613
   93MOL    H2811252   0.254   1.165   6.866 -0.8530 -0.3167 -2.2120
   93MOL    H2911253   0.363   1.033   6.906 -0.5965  0.8683  1.8979
   93MOL    H3011254   0.550   1.184   6.932  0.1445  0.3489  1.2145
   93MOL    H3111255   0.446   1.328   6.927 -0.2000 -0.1862 -1.0426
   93MOL    C3211256   0.420   1.238   7.089  0.2083  0.4182 -0.7188
   93MOL    C3311257   0.542   1.320   7.142  0.1128 -0.2134 -0.3751
   93MOL    H3411258   0.330   1.295   7.115 -0.2316 -0.7228  0.3182
   93MOL    H3511259   0.417   1.142   7.140  0.6860  0.5230 -0.4913
   93MOL    H3611260   0.634   1.278   7.102  1.1570  0.5260  1.2081
   93MOL    H3711261   0.526   1.418   7.095  0.0893 -0.0314  0.0104
   93MOL    C3811262   0.544   1.329   7.294 -0.2848 -0.7935  0.0935
   93MOL    C3911263   0.667   1.380   7.360 -0.1218  0.3019  0.0072
   93MOL    H4011264   0.466   1.399   7.326 -0.5187 -0.7251 -0.6161
   93MOL    H4111265   0.509   1.238   7.341  0.9703  0.1833  3.0322
   93MOL    H4211266   0.666   1.484   7.327  0.2872  0.1604 -0.4503
   93MOL    H4311267   0.636   1.393   7.464 -0.5882  0.5263 -0.1546
   93MOL    C4411268   0.801   1.318   7.327 -0.5986  0.4458 -0.2350
   93MOL    C4511269   0.917   1.367   7.408  0.1048  0.1323 -0.0183
   93MOL    H4611270   0.804   1.209   7.327 -1.2053  0.4265  1.6900
   93MOL    H4711271   0.834   1.331   7.224 -0.7478  0.0273 -0.3391
   93MOL    H4811272   0.940   1.472   7.387 -1.9669  0.8411  1.1192
   93MOL    H4911273   0.887   1.360   7.513 -1.4817 -0.4875 -0.4928
   93MOL    C5011274   1.055   1.300   7.397 -0.7595  0.2774 -0.0558
   93MOL    C5111275   1.151   1.338   7.515 -0.4825  0.9582  0.6038
   93MOL    H5211276   1.062   1.192   7.391  0.2767  0.4253 -1.7732
   93MOL    H5311277   1.102   1.327   7.303  1.0345 -1.9493  0.1701
   93MOL    H5411278   1.149   1.446   7.531 -0.4465  1.0295  0.1224
   93MOL    H5511279   1.116   1.297   7.610 -0.6689  0.1901  0.1998
   93MOL    C5611280   1.301   1.288   7.488 -0.1979 -0.0425  0.0158
   93MOL    C5711281   1.409   1.319   7.594 -0.6285 -0.7273 -0.1135
   93MOL    H5811282   1.302   1.180   7.474 -2.1141  0.0209 -0.7732
   93MOL    H5911283   1.335   1.343   7.401  1.5336  0.5690  1.0399
   93MOL    H6011284   1.420   1.427   7.602  1.3478 -0.7565 -1.8877
   93MOL    H6111285   1.385   1.283   0.002  1.0459  0.5515  0.7686
   93MOL    C6211286   1.541   1.253   7.553 -0.2805  0.1432  0.5976
   93MOL    C6311287   1.656   1.277   7.654  0.7806 -0.2345 -0.2192
   93MOL    H6411288   1.526   1.146   7.540  2.5964 -0.0743 -1.2743
   93MOL    H6511289   1.570   1.286   7.454  0.1037 -0.8551  0.3694
   93MOL    H6611290   1.670   1.385   7.642 -0.8233  0.3234  2.5760
   93MOL    H6711291   1.634   1.258   0.067  0.2184  1.9245  0.0823
   93MOL    C6811292   1.782   1.203   7.616  0.8481  0.3484  0.3645
   93MOL    C6911293   1.909   1.265   7.688  0.3488  0.1142 -0.2204
   93MOL    H7011294   1.772   1.097   7.636  0.2096 -0.0287 -1.8057
   93MOL    H7111295   1.799   1.208   7.509  1.4771 -0.2505  0.4351
   93MOL    H7211296   1.908   1.372   7.665  2.6134 -0.0940 -1.4875
   93MOL    H7311297   1.903   1.256   0.104 -1.0554  0.2136 -0.2905
   93MOL    C7411298   2.036   1.195   7.638 -0.4835 -0.0098  0.2519
   93MOL    C7511299   2.164   1.266   0.001 -0.3180 -0.6380 -0.3760
   93MOL    H7611300   2.036   1.092   7.674 -0.2758  0.1864  0.8321
   93MOL    H7711301   2.040   1.204   7.530 -5.1086 -2.0906 -0.2007
   93MOL    H7811302   2.166   1.372   7.667  3.5211 -1.1909 -2.7786
   93MOL    H7911303   2.162   1.262   0.110 -1.1452 -0.9313 -0.3995
   93MOL    C8011304   2.290   1.202   7.645 -0.1041 -0.0727 -0.1868
   93MOL    C8111305   2.423   1.268   7.684  0.0092 -0.3151 -0.2440
   93MOL    H8211306   2.297   1.099   7.680 -1.6226  0.6249  2.2107
   93MOL    H8311307   2.294   1.193   7.536  1.0816 -1.5618 -0.0420
   93MOL    H8411308   2.410   1.372   7.655 -0.5467 -0.4266 -0.3970
   93MOL    H8511309   2.427   1.266   0.101  0.0982  1.7641 -0.1762
   93MOL    C8611310   2.536   1.198   7.616  0.1444 -0.6787 -0.2762
   93MOL    C8711311   2.673   1.255   7.654  0.9418  0.1893  0.0023
   93MOL    H8811312   2.528   1.092   7.641  2.7744 -0.9096 -0.2996
   93MOL    H8911313   2.531   1.209   7.507 -0.4703 -0.6760 -0.2456
   93MOL    H9011314   2.678   1.364   7.650  1.1897  0.2400  1.4444
   93MOL    H9111315   2.683   1.241   0.070  2.2309 -0.6348 -0.2134
   93MOL    C9211316   2.790   1.205   7.572 -0.0669  0.3857 -0.3771
   93MOL    C9311317   2.926   1.270   7.612  0.5973  0.3701  0.0661
   93MOL    H9411318   2.794   1.099   7.596 -1.1825  0.0504 -1.6219
   93MOL    H9511319   2.778   1.202   7.463  0.6729  1.3256 -0.4924
   93MOL    H9611320   2.939   1.376   7.590 -0.1784  0.2156 -1.1800
   93MOL    H9711321   2.929   1.265   0.029 -0.1636 -0.5261  0.0456
   93MOL    C9811322   3.049   1.183   7.564 -0.3843 -0.4984  0.1135
   93MOL    C9911323   3.184   1.249   7.592  0.3345  0.1589 -0.0596
   93MOL   H10011324   3.045   1.092   7.623 -0.4238  0.6651  1.9356
   93MOL   H10111325   3.047   1.167   7.456 -2.4943  0.1563  0.0405
   93MOL   H10211326   3.194   1.347   7.545 -1.3189  0.3612 -0.0414
   93MOL   H10311327   3.190   1.251   0.008 -2.9339 -0.7547  0.1965
   93MOL   C10411328   3.301   1.160   7.546 -0.5873 -0.1011  0.5716
   93MOL   C10511329   3.433   1.209   7.606 -0.1459 -0.4433 -0.3347
   93MOL   H10611330   3.269   1.062   7.581  1.7484 -0.1646  2.6995
   93MOL   H10711331   3.312   1.150   7.438 -2.6092  3.0266  0.0432
   93MOL   H10811332   3.452   1.316   7.595  3.3909 -1.2838 -3.0730
   93MOL   H10911333   3.425   1.187   0.021 -0.0639 -0.2793 -0.2935
   93MOL   C11011334   3.554   1.123   7.553  0.4254  0.9198 -0.0480
   93MOL   C11111335   3.682   1.142   7.636  0.8594 -1.0050  0.0961
   93MOL   H11211336   3.526   1.018   7.542 -0.0864  1.0521 -0.0226
   93MOL   H11311337   3.590   1.156   7.456 -1.6064  0.1973 -1.0724
   93MOL   H11411338   3.694   1.250   7.642  0.7470 -0.9949  0.1354
   93MOL   H11511339   3.664   1.115   0.048 -0.6041 -0.9893 -0.1403
   93MOL   C11611340   3.799   1.063   7.584 -0.4981  0.8670  0.7816
   93MOL   C11711341   3.807   0.916   7.607  0.4328 -0.0363  0.4759
   93MOL   H11811342   3.807   1.089   7.479  0.9254  0.9243  0.8855
   93MOL   H11911343   3.886   1.100   7.638  0.7089  1.6103 -1.6089
   93MOL   H12011344   3.772   0.894   0.016  0.6966  0.5977  0.7055
   93MOL   H12111345   3.750   0.871   7.526 -0.1811  1.6425 -0.0600
   93MOL   H12211346   3.909   0.878   7.601  0.4468  0.2597 -1.5469
   94MOL     C111347   5.743   5.568   6.625 -0.2210  0.5257 -0.0263
   94MOL     C211348   5.844   5.455   6.596 -0.4395 -0.6213 -0.3574
   94MOL     H311349   5.773   5.611   6.720  1.3256 -0.7545  0.0832
   94MOL     H411350   5.635   5.552   6.628 -0.2946  1.0808  0.2257
   94MOL     H511351   5.945   5.489   6.621 -0.2742 -0.2541 -1.4964
   94MOL     H611352   5.842   5.381   6.676 -0.9765  0.9145  1.0739
   94MOL     H711353   5.771   5.639   6.547  1.3637 -0.5981 -0.5065
   94MOL     C811354   5.837   5.379   6.458  0.1451 -0.0335  0.2610
   94MOL     C911355   5.877   5.230   6.465 -0.1049  0.4338  0.3664
   94MOL    H1011356   5.743   5.406   6.410 -0.2554 -0.0364  1.0361
   94MOL    H1111357   5.913   5.429   6.399  2.1322 -1.4640  1.4961
   94MOL    H1211358   5.971   5.218   6.518 -0.6795 -0.1179  1.2772
   94MOL    H1311359   5.798   5.187   6.526  2.0020 -2.5957  1.0920
   94MOL    C1411360   5.881   5.174   6.323  0.0134  0.5334  0.3342
   94MOL    C1511361   5.881   5.029   6.304  0.6496 -0.0782 -0.0658
   94MOL    H1611362   5.803   5.215   6.259  2.5556  3.3895 -1.0849
   94MOL    H1711363   5.979   5.199   6.282  1.5117 -3.4608  1.2925
   94MOL    H1811364   5.963   4.996   6.368 -0.7725  0.4107  2.0382
   94MOL    H1911365   5.794   4.985   6.353 -0.9182  0.5990 -2.1719
   94MOL    C2011366   5.898   4.972   6.161 -0.7390 -0.3492  0.0195
   94MOL    C2111367   5.910   4.813   6.150 -0.2900  0.2409  0.1753
   94MOL    H2211368   5.816   5.007   6.098  2.0591  2.3713 -2.2624
   94MOL    H2311369   5.987   5.017   6.117 -0.1732 -3.5596 -2.2871
   94MOL    H2411370   6.010   4.794   6.190 -0.2945  0.7721  0.4460
   94MOL    H2511371   5.841   4.771   6.223  1.7218  0.8836  2.5475
   94MOL    C2611372   5.902   4.759   6.007  0.3728 -0.4336 -0.9980
   94MOL    C2711373   5.863   4.610   6.009 -0.3616  0.0115  0.7261
   94MOL    H2811374   5.822   4.817   5.961  1.0062  2.3322  1.2337
   94MOL    H2911375   5.989   4.782   5.945  1.4702  2.0038  1.3325
   94MOL    H3011376   5.943   4.543   6.040  1.9259  2.0606 -0.5918
   94MOL    H3111377   5.788   4.606   6.089 -0.6376  0.4103  0.4929
   94MOL    C3211378   5.809   4.545   5.874 -0.1055 -0.1297 -0.1932
   94MOL    C3311379   5.912   4.512   5.765 -0.3012  0.2120 -0.5798
   94MOL    H3411380   5.765   4.449   5.902  0.4136 -0.3864 -0.2529
   94MOL    H3511381   5.729   4.607   5.836 -0.3713  1.0152  2.1610
   94MOL    H3611382   5.865   4.452   5.687 -1.5989  0.6780 -0.1840
   94MOL    H3711383   5.926   4.606   5.710 -1.2840  0.2635 -0.7537
   94MOL    C3811384   6.052   4.460   5.809 -0.1340 -0.2389  0.1650
   94MOL    C3911385   6.143   4.438   5.685  0.0050 -0.0115  0.2540
   94MOL    H4011386   6.091   4.523   5.889  1.2146 -2.4275  1.2533
   94MOL    H4111387   6.039   4.361   5.853  0.7299 -0.2018  0.5097
   94MOL    H4211388   6.118   4.340   5.645 -0.3140 -0.6593  1.9943
   94MOL    H4311389   6.134   4.518   5.612  0.4484  0.6318  0.8877
   94MOL    C4411390   6.292   4.431   5.731 -0.5302 -0.5233 -0.1399
   94MOL    C4511391   6.391   4.437   5.611 -0.5887 -0.6080 -0.8776
   94MOL    H4611392   6.309   4.516   5.797 -1.4964 -0.7196  0.3690
   94MOL    H4711393   6.318   4.341   5.785 -0.3698 -0.0931  0.5016
   94MOL    H4811394   6.363   4.363   5.536  2.2504 -0.5525 -2.0525
   94MOL    H4911395   6.370   4.533   5.563 -1.6561 -0.2278  0.3402
   94MOL    C5011396   6.539   4.409   5.649 -0.1153 -0.1018  0.3596
   94MOL    C5111397   6.642   4.443   5.539  0.0638 -0.7837  0.2523
   94MOL    H5211398   6.558   4.466   5.740 -2.0342 -0.3824  0.9633
   94MOL    H5311399   6.554   4.302   5.666 -1.7978 -0.4687 -0.3088
   94MOL    H5411400   6.611   4.381   5.455  1.1869 -1.1813  0.1116
   94MOL    H5511401   6.632   4.547   5.509  0.3738 -1.0723 -0.8517
   94MOL    C5611402   6.787   4.435   5.584  0.1457  0.6057 -0.2714
   94MOL    C5711403   6.900   4.475   5.489  0.6523  0.3337 -0.2363
   94MOL    H5811404   6.795   4.501   5.670 -0.3825  2.3638 -1.5521
   94MOL    H5911405   6.801   4.334   5.623  1.5652  1.4047  1.3372
   94MOL    H6011406   6.898   4.403   5.407  1.8068  1.1934 -1.0382
   94MOL    H6111407   6.879   4.571   5.442  3.2986 -0.4119 -3.1221
   94MOL    C6211408   7.045   4.468   5.549  0.3377  0.3005  0.4064
   94MOL    C6311409   7.097   4.605   5.595 -0.7326  0.2374  0.7322
   94MOL    H6411410   7.056   4.385   5.620 -1.4420 -0.6104 -0.3528
   94MOL    H6511411   7.114   4.433   5.472 -0.2995  0.1307 -0.0950
   94MOL    H6611412   7.099   4.665   5.504  0.4430 -1.4358 -0.3669
   94MOL    H6711413   7.021   4.642   5.663 -1.7661  0.5403 -0.5840
   94MOL    C6811414   7.238   4.590   5.660  0.4533  0.8360  0.0165
   94MOL    C6911415   7.295   4.726   5.715  0.0349  0.0461  0.0142
   94MOL    H7011416   7.239   4.515   5.740  1.2728 -0.4014 -1.1278
   94MOL    H7111417   7.310   4.568   5.581  0.7547 -0.1758  0.5590
   94MOL    H7211418   7.227   4.771   5.788  0.5357 -0.2395  0.6580
   94MOL    H7311419   7.384   4.691   5.766 -0.6481 -2.0543 -0.1511
   94MOL    C7411420   7.335   4.820   5.598  0.4001 -0.2306 -0.2205
   94MOL    C7511421   7.417   4.939   5.645 -0.5749 -0.1824 -0.0081
   94MOL    H7611422   7.373   4.760   5.515  0.5680  0.7427 -0.8561
   94MOL    H7711423   7.239   4.858   5.563  0.2935  0.6120  0.9598
   94MOL    H7811424   7.365   4.978   5.732 -0.2615  1.2829 -0.4593
   94MOL    H7911425   7.520   4.919   5.677  0.1847  0.8641 -1.7130
   94MOL    C8011426   7.432   5.045   5.526 -0.3421 -0.1000 -1.0120
   94MOL    C8111427   7.491   4.984   5.406  0.3372 -0.2934 -0.3032
   94MOL    H8211428   7.337   5.088   5.495 -0.0933  1.0342 -0.2327
   94MOL    H8311429   7.489   5.128   5.569 -1.6268 -0.1487  0.8511
   94MOL    H8411430   7.590   4.951   5.438  0.8955  0.2246 -1.4705
   94MOL    H8511431   7.430   4.899   5.374 -1.3903  0.6404  0.4329
   94MOL    C8611432   7.525   5.085   5.291  0.5407  0.1753 -0.1168
   94MOL    C8711433   7.582   5.029   5.160 -0.0476 -0.5381 -0.1540
   94MOL    H8811434   7.436   5.144   5.271 -1.0334 -2.7643 -2.0875
   94MOL    H8911435   7.598   5.161   5.316  0.4497 -0.1117  1.0932
   94MOL    H9011436   7.624   5.111   5.100  4.0551 -0.5821  2.4622
   94MOL    H9111437   7.671   4.968   5.170  1.2353  1.2127 -0.5595
   94MOL    C9211438   7.490   4.946   5.080  0.7933 -0.5255 -0.6691
   94MOL    C9311439   7.554   4.916   4.942 -0.2142 -0.0378  0.4583
   94MOL    H9411440   7.467   4.858   5.140 -1.7720  1.7612  1.8530
   94MOL    H9511441   7.397   5.001   5.064  0.0007 -0.7071  2.9929
   94MOL    H9611442   7.573   5.002   4.878 -2.6502 -0.1686 -0.5178
   94MOL    H9711443   7.647   4.862   4.957  0.3329  0.5575 -0.6720
   94MOL    C9811444   7.477   4.802   4.868 -0.0469 -0.8441 -0.7359
   94MOL    C9911445   7.526   4.779   4.730 -0.0320  0.2332 -0.7468
   94MOL   H10011446   7.474   4.706   4.919  0.4614 -0.3830  0.1751
   94MOL   H10111447   7.379   4.849   4.879  0.2471 -0.6565  1.4298
   94MOL   H10211448   7.544   4.877   4.687 -0.2746  1.3379  1.5693
   94MOL   H10311449   7.615   4.716   4.735  0.1153  0.3970 -1.3218
   94MOL   C10411450   7.417   4.703   4.662  0.1724  0.7734  0.2164
   94MOL   C10511451   7.447   4.681   4.506 -0.5242  0.0611 -0.0333
   94MOL   H10611452   7.397   4.611   4.716  0.1293  0.7466  0.1556
   94MOL   H10711453   7.327   4.764   4.661  1.1988  2.3487  1.2141
   94MOL   H10811454   7.456   4.777   4.455 -1.4499  0.5502  0.7040
   94MOL   H10911455   7.546   4.636   4.507 -0.7686 -0.5755 -2.1750
   94MOL   C11011456   7.352   4.578   4.447  0.5869 -0.5919  0.2984
   94MOL   C11111457   7.399   4.535   4.311 -0.4941 -0.6831  0.2446
   94MOL   H11211458   7.347   4.497   4.519 -0.6353  0.5518  1.5314
   94MOL   H11311459   7.253   4.621   4.431  0.5900 -1.7151 -3.1088
   94MOL   H11411460   7.412   4.627   4.255  1.1809 -0.7696  0.4656
   94MOL   H11511461   7.502   4.498   4.314 -0.4914 -0.6092  0.9939
   94MOL   C11611462   7.310   4.444   4.229 -0.1645 -0.6491 -0.4482
   94MOL   C11711463   7.365   4.387   4.099  0.0767 -0.4765  0.7966
   94MOL   H11811464   7.287   4.359   4.293 -1.7993 -1.0820 -1.5752
   94MOL   H11911465   7.221   4.502   4.204  1.9562  2.4171 -1.2041
   94MOL   H12011466   7.460   4.336   4.113 -0.3944 -1.8298 -0.8155
   94MOL   H12111467   7.295   4.318   4.052 -0.5188 -0.9256  2.3188
   94MOL   H12211468   7.393   4.463   4.026  1.8739 -1.9471 -0.0814
   95MOL     C111469   1.410   4.115   1.043  0.1026  0.3594  0.7635
   95MOL     C211470   1.303   3.998   1.041  0.4839  1.0825  0.4717
   95MOL     H311471   1.486   4.095   1.119 -0.6895 -3.4041  0.6946
   95MOL     H411472   1.363   4.211   1.063 -1.9032 -0.7672  1.6806
   95MOL     H511473   1.217   4.012   0.977  0.7243 -1.9151 -0.6019
   95MOL     H611474   1.347   3.907   1.000 -1.0290 -0.6760  2.6402
   95MOL     H711475   1.471   4.113   0.953  1.8590 -2.1000  1.9425
   95MOL     C811476   1.255   3.949   1.175 -0.7970 -0.7477 -0.1007
   95MOL     C911477   1.136   4.033   1.229 -0.5425 -0.3033  0.6127
   95MOL    H1011478   1.218   3.847   1.179 -0.3982 -0.8948 -0.1322
   95MOL    H1111479   1.336   3.946   1.248 -0.9736  1.1001  0.1969
   95MOL    H1211480   1.163   4.139   1.232  2.2584 -0.8844 -1.7966
   95MOL    H1311481   1.049   4.031   1.164 -2.0887  1.4745  2.5577
   95MOL    C1411482   1.090   3.980   1.363 -0.5867 -0.4207  0.3665
   95MOL    C1511483   0.960   4.039   1.423  0.6575 -0.2386 -0.6855
   95MOL    H1611484   1.072   3.874   1.347  1.4774 -0.6234 -0.7292
   95MOL    H1711485   1.170   3.983   1.438  0.0712 -1.0171 -0.3067
   95MOL    H1811486   0.986   4.143   1.447  2.3810 -0.2085 -2.5536
   95MOL    H1911487   0.879   4.028   1.351  0.4657 -3.3347 -0.0589
   95MOL    C2011488   0.920   3.972   1.561 -0.1710 -0.3612 -0.2853
   95MOL    C2111489   0.796   4.033   1.627 -0.2756 -0.1043  0.5503
   95MOL    H2211490   0.906   3.864   1.558  2.9993 -0.8348  0.2377
   95MOL    H2311491   0.996   3.981   1.639 -0.0120  1.0359 -0.5832
   95MOL    H2411492   0.709   4.022   1.563  0.3645  0.5476 -0.4457
   95MOL    H2511493   0.792   3.967   1.713  0.4962 -0.9879 -0.0827
   95MOL    C2611494   0.806   4.181   1.675  0.2728  0.6280  0.3020
   95MOL    C2711495   0.679   4.216   1.740  0.2211 -0.1947  0.1909
   95MOL    H2811496   0.888   4.179   1.747 -1.0052 -2.1322  1.7469
   95MOL    H2911497   0.839   4.245   1.593 -0.2437 -0.7393 -0.9827
   95MOL    H3011498   0.601   4.217   1.665 -0.9727 -0.1773  1.3998
   95MOL    H3111499   0.661   4.138   1.814 -0.2327 -1.4190 -1.1932
   95MOL    C3211500   0.678   4.361   1.783 -0.3427  0.0199  0.5634
   95MOL    C3311501   0.755   4.383   1.915  0.0979  0.4150 -0.6974
   95MOL    H3411502   0.712   4.423   1.700  2.2097 -1.4283  0.4911
   95MOL    H3511503   0.577   4.384   1.817  0.6962  1.6618  2.6381
   95MOL    H3611504   0.724   4.305   1.986 -2.1121  1.9453  0.0837
   95MOL    H3711505   0.861   4.359   1.912  1.4653  5.4990  1.2408
   95MOL    C3811506   0.744   4.521   1.988  0.0758  0.1004  0.5126
   95MOL    C3911507   0.826   4.523   2.121  0.4056 -0.4939 -0.2450
   95MOL    H4011508   0.753   4.612   1.929 -1.5786 -1.2618 -1.9530
   95MOL    H4111509   0.642   4.520   2.026  0.4686 -1.8157  1.6297
   95MOL    H4211510   0.804   4.446   2.195 -1.7098 -0.4076 -0.7817
   95MOL    H4311511   0.931   4.516   2.091  0.6475 -1.4652  0.7797
   95MOL    C4411512   0.825   4.660   2.200 -0.0096 -0.5944  0.1091
   95MOL    C4511513   0.921   4.670   2.321 -0.4374 -0.0201  0.7725
   95MOL    H4611514   0.864   4.733   2.129 -1.8816  1.4631  1.1320
   95MOL    H4711515   0.726   4.690   2.235  0.6862  0.5303  1.1400
   95MOL    H4811516   0.899   4.590   2.391  0.6541 -0.9703  0.0518
   95MOL    H4911517   1.020   4.661   2.275 -2.3648  1.4337 -3.9927
   95MOL    C5011518   0.909   4.804   2.386 -0.3564  0.4506  0.3147
   95MOL    C5111519   1.000   4.825   2.503  0.6000  0.2244  0.4109
   95MOL    H5211520   0.918   4.877   2.307  2.4754 -1.1412 -0.9342
   95MOL    H5311521   0.805   4.808   2.419  0.0402 -2.5810  2.2061
   95MOL    H5411522   0.986   4.748   2.578  1.3498  0.4594  0.8012
   95MOL    H5511523   1.105   4.814   2.476  0.3007 -0.4319 -0.5135
   95MOL    C5611524   0.974   4.954   2.574 -0.5731  0.3434  0.2704
   95MOL    C5711525   1.077   4.964   2.685 -0.3114 -0.1119 -0.0843
   95MOL    H5811526   0.979   5.038   2.506 -0.2116  0.1046  0.0058
   95MOL    H5911527   0.869   4.955   2.607 -0.8672 -0.1369 -0.6422
   95MOL    H6011528   1.063   4.890   2.764  2.8986  1.1345  1.7756
   95MOL    H6111529   1.178   4.960   2.644  0.0226  2.0301  0.4446
   95MOL    C6211530   1.054   5.108   2.746 -0.2170 -0.5242  0.2442
   95MOL    C6311531   1.139   5.137   2.868 -0.3757 -0.0216 -0.3092
   95MOL    H6411532   1.080   5.179   2.667 -3.2458  1.7390  1.1676
   95MOL    H6511533   0.946   5.116   2.762 -0.3944 -1.8863 -0.2677
   95MOL    H6611534   1.094   5.065   2.936 -0.9257  0.8724  0.2884
   95MOL    H6711535   1.243   5.119   2.839 -0.7509 -0.1524 -1.6146
   95MOL    C6811536   1.110   5.275   2.929 -0.6606  0.3952 -0.1690
   95MOL    C6911537   1.196   5.386   2.866  0.2390 -0.5359 -0.5277
   95MOL    H7011538   1.004   5.299   2.919 -0.8046  0.7766  1.9340
   95MOL    H7111539   1.127   5.263   3.036 -2.3216 -0.4895  0.0179
   95MOL    H7211540   1.299   5.357   2.843  0.7574  0.9225 -0.0825
   95MOL    H7311541   1.158   5.416   2.768  1.9521 -0.4036 -1.1648
   95MOL    C7411542   1.197   5.524   2.940  0.0128 -1.0557  0.0246
   95MOL    C7511543   1.259   5.637   2.855 -0.4188 -0.0356  0.4902
   95MOL    H7611544   1.101   5.563   2.973  0.3206  0.6033 -0.9691
   95MOL    H7711545   1.256   5.509   3.031  0.0308 -1.0322  0.0164
   95MOL    H7811546   1.362   5.602   2.842 -0.7152 -1.1568  1.1179
   95MOL    H7911547   1.225   5.651   2.752 -2.1954  2.7931  1.3962
   95MOL    C8011548   1.263   5.777   2.903  0.0656 -0.3455 -0.3635
   95MOL    C8111549   1.305   5.880   2.798  0.9788 -0.0663  0.6211
   95MOL    H8211550   1.164   5.811   2.934  0.6737 -1.1747  2.5594
   95MOL    H8311551   1.334   5.794   2.984  1.0004 -1.8096 -0.8565
   95MOL    H8411552   1.406   5.851   2.771  0.0506 -0.3546 -2.7671
   95MOL    H8511553   1.237   5.871   2.713  0.7586  0.2311  0.7664
   95MOL    C8611554   1.308   6.025   2.843 -0.0615 -0.4256  0.1979
   95MOL    C8711555   1.313   6.122   2.721 -0.1234  0.0652  0.4516
   95MOL    H8811556   1.210   6.041   2.887  0.2766  3.7455 -0.3525
   95MOL    H8911557   1.390   6.050   2.910  1.0403 -1.7305 -0.6465
   95MOL    H9011558   1.395   6.094   2.655 -1.3953 -1.2181 -0.6232
   95MOL    H9111559   1.214   6.117   2.675 -0.1155 -0.5643  0.5044
   95MOL    C9211560   1.321   6.270   2.770  0.1402 -0.0644 -0.1644
   95MOL    C9311561   1.308   6.357   2.645  0.1221 -0.0292  0.5672
   95MOL    H9411562   1.239   6.304   2.834  0.7161 -1.3244  1.2798
   95MOL    H9511563   1.415   6.282   2.822  0.1806 -4.3612  0.9681
   95MOL    H9611564   1.391   6.342   2.576  0.2898  2.2400  0.2320
   95MOL    H9711565   1.227   6.312   2.587 -0.6148 -1.4925  2.6467
   95MOL    C9811566   1.293   6.505   2.672  0.3336 -0.4952 -0.1437
   95MOL    C9911567   1.240   6.581   2.551 -0.7722 -0.7401  0.2981
   95MOL   H10011568   1.224   6.522   2.755  0.0636  0.1689 -0.4987
   95MOL   H10111569   1.389   6.543   2.706 -1.1486  2.1320  1.2851
   95MOL   H10211570   1.283   6.681   2.542 -2.0351 -0.2275 -0.2705
   95MOL   H10311571   1.272   6.530   2.460  0.5024 -1.8634  1.3666
   95MOL   C10411572   1.087   6.567   2.536 -0.7792  0.0539  0.3002
   95MOL   C10511573   1.030   6.503   2.406  0.5330  0.3807  0.9126
   95MOL   H10611574   1.030   6.531   2.621  2.1692  1.4299  2.9772
   95MOL   H10711575   1.050   6.668   2.522 -0.5373  0.1160  0.1003
   95MOL   H10811576   1.073   6.542   2.314  0.1954 -0.5589  0.3570
   95MOL   H10911577   1.054   6.397   2.409  2.2428  0.7668  1.2818
   95MOL   C11011578   0.875   6.516   2.402 -0.2510  0.0609 -0.2125
   95MOL   C11111579   0.798   6.447   2.285  0.3324 -0.4161 -0.0511
   95MOL   H11211580   0.836   6.478   2.496 -1.2359 -0.8155 -0.9726
   95MOL   H11311581   0.847   6.621   2.415  0.6029  0.2963 -0.2044
   95MOL   H11411582   0.707   6.502   2.262  1.6902  1.4459 -1.1319
   95MOL   H11511583   0.860   6.454   2.196  2.3654 -0.9281  1.2831
   95MOL   C11611584   0.761   6.304   2.313 -0.8307  0.0135 -0.4389
   95MOL   C11711585   0.671   6.240   2.203  0.1960  0.2482  0.9531
   95MOL   H11811586   0.851   6.246   2.328 -1.3404 -0.2242  1.9146
   95MOL   H11911587   0.731   6.284   2.416  2.2269  0.4836  0.5796
   95MOL   H12011588   0.593   6.315   2.192 -1.5211 -1.6981 -0.3987
   95MOL   H12111589   0.727   6.242   2.110 -0.9106 -1.6573  0.2173
   95MOL   H12211590   0.634   6.140   2.226  1.0277 -0.7365 -1.8018
   96MOL     C111591   6.251   4.998   1.964 -0.0503  0.5068  0.1983
   96MOL     C211592   6.168   5.120   1.931  0.7992 -0.5276 -0.1151
   96MOL     H311593   6.318   5.015   2.047 -2.2649  3.0810  1.5318
   96MOL     H411594   6.309   4.958   1.881 -0.2504 -0.5978  0.5832
   96MOL     H511595   6.236   5.188   1.879  0.4830  0.6145  0.9435
   96MOL     H611596   6.087   5.090   1.865 -0.1869  0.0580  0.8035
   96MOL     H711597   6.189   4.911   1.987 -1.6754  1.4965 -0.3575
   96MOL     C811598   6.099   5.181   2.056 -0.0448  0.1587 -0.0030
   96MOL     C911599   6.023   5.314   2.032  0.7458  0.2278 -0.0695
   96MOL    H1011600   6.044   5.106   2.113 -1.3600 -0.7539 -2.4102
   96MOL    H1111601   6.180   5.211   2.123  0.4023 -1.9992  0.4715
   96MOL    H1211602   6.016   5.376   2.121  0.4142 -0.4580  0.3855
   96MOL    H1311603   6.081   5.378   1.967  1.1514  0.9265  0.9753
   96MOL    C1411604   5.876   5.301   1.982 -0.4627 -0.0346 -0.1138
   96MOL    C1511605   5.864   5.229   1.856 -0.3214  0.1110  0.2425
   96MOL    H1611606   5.814   5.255   2.059  1.5841 -0.3158  1.4219
   96MOL    H1711607   5.833   5.401   1.973  0.4425  0.5872  2.0861
   96MOL    H1811608   5.941   5.268   1.789 -0.4203 -0.1135 -0.0031
   96MOL    H1911609   5.881   5.121   1.861 -2.6958 -0.2880  0.4000
   96MOL    C2011610   5.733   5.248   1.781  0.2465  0.3177  0.4674
   96MOL    C2111611   5.610   5.180   1.857 -0.2753 -0.3745  0.5911
   96MOL    H2211612   5.712   5.354   1.771 -0.1334  0.2596  0.6561
   96MOL    H2311613   5.753   5.192   1.689  1.6704  2.3080 -0.4856
   96MOL    H2411614   5.608   5.072   1.841  5.2276 -0.5366  0.0582
   96MOL    H2511615   5.619   5.197   1.964 -0.9530 -0.8589  0.7279
   96MOL    C2611616   5.475   5.238   1.807 -0.0420  0.2724 -0.1787
   96MOL    C2711617   5.361   5.161   1.871 -0.3814  0.5864  0.5013
   96MOL    H2811618   5.463   5.341   1.839 -2.0581  0.0577 -0.1493
   96MOL    H2911619   5.469   5.233   1.698  1.9169 -0.2765 -0.2770
   96MOL    H3011620   5.377   5.054   1.863  2.5780  0.9469  1.2132
   96MOL    H3111621   5.375   5.171   1.979  0.8563  2.5729  0.1762
   96MOL    C3211622   5.220   5.211   1.838 -0.3913  0.2993  0.3531
   96MOL    C3311623   5.112   5.142   1.923 -0.3220  0.6459  0.2487
   96MOL    H3411624   5.217   5.320   1.843  1.1698  0.3816 -0.1951
   96MOL    H3511625   5.196   5.184   1.735  0.4432  0.8373  0.0177
   96MOL    H3611626   5.114   5.035   1.902 -1.7884  0.8203 -0.8934
   96MOL    H3711627   5.146   5.160   2.025  2.1378  2.2881 -0.8365
   96MOL    C3811628   4.966   5.194   1.903 -0.1894  0.0930  0.0254
   96MOL    C3911629   4.861   5.103   1.960 -0.0232  0.8682 -0.3639
   96MOL    H4011630   4.951   5.289   1.955 -0.5666 -1.1281  2.2380
   96MOL    H4111631   4.947   5.205   1.796 -0.7550 -0.6691  0.0475
   96MOL    H4211632   4.844   5.031   1.880 -0.9263  1.8224 -1.0450
   96MOL    H4311633   4.898   5.045   2.045 -0.6107  1.3285  0.2136
   96MOL    C4411634   4.735   5.189   1.995  0.7655 -0.6029 -0.2023
   96MOL    C4511635   4.603   5.109   1.969  0.1721 -0.0279  0.2106
   96MOL    H4611636   4.744   5.218   2.099 -0.8846 -1.0544  0.0848
   96MOL    H4711637   4.713   5.277   1.934  1.0218 -0.1576  0.3495
   96MOL    H4811638   4.592   5.076   1.865 -0.8154 -2.3202  1.0156
   96MOL    H4911639   4.594   5.018   2.029 -2.4769  0.5581  0.7579
   96MOL    C5011640   4.472   5.181   2.019 -0.6766  0.3805  0.3174
   96MOL    C5111641   4.360   5.092   2.061  0.2069  0.2879 -0.0230
   96MOL    H5211642   4.492   5.249   2.103  1.2493  0.2437  0.0009
   96MOL    H5311643   4.449   5.255   1.943 -0.0102  0.1331 -0.1325
   96MOL    H5411644   4.345   5.010   1.991  0.8513 -0.9465  1.2518
   96MOL    H5511645   4.411   5.038   2.141 -0.3883  2.6495  1.9944
   96MOL    C5611646   4.226   5.154   2.088 -0.9224 -0.2979  0.7193
   96MOL    C5711647   4.121   5.048   2.131 -0.2112 -0.4183  1.1249
   96MOL    H5811648   4.239   5.220   2.174 -0.0462  0.0138  0.3568
   96MOL    H5911649   4.185   5.205   2.001  0.1150 -3.1313 -1.5108
   96MOL    H6011650   4.098   4.985   2.045 -1.5279 -1.7407  2.4250
   96MOL    H6111651   4.155   4.986   2.213  2.0221 -2.9076 -1.5743
   96MOL    C6211652   3.999   5.123   2.178 -0.1180  0.5840  0.0949
   96MOL    C6311653   3.884   5.027   2.237 -0.0711 -0.8488 -0.2569
   96MOL    H6411654   4.033   5.186   2.260  2.0743  2.2160 -1.9714
   96MOL    H6511655   3.962   5.181   2.093  1.1531  2.1598  0.5910
   96MOL    H6611656   3.852   4.959   2.158 -1.2081 -0.9852  0.3004
   96MOL    H6711657   3.928   4.972   2.320 -0.9035 -1.1462 -0.0069
   96MOL    C6811658   3.763   5.112   2.277 -0.4673 -0.2452 -0.4698
   96MOL    C6911659   3.696   5.199   2.164 -0.1996  0.2791  0.5670
   96MOL    H7011660   3.691   5.053   2.334 -0.9889  1.0445  0.2356
   96MOL    H7111661   3.799   5.187   2.348 -2.3130  0.3164 -0.0795
   96MOL    H7211662   3.767   5.272   2.126 -1.8368  1.6551  0.0753
   96MOL    H7311663   3.666   5.132   2.084 -1.3615 -0.8475  1.9210
   96MOL    C7411664   3.579   5.292   2.215  0.1938  0.7606 -0.1772
   96MOL    C7511665   3.621   5.426   2.289  0.3582  0.1191 -0.4007
   96MOL    H7611666   3.538   5.336   2.124  3.1461  0.7406 -1.5618
   96MOL    H7711667   3.508   5.233   2.272  0.7830  0.2709  0.0512
   96MOL    H7811668   3.653   5.418   2.393  2.6011  4.0238 -0.6856
   96MOL    H7911669   3.710   5.455   2.232 -1.7666  1.0763 -3.3539
   96MOL    C8011670   3.520   5.542   2.266  0.4358 -0.1429  0.3066
   96MOL    C8111671   3.543   5.663   2.351  0.6141 -0.1826 -0.3103
   96MOL    H8211672   3.516   5.574   2.162  0.7179  4.1014  1.4949
   96MOL    H8311673   3.423   5.494   2.283 -0.4330  0.6552 -2.1402
   96MOL    H8411674   3.458   5.732   2.341 -0.2609 -1.5127 -2.5012
   96MOL    H8511675   3.519   5.633   2.452 -1.2326  0.8637 -0.4080
   96MOL    C8611676   3.682   5.733   2.338  0.1801  0.2058  0.6758
   96MOL    C8711677   3.692   5.861   2.419  0.4218  0.0054 -0.7226
   96MOL    H8811678   3.756   5.661   2.370  0.0012 -0.0267  0.5698
   96MOL    H8911679   3.712   5.746   2.234 -2.0907 -4.3153 -0.6740
   96MOL    H9011680   3.604   5.921   2.399 -0.0431 -0.7321 -0.8995
   96MOL    H9111681   3.676   5.833   2.523 -0.6213 -1.4933 -1.2698
   96MOL    C9211682   3.828   5.932   2.410 -0.3018 -0.4279  0.1783
   96MOL    C9311683   3.857   6.064   2.492 -0.2306 -0.4062 -0.0130
   96MOL    H9411684   3.907   5.870   2.455 -0.2946  0.3683  1.2869
   96MOL    H9511685   3.852   5.939   2.304 -0.2421 -1.0902  0.1459
   96MOL    H9611686   3.780   6.138   2.468  0.9051  0.8556  0.1711
   96MOL    H9711687   3.855   6.034   2.596 -0.2757 -4.0332 -0.9936
   96MOL    C9811688   3.992   6.123   2.449 -0.3216 -0.2028  0.2677
   96MOL    C9911689   4.020   6.233   2.545  1.1273 -0.0162 -0.3177
   96MOL   H10011690   4.076   6.054   2.453 -0.3678 -0.3286 -0.9264
   96MOL   H10111691   3.988   6.155   2.346 -0.6317 -0.7546  0.1029
   96MOL   H10211692   3.959   6.319   2.517  1.9324  0.3918 -0.8149
   96MOL   H10311693   3.987   6.218   2.648  0.3136 -0.0305 -0.5739
   96MOL   C10411694   4.169   6.275   2.542  0.2161  0.2711 -0.1968
   96MOL   C10511695   4.176   6.416   2.601 -0.2526 -0.2911 -0.3848
   96MOL   H10611696   4.221   6.200   2.603  1.4070 -0.1954 -1.7512
   96MOL   H10711697   4.203   6.262   2.439 -0.9479  1.2683 -0.7173
   96MOL   H10811698   4.101   6.488   2.566  0.8449  1.0214 -0.0722
   96MOL   H10911699   4.135   6.405   2.701 -0.4889  1.4463 -0.2808
   96MOL   C11011700   4.321   6.464   2.576 -0.3789 -0.5119 -0.4351
   96MOL   C11111701   4.340   6.605   2.615 -0.2566  0.4534  0.6150
   96MOL   H11211702   4.384   6.403   2.641  2.2114  1.7845 -0.7021
   96MOL   H11311703   4.356   6.442   2.475  0.4191  3.0101 -0.9716
   96MOL   H11411704   4.304   6.619   2.717 -1.3596  0.7298  0.1966
   96MOL   H11511705   4.448   6.604   2.625  0.0447  0.6372 -2.4382
   96MOL   C11611706   4.302   6.713   2.512  0.1192 -0.7062 -0.2128
   96MOL   C11711707   4.294   6.847   2.595 -0.5905 -0.0970  0.3344
   96MOL   H11811708   4.370   6.723   2.427  0.2743  0.3492  0.0299
   96MOL   H11911709   4.202   6.697   2.470 -0.2936 -0.4277  0.6643
   96MOL   H12011710   4.396   6.877   2.620  0.5160 -1.4892 -2.2430
   96MOL   H12111711   4.253   6.922   2.527 -1.4511 -1.2505 -0.4465
   96MOL   H12211712   4.219   6.843   2.674 -0.1109  1.4726  0.8778
   97MOL     C111713   4.105   6.297   4.609  0.7809 -0.0214  0.1630
   97MOL     C211714   3.994   6.321   4.706  0.1035 -0.9897 -0.1040
   97MOL     H311715   4.086   6.318   4.504 -3.6568 -0.6686  0.7623
   97MOL     H411716   4.139   6.193   4.615  0.4472 -0.0579  1.5800
   97MOL     H511717   3.908   6.260   4.679 -1.3722  0.8765  0.2999
   97MOL     H611718   4.021   6.295   4.809 -0.1050 -0.9103 -0.0282
   97MOL     H711719   4.184   6.359   4.653 -0.7534  0.5138  2.2473
   97MOL     C811720   3.967   6.476   4.715  0.0660 -0.3749  0.3519
   97MOL     C911721   3.915   6.524   4.579  0.4065 -0.4130  0.3965
   97MOL    H1011722   3.900   6.509   4.795 -1.2168 -1.8016 -0.1232
   97MOL    H1111723   4.056   6.538   4.732  0.1531 -0.7035  1.1191
   97MOL    H1211724   3.989   6.518   4.500  1.2528 -1.4666  1.2556
   97MOL    H1311725   3.835   6.458   4.546 -1.4577  1.4541  1.0743
   97MOL    C1411726   3.849   6.660   4.573  0.8435 -0.3102  0.5648
   97MOL    C1511727   3.775   6.692   4.440  0.0249 -0.0578 -0.1617
   97MOL    H1611728   3.777   6.659   4.655 -1.3599  1.7682 -1.2545
   97MOL    H1711729   3.915   6.745   4.592  0.1834 -0.5461  4.3301
   97MOL    H1811730   3.855   6.699   4.366  0.0101 -0.3078 -0.2033
   97MOL    H1911731   3.718   6.609   4.398  0.1478 -0.1694 -0.1082
   97MOL    C2011732   3.699   6.823   4.441  0.0768  0.4905 -0.4965
   97MOL    C2111733   3.567   6.814   4.521  0.0183  0.1516 -0.5294
   97MOL    H2211734   3.760   6.903   4.484 -0.0969  0.4394 -0.1514
   97MOL    H2311735   3.680   6.865   4.342  1.2216 -0.6730 -1.2143
   97MOL    H2411736   3.489   6.768   4.459  0.6506 -0.8878 -0.5721
   97MOL    H2511737   3.578   6.743   4.603  1.0743 -0.0380 -0.8271
   97MOL    C2611738   3.511   6.951   4.570 -0.0022 -0.0107  0.2661
   97MOL    C2711739   3.584   6.997   4.695  0.6695  0.1657 -0.3067
   97MOL    H2811740   3.520   7.029   4.495 -0.3398 -1.1115 -0.9206
   97MOL    H2911741   3.406   6.937   4.596 -0.4333  2.7079  0.1251
   97MOL    H3011742   3.572   6.924   4.775 -1.4065  0.2592 -0.5086
   97MOL    H3111743   3.691   7.011   4.679  0.6523  1.6892  0.8390
   97MOL    C3211744   3.543   7.131   4.756 -0.0906 -0.4735  0.3066
   97MOL    C3311745   3.644   7.182   4.860 -0.1958  0.5587 -0.5763
   97MOL    H3411746   3.537   7.210   4.681  0.9416  0.1607  0.8802
   97MOL    H3511747   3.444   7.111   4.797 -0.0610  1.4813  1.4131
   97MOL    H3611748   3.657   7.097   4.927 -0.9164 -0.1621 -1.3340
   97MOL    H3711749   3.740   7.208   4.815  0.8325 -0.5399  0.9364
   97MOL    C3811750   3.587   7.308   4.934  0.4245  0.4986 -0.6643
   97MOL    C3911751   3.686   7.389   5.019  0.4114  0.3078  0.2142
   97MOL    H4011752   3.527   7.368   4.866  1.1451 -0.1777 -1.9238
   97MOL    H4111753   3.506   7.271   4.996  1.4079  0.8573  0.8659
   97MOL    H4211754   3.725   7.316   5.091 -1.5464  0.1236  1.1218
   97MOL    H4311755   3.762   7.433   4.954 -1.3978  2.1829 -0.6631
   97MOL    C4411756   3.627   7.512   5.092 -0.7404  0.0298 -0.1072
   97MOL    C4511757   3.711   7.539   5.223  0.2666  0.2504  0.3386
   97MOL    H4611758   3.619   7.603   5.034  0.4382  0.1153 -0.1364
   97MOL    H4711759   3.528   7.471   5.115 -0.3615  0.3774  2.2795
   97MOL    H4811760   3.731   7.450   5.283  0.1594  1.1194  1.6646
   97MOL    H4911761   3.807   7.571   5.181  0.5941  1.4204  1.9488
   97MOL    C5011762   3.647   7.639   5.317 -0.9139  0.0681 -0.2833
   97MOL    C5111763   3.713   7.649   5.458  0.8298  0.0363  0.1774
   97MOL    H5211764   3.659   0.038   5.258 -0.0078 -0.5001 -0.9874
   97MOL    H5311765   3.544   7.614   5.341 -0.6729  0.5437  1.2692
   97MOL    H5411766   3.717   7.550   5.503 -1.4025  0.6128  1.7378
   97MOL    H5511767   3.808   0.008   5.445 -0.2138  1.6687 -1.1947
   97MOL    C5611768   3.625   0.035   5.562  0.6764  0.3022 -0.3701
   97MOL    C5711769   3.681   0.043   5.708  0.0086 -0.2890  0.2651
   97MOL    H5811770   3.616   0.135   5.520  0.5487  0.8954  1.0312
   97MOL    H5911771   3.523   7.688   5.569  0.7644  0.3448  1.4383
   97MOL    H6011772   3.721   7.638   5.736  0.1707 -0.3232 -0.0872
   97MOL    H6111773   3.770   0.104   5.693 -0.1298 -0.7083 -2.4204
   97MOL    C6211774   3.589   0.105   5.813 -0.1562  0.1533 -0.3754
   97MOL    C6311775   3.656   0.120   5.951  0.0474  0.0441  0.7885
   97MOL    H6411776   3.574   0.203   5.767 -1.2024  1.3216  2.3035
   97MOL    H6511777   3.492   0.055   5.820  0.0507 -0.4423 -1.6766
   97MOL    H6611778   3.576   0.115   6.023  0.8019 -0.6756  1.5820
   97MOL    H6711779   3.704   0.028   5.982  0.3250 -0.3711 -0.8379
   97MOL    C6811780   3.748   0.235   5.965 -0.2520 -0.4743 -0.4439
   97MOL    C6911781   3.780   0.283   6.107 -0.0218 -0.1038 -1.2389
   97MOL    H7011782   3.839   0.211   5.910  0.7055  1.3410  0.3022
   97MOL    H7111783   3.703   0.321   5.914 -0.1838  1.0337  1.9440
   97MOL    H7211784   3.686   0.310   6.155  1.2815  1.1955  0.6225
   97MOL    H7311785   3.831   0.204   6.162  3.2845  2.0679 -1.1097
   97MOL    C7411786   3.871   0.404   6.100 -0.1424  0.3942 -0.0945
   97MOL    C7511787   3.803   0.535   6.050  0.1870  0.5408 -0.1719
   97MOL    H7611788   3.915   0.413   6.199  2.2774 -0.8925 -1.0115
   97MOL    H7711789   3.948   0.384   6.025 -0.1746 -0.2699  0.0408
   97MOL    H7811790   3.738   0.521   5.964  0.6064 -0.6972 -0.3080
   97MOL    H7911791   3.748   0.576   6.135 -1.8980  0.9267 -1.6725
   97MOL    C8011792   3.906   0.644   5.999  0.9703 -0.3161  0.1540
   97MOL    C8111793   4.006   0.703   6.100  0.8431 -0.4380  0.1544
   97MOL    H8211794   3.953   0.606   5.908 -0.9310  2.6597 -2.1689
   97MOL    H8311795   3.851   0.728   5.957  1.5018  0.8862  1.8343
   97MOL    H8411796   3.964   0.730   6.197  0.0972 -0.1425 -0.2442
   97MOL    H8511797   4.082   0.631   6.130 -0.8193 -2.1698  0.3069
   97MOL    C8611798   4.079   0.825   6.045 -0.3148 -0.6900 -0.3132
   97MOL    C8711799   4.192   0.875   6.130  0.7180  0.6193  0.0047
   97MOL    H8811800   4.096   0.815   5.938 -0.4429  1.5013 -0.5547
   97MOL    H8911801   4.014   0.912   6.049 -0.5667 -0.8757 -0.3428
   97MOL    H9011802   4.147   0.893   6.228 -2.2224  1.0058 -1.3851
   97MOL    H9111803   4.256   0.788   6.149  0.0430 -0.2952 -1.7737
   97MOL    C9211804   4.262   0.998   6.069 -0.0227  0.0921 -0.3095
   97MOL    C9311805   4.342   0.959   5.952  0.4523 -1.1698  0.5411
   97MOL    H9411806   4.180   1.057   6.027 -1.9192 -1.5356  0.9922
   97MOL    H9511807   4.321   1.051   6.143  3.0974 -0.7747 -2.1075
   97MOL    H9611808   4.420   0.886   5.972  0.9329 -1.6731 -2.8727
   97MOL    H9711809   4.286   0.907   5.874  0.1267  0.1170 -0.1119
   97MOL    C9811810   4.402   1.071   5.871  0.4415  0.6186  0.1286
   97MOL    C9911811   4.475   1.012   5.753 -0.1662  0.4874  0.2843
   97MOL   H10011812   4.332   1.141   5.827 -1.0518  0.0824  1.5868
   97MOL   H10111813   4.465   1.130   5.938  0.7382 -1.8441  2.1074
   97MOL   H10211814   4.520   0.917   5.783  1.2640  0.1996 -2.5368
   97MOL   H10311815   4.406   0.982   5.674  1.9110 -1.3071 -0.9325
   97MOL   C10411816   4.597   1.095   5.704 -0.0669  0.1104  0.0474
   97MOL   C10511817   4.685   1.016   5.599  0.3819 -0.3556 -1.5777
   97MOL   H10611818   4.564   1.179   5.643 -1.0124  1.4090  2.2708
   97MOL   H10711819   4.649   1.133   5.793 -0.5603 -2.3699  1.4300
   97MOL   H10811820   4.624   0.981   5.517 -0.6743  3.4894 -2.5186
   97MOL   H10911821   4.760   1.085   5.560  0.9053 -1.2119 -2.1056
   97MOL   C11011822   4.760   0.896   5.656  0.3856 -0.1274 -0.3375
   97MOL   C11111823   4.848   0.826   5.549  0.3386  0.9494  0.7596
   97MOL   H11211824   4.830   0.926   5.735  2.2349  1.0542 -2.3630
   97MOL   H11311825   4.689   0.832   5.709  0.3009 -0.2528 -0.6065
   97MOL   H11411826   4.796   0.784   5.463 -1.6135 -0.5693  2.6215
   97MOL   H11511827   4.922   0.898   5.516 -0.5220  1.8461  0.7713
   97MOL   C11611828   4.923   0.699   5.614 -0.3580 -0.3335  0.3661
   97MOL   C11711829   5.010   0.619   5.512 -0.2593 -0.3648  0.4818
   97MOL   H11811830   4.986   0.724   5.699 -0.7576  0.9633  0.2920
   97MOL   H11911831   4.856   0.629   5.664 -2.2633  0.5468 -0.8859
   97MOL   H12011832   5.093   0.678   5.472  0.1273 -2.1285 -1.3946
   97MOL   H12111833   5.068   0.544   5.565  0.4638  0.1638  0.4515
   97MOL   H12211834   4.958   0.571   5.430  1.2984  0.6392 -1.1215
   98MOL     C111835   4.880   5.412   0.720 -0.7221  0.3186 -0.1429
   98MOL     C211836   4.802   5.512   0.641 -0.6057 -0.4602  0.3296
   98MOL     H311837   4.843   5.312   0.703 -2.0659  0.3654  2.2748
   98MOL     H411838   4.875   5.441   0.825 -2.7692  1.4565 -0.5254
   98MOL     H511839   4.856   5.606   0.646 -0.8129 -0.3626  0.6869
   98MOL     H611840   4.819   5.487   0.536 -1.1169  1.0020 -0.1122
   98MOL     H711841   4.981   5.415   0.679 -0.7202 -1.3473 -0.2687
   98MOL     C811842   4.653   5.538   0.674 -0.0644 -0.0180 -0.0933
   98MOL     C911843   4.558   5.539   0.555 -0.2910  0.8231  0.3919
   98MOL    H1011844   4.626   5.467   0.752  1.7132  0.5387  1.0661
   98MOL    H1111845   4.643   5.630   0.732  1.0074  0.9484 -1.3920
   98MOL    H1211846   4.599   5.622   0.498  0.3839 -1.1654 -2.1543
   98MOL    H1311847   4.577   5.454   0.489 -0.1280  2.7753 -2.1376
   98MOL    C1411848   4.413   5.548   0.606  0.0138 -0.5419  0.1832
   98MOL    C1511849   4.316   5.574   0.488 -0.9894 -0.0582  0.6765
   98MOL    H1611850   4.389   5.450   0.647 -0.6995 -0.1291  0.7548
   98MOL    H1711851   4.411   5.632   0.676 -0.6831  1.6837 -2.4201
   98MOL    H1811852   4.317   5.682   0.471  0.2544 -0.4065 -1.7990
   98MOL    H1911853   4.348   5.519   0.400  1.6115 -0.4606  1.8236
   98MOL    C2011854   4.177   5.526   0.522 -0.1902 -0.0305  0.1915
   98MOL    C2111855   4.076   5.555   0.413 -0.3765  0.1484  0.0545
   98MOL    H2211856   4.189   5.419   0.541 -1.1183  0.5401  4.5165
   98MOL    H2311857   4.142   5.576   0.612 -0.2895  0.5555 -0.1667
   98MOL    H2411858   4.088   5.494   0.324 -0.0753  0.7511 -0.3235
   98MOL    H2511859   3.974   5.536   0.446  0.6873 -1.0974  2.7846
   98MOL    C2611860   4.067   5.710   0.387 -0.4265  0.0703  0.1408
   98MOL    C2711861   3.947   5.756   0.308 -0.2766 -0.3761  0.2845
   98MOL    H2811862   4.068   5.758   0.485  3.4656 -1.2744  0.8689
   98MOL    H2911863   4.155   5.756   0.341 -0.7743  0.7050  0.1088
   98MOL    H3011864   3.944   5.708   0.210 -0.4325 -1.1349  0.6566
   98MOL    H3111865   3.857   5.717   0.355 -1.3548  0.3589 -1.1312
   98MOL    C3211866   3.956   5.905   0.306  0.1766  0.4660  0.2104
   98MOL    C3311867   3.838   5.972   0.232  0.5020 -0.3551  0.7326
   98MOL    H3411868   3.962   5.940   0.409 -0.9953 -2.1683  1.2129
   98MOL    H3511869   4.043   5.920   0.242  0.9284  1.0868  1.3634
   98MOL    H3611870   3.842   5.919   0.136  0.0448 -1.5287  1.3514
   98MOL    H3711871   3.741   5.957   0.280  0.7486  0.5698  1.5203
   98MOL    C3811872   3.853   6.121   0.193  0.0648 -0.0164 -0.6213
   98MOL    C3911873   3.751   6.163   0.088  0.0520  0.0855  0.5312
   98MOL    H4011874   3.863   6.191   0.277  0.3663 -1.1764  0.3267
   98MOL    H4111875   3.954   6.127   0.154  0.2649  0.8645  0.0008
   98MOL    H4211876   3.778   6.113   7.687  1.4909  1.2933  0.2794
   98MOL    H4311877   3.651   6.126   0.110 -0.1173  1.0467  1.3911
   98MOL    C4411878   3.740   6.321   0.062 -0.6764  0.1793  0.2397
   98MOL    C4511879   3.658   6.372   7.632 -0.2517 -0.4710 -0.2365
   98MOL    H4611880   3.707   6.366   0.156 -3.1698 -1.0520 -0.0314
   98MOL    H4711881   3.842   6.357   0.050 -0.8065  0.8012  0.9464
   98MOL    H4811882   3.719   6.355   7.543  1.0336  1.4194  0.2619
   98MOL    H4911883   3.572   6.307   7.617  0.8025 -1.7211 -1.0287
   98MOL    C5011884   3.626   6.520   7.647 -0.7121 -0.5480 -0.2977
   98MOL    C5111885   3.558   6.574   7.521  0.1407  0.3596 -0.6879
   98MOL    H5211886   3.566   6.529   0.046 -0.4698  0.0817 -0.1910
   98MOL    H5311887   3.720   6.574   7.664 -0.1142 -2.1847  1.8786
   98MOL    H5411888   3.605   6.557   7.424  0.2719  0.0922 -0.5777
   98MOL    H5511889   3.468   6.512   7.513 -0.2613  1.1104 -2.1397
   98MOL    C5611890   3.530   6.725   7.523 -0.4049 -0.2711  0.3291
   98MOL    C5711891   3.465   6.774   7.388 -0.0452  0.1522 -0.5100
   98MOL    H5811892   3.465   6.755   7.605 -1.1461 -0.7458 -0.0763
   98MOL    H5911893   3.625   6.775   7.540 -0.3218 -0.5916  0.7993
   98MOL    H6011894   3.532   6.760   7.303  0.4923  1.1672 -0.2608
   98MOL    H6111895   3.376   6.714   7.372 -0.4444  0.5781  0.1317
   98MOL    C6211896   3.441   6.922   7.395 -0.4782 -0.3373 -0.1262
   98MOL    C6311897   3.354   6.972   7.280 -0.3656 -0.5164  0.3095
   98MOL    H6411898   3.387   6.944   7.487  0.5107 -0.0781  0.4107
   98MOL    H6511899   3.533   6.981   7.392  0.1898 -1.2882  0.9483
   98MOL    H6611900   3.409   6.950   7.189  0.8155  0.7955  0.6866
   98MOL    H6711901   3.255   6.927   7.268 -0.2955 -0.5752 -0.0446
   98MOL    C6811902   3.333   7.126   7.303  0.2147  0.1890  0.3641
   98MOL    C6911903   3.252   7.195   7.187  0.1397  0.5590 -0.7449
   98MOL    H7011904   3.280   7.136   7.397  0.4445 -2.4619  0.8135
   98MOL    H7111905   3.431   7.174   7.313  1.1122 -1.3085 -0.8297
   98MOL    H7211906   3.309   7.190   7.094  0.2413  0.3525 -0.6705
   98MOL    H7311907   3.164   7.136   7.163  0.4103  0.1405 -0.7212
   98MOL    C7411908   3.226   7.344   7.200 -0.0869 -0.4821  0.1384
   98MOL    C7511909   3.120   7.384   7.300  0.3840  1.0732  0.7679
   98MOL    H7611910   3.322   7.381   7.237  0.7697  0.5056 -2.9716
   98MOL    H7711911   3.204   7.378   7.099 -2.8976  1.6774  1.4008
   98MOL    H7811912   3.029   7.326   7.284  0.2144  1.7667 -0.8990
   98MOL    H7911913   3.162   7.357   7.396 -0.9249  1.7990  1.5551
   98MOL    C8011914   3.107   7.542   7.302 -0.2122 -0.1438  0.2978
   98MOL    C8111915   3.050   7.607   7.431  0.6036  0.2656  0.8109
   98MOL    H8211916   3.211   7.570   7.317 -0.4400 -0.6588  3.1591
   98MOL    H8311917   3.068   7.579   7.207  1.5213 -0.2856 -0.4823
   98MOL    H8411918   3.059   0.021   7.406 -0.8269  0.5123  1.3288
   98MOL    H8511919   2.943   7.600   7.446  0.8475 -0.1783  2.4046
   98MOL    C8611920   3.138   7.583   7.557  0.2345  0.1573 -0.1092
   98MOL    C8711921   3.112   7.675   7.682 -0.1753 -0.2750  0.2067
   98MOL    H8811922   3.127   7.478   7.585 -0.1122  0.2158 -0.0303
   98MOL    H8911923   3.245   7.598   7.539  0.5074 -0.7595  0.7277
   98MOL    H9011924   3.161   0.078   7.660  1.0478 -0.7225  0.9676
   98MOL    H9111925   3.005   7.688   7.690 -0.1164  0.1001  0.3803
   98MOL    C9211926   3.161   7.623   0.125  0.4140 -0.8951  0.0376
   98MOL    C9311927   3.134   0.035   0.234 -0.1219 -0.4186  0.8481
   98MOL    H9411928   3.109   7.529   0.141 -0.3178 -0.2162  1.7566
   98MOL    H9511929   3.267   7.602   0.109  0.1931 -1.2655 -0.9535
   98MOL    H9611930   3.199   0.119   0.211 -0.3534 -0.6351 -0.6113
   98MOL    H9711931   3.028   0.060   0.240  0.4489  1.8622  2.3853
   98MOL    C9811932   3.182   7.680   0.371  0.1424  0.5483  0.4125
   98MOL    C9911933   3.202   0.108   0.462  0.3445 -0.1913  0.3321
   98MOL   H10011934   3.115   7.611   0.421 -0.5034  0.5425 -0.4471
   98MOL   H10111935   3.275   7.624   0.361 -1.3980 -1.9953 -0.0479
   98MOL   H10211936   3.115   0.173   0.450  0.9675  0.7620  0.8654
   98MOL   H10311937   3.207   0.075   0.566  2.7212 -1.0281 -0.0147
   98MOL   C10411938   3.335   0.185   0.434 -0.9868  0.3158  0.1772
   98MOL   C10511939   3.444   0.112   0.504  0.3916 -0.3967  0.4099
   98MOL   H10611940   3.357   0.197   0.328 -0.2296  1.2287  0.4363
   98MOL   H10711941   3.322   0.290   0.459 -1.1553  0.5426 -0.8164
   98MOL   H10811942   3.418   0.101   0.609 -2.5762  0.2538 -0.1857
   98MOL   H10911943   3.451   0.010   0.467  3.2936  0.0075 -0.2576
   98MOL   C11011944   3.573   0.200   0.506 -0.0440 -0.0058  0.1998
   98MOL   C11111945   3.690   0.130   0.575  0.6514 -0.7257 -0.1310
   98MOL   H11211946   3.598   0.231   0.404 -1.5267  1.2342  0.2004
   98MOL   H11311947   3.544   0.294   0.551 -0.0118  0.1189 -0.0390
   98MOL   H11411948   3.673   0.096   0.678 -0.0885  0.7980  0.2742
   98MOL   H11511949   3.702   0.043   0.511  1.9901 -0.8862  0.3275
   98MOL   C11611950   3.821   0.209   0.585  0.8073  0.0466 -0.2009
   98MOL   C11711951   3.940   0.114   0.612  0.3750  0.5384 -0.3822
   98MOL   H11811952   3.846   0.267   0.496 -2.1505  0.2767 -0.9453
   98MOL   H11911953   3.804   0.284   0.662 -3.3967 -1.1744  0.1848
   98MOL   H12011954   4.027   0.179   0.617  1.4654 -0.6649 -2.8789
   98MOL   H12111955   3.940   0.065   0.709  1.1649 -0.7360 -1.0101
   98MOL   H12211956   3.935   0.047   0.525 -1.4962  1.6860 -1.1809
   99MOL     C111957   2.927   4.849   6.136 -0.4270 -0.1861  0.8689
   99MOL     C211958   2.786   4.806   6.113  0.9260  0.2446 -0.1841
   99MOL     H311959   2.942   4.949   6.177  3.6311 -0.4900  0.3235
   99MOL     H411960   2.980   4.834   6.042  2.0319 -0.8458  2.3176
   99MOL     H511961   2.774   4.703   6.078  0.5675  0.6676 -1.2916
   99MOL     H611962   2.726   4.814   6.204  1.4924  1.7782  0.0666
   99MOL     H711963   2.981   4.784   6.205 -1.1304 -1.2379  0.4377
   99MOL     C811964   2.711   4.889   6.014  0.0934 -0.1241 -0.7070
   99MOL     C911965   2.573   4.828   5.989 -0.4052 -0.0730  0.1099
   99MOL    H1011966   2.703   4.981   6.072  0.7007 -0.1589 -0.5660
   99MOL    H1111967   2.775   4.903   5.927  1.3399  0.8359  0.3673
   99MOL    H1211968   2.575   4.725   5.953  1.4608 -0.7771  2.0972
   99MOL    H1311969   2.531   4.833   6.089 -0.0478  2.5915  0.1569
   99MOL    C1411970   2.482   4.910   5.897 -0.0110 -0.0625  0.3937
   99MOL    C1511971   2.352   4.849   5.841  0.0337  0.3065  0.3449
   99MOL    H1611972   2.454   5.002   5.949 -1.4075  0.8969 -1.9668
   99MOL    H1711973   2.542   4.943   5.813  3.6254  0.7594  3.1782
   99MOL    H1811974   2.366   4.761   5.778  0.8605  1.3754 -0.9933
   99MOL    H1911975   2.288   4.816   5.923  0.5945  0.8736  1.0224
   99MOL    C2011976   2.278   4.948   5.749  0.0612 -0.1397  0.0018
   99MOL    C2111977   2.143   4.895   5.716  0.2663  0.2581 -0.1113
   99MOL    H2211978   2.276   5.041   5.806  1.2057  1.5540 -2.5894
   99MOL    H2311979   2.323   4.964   5.651 -1.5197 -2.1544 -1.0881
   99MOL    H2411980   2.156   4.829   5.631  1.2117  2.0807 -1.4132
   99MOL    H2511981   2.104   4.840   5.802  1.9012 -0.6082  0.0903
   99MOL    C2611982   2.055   5.018   5.672 -0.5112  0.4229  0.6310
   99MOL    C2711983   1.938   4.975   5.595 -0.4527 -0.4759  0.1292
   99MOL    H2811984   2.037   5.078   5.761 -0.2542 -0.2481  1.1318
   99MOL    H2911985   2.105   5.085   5.602  3.0375 -1.4366  1.3131
   99MOL    H3011986   1.968   4.895   5.526  0.5118 -0.2704  0.3020
   99MOL    H3111987   1.876   4.925   5.669 -1.8845  1.8132  0.4877
   99MOL    C3211988   1.857   5.079   5.527 -0.1792  0.1452  0.1768
   99MOL    C3311989   1.732   5.008   5.462  0.0315 -0.7601 -0.0251
   99MOL    H3411990   1.816   5.154   5.594 -0.6580  1.5423 -1.6579
   99MOL    H3511991   1.912   5.135   5.452 -0.1140 -0.4357 -0.2138
   99MOL    H3611992   1.769   4.934   5.392  0.2207 -1.1531  0.4883
   99MOL    H3711993   1.661   4.952   5.523  0.9708 -1.2059  0.6608
   99MOL    C3811994   1.652   5.107   5.376  0.0413  0.1264 -0.7723
   99MOL    C3911995   1.530   5.048   5.306 -0.2007 -0.9466 -1.3819
   99MOL    H4011996   1.621   5.187   5.444  0.3007 -2.2460  2.2259
   99MOL    H4111997   1.728   5.145   5.308 -1.9748 -0.3382 -3.3800
   99MOL    H4211998   1.559   4.975   5.230  1.1472  0.9900 -2.7740
   99MOL    H4311999   1.467   4.994   5.377 -2.3974  2.8547 -0.3327
   99MOL    C4412000   1.438   5.150   5.241  0.3069 -1.3176 -0.4887
   99MOL    C4512001   1.505   5.208   5.113 -0.3937 -0.1499  0.0704
   99MOL    H4612002   1.348   5.100   5.206 -1.7086  2.5663 -1.0210
   99MOL    H4712003   1.411   5.230   5.310 -1.4465 -0.9808 -1.5413
   99MOL    H4812004   1.573   5.280   5.158  1.0068 -1.0885 -0.5425
   99MOL    H4912005   1.568   5.133   5.066 -0.8957 -0.4854 -0.0754
   99MOL    C5012006   1.410   5.272   5.004 -0.8813 -0.1888 -0.8397
   99MOL    C5112007   1.490   5.352   4.899  0.1240 -0.1736  0.1833
   99MOL    H5212008   1.347   5.199   4.955  0.7302 -0.5059 -2.5293
   99MOL    H5312009   1.342   5.341   5.054  0.2956  1.9338 -2.0672
   99MOL    H5412010   1.567   5.419   4.937 -0.9918 -0.1664  2.5151
   99MOL    H5512011   1.545   5.276   4.843  1.3177  0.3674  0.5992
   99MOL    C5612012   1.402   5.433   4.811  0.0895  0.3976 -0.0665
   99MOL    C5712013   1.485   5.478   4.687  0.0510  0.3056  0.4625
   99MOL    H5812014   1.312   5.377   4.784 -1.5300  2.4029  1.0445
   99MOL    H5912015   1.381   5.528   4.860 -0.0672  1.3399 -1.9168
   99MOL    H6012016   1.442   5.578   4.674 -1.8342 -0.3627  1.2863
   99MOL    H6112017   1.591   5.495   4.705  0.6825 -1.7194 -1.1687
   99MOL    C6212018   1.465   5.383   4.560 -0.0087 -0.3874 -0.4481
   99MOL    C6312019   1.520   5.451   4.434  0.7989 -0.2974 -0.5418
   99MOL    H6412020   1.518   5.289   4.572  2.6847  0.7049 -3.1760
   99MOL    H6512021   1.361   5.354   4.545 -0.9024  1.1218  2.3020
   99MOL    H6612022   1.473   5.548   4.443 -4.9433 -2.2139 -6.0837
   99MOL    H6712023   1.629   5.457   4.441  0.8875 -1.9456 -0.1820
   99MOL    C6812024   1.482   5.375   4.299 -0.0747 -0.2698  0.1456
   99MOL    C6912025   1.509   5.462   4.177  0.3805 -0.2623  0.6374
   99MOL    H7012026   1.534   5.279   4.292 -0.4525 -0.5145  0.6077
   99MOL    H7112027   1.377   5.343   4.298 -0.0326 -0.4043 -0.6734
   99MOL    H7212028   1.431   5.538   4.169  0.2593 -0.4498  0.0140
   99MOL    H7312029   1.597   5.525   4.188  1.0069 -0.9602 -0.2748
   99MOL    C7412030   1.496   5.392   4.036  0.8361 -0.3385  0.2158
   99MOL    C7512031   1.538   5.487   3.916 -0.1095 -0.1259  0.8280
   99MOL    H7612032   1.570   5.312   4.043 -0.3388 -1.5034 -0.4120
   99MOL    H7712033   1.402   5.338   4.020  0.8229 -0.1065 -0.5181
   99MOL    H7812034   1.451   5.553   3.907 -0.3851 -0.5950 -0.0271
   99MOL    H7912035   1.624   5.552   3.931 -0.8603  1.3724 -1.1378
   99MOL    C8012036   1.577   5.403   3.789 -0.6488 -0.3740 -0.2036
   99MOL    C8112037   1.456   5.336   3.728  0.2759  0.3812 -0.1705
   99MOL    H8212038   1.612   5.467   3.707 -0.9265 -0.4749 -0.4034
   99MOL    H8312039   1.651   5.327   3.812 -0.9556 -0.3089  1.0570
   99MOL    H8412040   1.417   5.272   3.807 -0.9966  0.2897 -0.8689
   99MOL    H8512041   1.386   5.416   3.705 -0.8089 -1.2796 -2.9107
   99MOL    C8612042   1.479   5.240   3.605  0.2762  0.1577  0.0628
   99MOL    C8712043   1.508   5.314   3.474 -0.3935  0.3829  0.2533
   99MOL    H8812044   1.553   5.161   3.619  0.5473  0.5923  1.1450
   99MOL    H8912045   1.386   5.184   3.597 -1.2533  2.1072  3.0938
   99MOL    H9012046   1.432   5.390   3.455 -1.4750 -0.9270 -0.7349
   99MOL    H9112047   1.601   5.371   3.486  1.1031 -2.1852  1.1358
   99MOL    C9212048   1.497   5.231   3.348  0.9216  0.5736 -0.3966
   99MOL    C9312049   1.559   5.307   3.226 -0.0104 -0.0799  0.2544
   99MOL    H9412050   1.556   5.142   3.367  2.8532  1.1911 -3.2885
   99MOL    H9512051   1.392   5.203   3.335  1.3518 -0.6938 -1.2660
   99MOL    H9612052   1.517   5.408   3.214  1.1697  0.0964 -2.6790
   99MOL    H9712053   1.665   5.331   3.236  0.0278 -0.1535  0.0195
   99MOL    C9812054   1.539   5.230   3.096  0.0691  0.2302  0.2099
   99MOL    C9912055   1.574   5.317   2.976  0.1482  0.6290  0.3247
   99MOL   H10012056   1.599   5.139   3.095  0.4137  0.4447  1.2110
   99MOL   H10112057   1.436   5.193   3.089  0.2511 -0.3227  0.4873
   99MOL   H10212058   1.513   5.406   2.961 -2.3303 -0.9669  0.5062
   99MOL   H10312059   1.665   5.371   2.998  1.5231 -0.6586 -2.0056
   99MOL   C10412060   1.582   5.240   2.840  0.6219 -0.5579  0.4676
   99MOL   C10512061   1.636   5.336   2.732 -0.5466  0.0968 -0.2041
   99MOL   H10612062   1.655   5.161   2.858  0.6445 -0.7788 -0.6111
   99MOL   H10712063   1.487   5.203   2.803  1.3001 -0.4952 -1.3597
   99MOL   H10812064   1.563   5.409   2.698  0.6861  0.8347 -1.2828
   99MOL   H10912065   1.721   5.392   2.771 -1.3026 -0.3178  2.1068
   99MOL   C11012066   1.685   5.249   2.607  0.7346  0.0458 -0.7963
   99MOL   C11112067   1.695   5.330   2.483 -0.6338 -0.0596 -0.2213
   99MOL   H11212068   1.779   5.196   2.624  0.1943 -0.4705  0.6256
   99MOL   H11312069   1.625   5.160   2.593  1.3120 -0.6695  1.2296
   99MOL   H11412070   1.592   5.344   2.451 -1.2215 -4.0201 -0.3027
   99MOL   H11512071   1.747   5.425   2.493  0.6960 -0.7972 -0.0041
   99MOL   C11612072   1.760   5.253   2.371  0.0237 -0.2043  0.3503
   99MOL   C11712073   1.749   5.322   2.230 -0.2506 -0.4085 -0.3257
   99MOL   H11812074   1.863   5.226   2.393  0.1584 -2.7202 -2.9349
   99MOL   H11912075   1.702   5.161   2.362  0.0275 -0.4485  2.6646
   99MOL   H12012076   1.816   5.407   2.245 -1.1679  0.1210  0.8915
   99MOL   H12112077   1.781   5.250   2.155 -0.1404 -0.9337  0.2236
   99MOL   H12212078   1.653   5.364   2.199  0.1038  0.5451 -0.1728
  100MOL     C112079   5.774   3.769   7.395  0.0607  0.2498 -0.0916
  100MOL     C212080   5.727   3.770   7.542 -0.7091 -0.4992  0.0310
  100MOL     H312081   5.834   3.855   7.366 -0.3505  0.8142  0.7073
  100MOL     H412082   5.692   3.776   7.323  1.1458  0.9210 -1.2667
  100MOL     H512083   5.815   3.770   7.607 -1.5521  0.4416  1.1981
  100MOL     H612084   5.669   3.856   7.575  0.5362 -0.1669  1.4430
  100MOL     H712085   5.840   3.690   7.360 -1.2533  0.1610 -2.5060
  100MOL     C812086   5.661   3.639   7.585 -0.2607  0.5134  0.0001
  100MOL     C912087   5.644   3.625   0.047  0.2291  0.1840 -0.5133
  100MOL    H1012088   5.559   3.641   7.546  0.5641 -0.4182 -2.2607
  100MOL    H1112089   5.712   3.550   7.548 -2.3115  0.3881 -2.6726
  100MOL    H1212090   5.601   3.720   0.081 -0.8377 -1.2784  2.3966
  100MOL    H1312091   5.558   3.561   0.067  0.7700  0.1454  1.8594
  100MOL    C1412092   5.761   3.593   0.127 -0.3600 -0.0368  0.2293
  100MOL    C1512093   5.722   3.604   0.273  0.8179  0.0794 -0.2957
  100MOL    H1612094   5.791   3.492   0.098 -1.1367  0.5727 -2.9022
  100MOL    H1712095   5.837   3.669   0.106 -0.5651 -0.4526 -2.1799
  100MOL    H1812096   5.673   3.697   0.302  0.5222  0.0079 -0.5725
  100MOL    H1912097   5.647   3.531   0.303  0.6805  0.7947  1.1282
  100MOL    C2012098   5.853   3.585   0.353  0.0527 -0.0341  0.3453
  100MOL    C2112099   5.820   3.598   0.505 -0.7581  0.4204  0.5006
  100MOL    H2212100   5.901   3.487   0.345 -0.1069 -0.1816  1.1922
  100MOL    H2312101   5.923   3.661   0.318 -0.2309 -0.0114 -0.1714
  100MOL    H2412102   5.781   3.697   0.526  0.1883  1.1648 -1.1422
  100MOL    H2512103   5.743   3.529   0.539  1.0839 -1.1439  1.5828
  100MOL    C2612104   5.951   3.575   0.588 -0.4224 -0.6036 -0.3278
  100MOL    C2712105   5.912   3.543   0.734  0.1591  0.5352  0.5547
  100MOL    H2812106   6.014   3.494   0.552  2.5500  0.6287  1.8709
  100MOL    H2912107   6.012   3.665   0.601 -2.0118  0.0118  3.4473
  100MOL    H3012108   5.849   3.617   0.784 -0.6697  0.6328 -0.6116
  100MOL    H3112109   5.857   3.450   0.724 -0.2158  0.7273  0.8076
  100MOL    C3212110   6.037   3.528   0.816  0.1381 -1.1389  0.2531
  100MOL    C3312111   6.013   3.511   0.972  0.3397 -0.0251  0.1534
  100MOL    H3412112   6.101   3.456   0.767  0.8600 -0.0787 -0.3953
  100MOL    H3512113   6.093   3.621   0.805 -3.0692  0.7427 -1.3484
  100MOL    H3612114   6.110   3.512   1.024  1.6352 -0.5676 -2.1918
  100MOL    H3712115   5.962   3.602   1.003 -1.1509 -1.3624  1.7593
  100MOL    C3812116   5.928   3.390   1.006 -0.8360  0.2043 -0.7034
  100MOL    C3912117   5.917   3.381   1.158 -0.0800  0.3526  0.6228
  100MOL    H4012118   5.836   3.409   0.951  0.6239  1.3433 -2.8502
  100MOL    H4112119   5.976   3.298   0.973  0.9399  0.3236  1.4414
  100MOL    H4212120   6.003   3.333   1.205 -0.8162  0.9030  2.5987
  100MOL    H4312121   5.913   3.482   1.199 -1.5887  0.6939 -0.3072
  100MOL    C4412122   5.784   3.311   1.199 -0.0334  0.5155  0.1117
  100MOL    C4512123   5.756   3.303   1.347  0.2676  0.0447 -0.1181
  100MOL    H4612124   5.706   3.367   1.147  0.4920  1.1806  0.0296
  100MOL    H4712125   5.792   3.210   1.157  0.6328  0.2259  0.9233
  100MOL    H4812126   5.772   3.401   1.391  0.5507 -0.0665  0.0377
  100MOL    H4912127   5.656   3.267   1.370  0.4220  0.0360  0.5772
  100MOL    C5012128   5.851   3.209   1.421 -1.0184  0.0930 -0.1497
  100MOL    C5112129   5.796   3.128   1.547  0.3731 -0.5468 -0.3940
  100MOL    H5212130   5.886   3.136   1.348 -2.0996  0.7751 -1.3682
  100MOL    H5312131   5.951   3.248   1.441  0.2359 -2.2242 -1.6329
  100MOL    H5412132   5.743   3.206   1.602  0.4048  0.0377 -1.1845
  100MOL    H5512133   5.726   3.049   1.523  1.0924 -1.2798 -0.1123
  100MOL    C5612134   5.904   3.074   1.634  0.2657 -0.1799  0.3029
  100MOL    C5712135   5.997   2.970   1.557  0.1180  0.2196  0.6849
  100MOL    H5812136   5.958   3.159   1.677  1.5657 -0.3093 -1.0029
  100MOL    H5912137   5.854   3.026   1.718  1.9537 -0.1010  1.3960
  100MOL    H6012138   5.997   2.987   1.449 -0.7113  0.5790  0.7382
  100MOL    H6112139   6.095   2.992   1.599  0.8216  2.8119 -2.0914
  100MOL    C6212140   5.945   2.820   1.560  0.5743  0.0401 -0.5825
  100MOL    C6312141   6.005   2.727   1.451 -0.5196  0.3580  0.4792
  100MOL    H6412142   5.970   2.773   1.655  3.4789  1.9373 -0.3496
  100MOL    H6512143   5.836   2.822   1.554  0.5923  3.3390 -0.6939
  100MOL    H6612144   6.109   2.760   1.440 -0.7546  0.9347 -0.0409
  100MOL    H6712145   6.017   2.627   1.494  0.0289 -0.0331 -0.5702
  100MOL    C6812146   5.928   2.746   1.314  0.2593 -0.1123 -0.6119
  100MOL    C6912147   6.006   2.668   1.213 -0.1731  0.9911  0.3865
  100MOL    H7012148   5.822   2.723   1.316  0.6357 -2.0888 -1.9844
  100MOL    H7112149   5.923   2.849   1.280 -0.3889  0.9671  2.5757
  100MOL    H7212150   6.111   2.691   1.230  0.9162 -2.2693 -1.4403
  100MOL    H7312151   6.004   2.563   1.242 -0.1605  1.4465  2.0916
  100MOL    C7412152   5.958   2.681   1.068  0.7485  0.0914 -0.5621
  100MOL    C7512153   6.031   2.585   0.977  0.0311  0.5400  0.3942
  100MOL    H7612154   5.852   2.658   1.073  0.8785 -0.1470  1.5339
  100MOL    H7712155   5.965   2.786   1.039 -0.5293  0.2784 -0.2317
  100MOL    H7812156   6.137   2.609   0.971 -0.0377  0.3943 -1.7142
  100MOL    H7912157   6.040   2.492   1.034 -0.0820  0.2265 -0.0889
  100MOL    C8012158   5.957   2.559   0.845 -0.2597 -0.7216  0.4077
  100MOL    C8112159   5.950   2.677   0.753 -0.7928 -0.2289  0.3215
  100MOL    H8212160   5.995   2.465   0.804 -0.3144 -1.1396  1.3162
  100MOL    H8312161   5.855   2.541   0.877 -0.7598  0.9085 -0.2281
  100MOL    H8412162   5.901   2.763   0.800 -1.7639 -0.3060 -0.5357
  100MOL    H8512163   6.053   2.710   0.746 -0.8669  0.9579  3.6180
  100MOL    C8612164   5.887   2.664   0.619 -0.3476 -0.2626 -0.0790
  100MOL    C8712165   5.734   2.663   0.615  0.2386  0.1744 -0.2611
  100MOL    H8812166   5.925   2.743   0.554 -1.1455  0.6186  0.5131
  100MOL    H8912167   5.923   2.568   0.581  0.8435 -0.7899  2.2957
  100MOL    H9012168   5.693   2.596   0.690  1.5579 -0.5391 -0.1742
  100MOL    H9112169   5.695   2.763   0.635 -0.6280 -0.5066  1.5209
  100MOL    C9212170   5.672   2.617   0.479 -0.1677 -0.8221 -0.8201
  100MOL    C9312171   5.692   2.718   0.363  0.0540  0.3527  1.3874
  100MOL    H9412172   5.723   2.525   0.453 -0.7711 -1.4203  0.0628
  100MOL    H9512173   5.569   2.591   0.502  0.3132  0.5866  3.3935
  100MOL    H9612174   5.629   2.805   0.384  0.9469  1.1213  0.9066
  100MOL    H9712175   5.794   2.754   0.354  0.3373 -0.7347  0.1277
  100MOL    C9812176   5.654   2.651   0.229 -0.0766  0.8061  0.1672
  100MOL    C9912177   5.693   2.729   0.100 -0.3157 -0.2191  0.1984
  100MOL   H10012178   5.692   2.549   0.223 -1.0721  0.3089  2.0460
  100MOL   H10112179   5.546   2.644   0.235  0.0449 -0.1622  1.5405
  100MOL   H10212180   5.672   2.836   0.101 -1.8845 -0.5201  0.1059
  100MOL   H10312181   5.802   2.739   0.093 -0.3589  0.6119  0.6482
  100MOL   C10412182   5.637   2.664   7.664 -0.3934  0.8501  0.2853
  100MOL   C10512183   5.723   2.681   7.537  0.0082  0.4382  0.0118
  100MOL   H10612184   5.624   2.559   7.689 -2.8120  1.6460  2.6086
  100MOL   H10712185   5.532   2.691   7.658 -0.7391 -0.4418  0.5364
  100MOL   H10812186   5.761   2.783   7.529 -0.9339  0.7217 -1.0865
  100MOL   H10912187   5.810   2.616   7.531 -0.7565 -0.3803 -3.7499
  100MOL   C11012188   5.640   2.648   7.411  0.2733 -0.0507  0.1978
  100MOL   C11112189   5.729   2.650   7.283  0.2756  0.6660  0.3709
  100MOL   H11212190   5.586   2.554   7.410 -1.0596  0.7158 -0.7334
  100MOL   H11312191   5.572   2.732   7.400 -1.6631 -1.5883  0.3142
  100MOL   H11412192   5.688   2.726   7.216  1.0326 -0.7330 -1.7326
  100MOL   H11512193   5.831   2.686   7.296  0.9444 -0.7315 -0.8824
  100MOL   C11612194   5.730   2.514   7.201 -0.0068 -0.1616 -1.1069
  100MOL   C11712195   5.591   2.488   7.141 -0.0232  0.2699 -0.2976
  100MOL   H11812196   5.807   2.520   7.124  2.1493 -0.9000  0.9190
  100MOL   H11912197   5.759   2.424   7.255  0.7121  0.6763 -0.0684
  100MOL   H12012198   5.530   2.423   7.203  1.1841 -0.6379 -0.0390
  100MOL   H12112199   5.527   2.573   7.122 -1.6175 -0.9585 -0.5444
  100MOL   H12212200   5.605   2.436   7.046  0.7148 -1.2041  0.5986
  101MOL     C112201   1.506   6.487   3.606  0.1689  0.3877  0.5681
  101MOL     C212202   1.495   6.632   3.640  0.3088 -0.1713 -0.7437
  101MOL     H312203   1.411   6.441   3.578  1.5260 -2.6772  0.7417
  101MOL     H412204   1.525   6.439   3.703  2.2321  1.3808  0.6606
  101MOL     H512205   1.438   6.648   3.731  3.1786  0.1700  1.0798
  101MOL     H612206   1.592   6.662   3.681 -0.4327  1.4840 -0.1713
  101MOL     H712207   1.582   6.466   3.531 -1.9337 -0.9119 -1.2767
  101MOL     C812208   1.436   6.718   3.528  0.3924 -0.8194 -0.3867
  101MOL     C912209   1.303   6.673   3.468 -0.0968 -0.3153  0.1489
  101MOL    H1012210   1.429   6.813   3.581  1.6411 -1.0871  0.2875
  101MOL    H1112211   1.509   6.735   3.449  0.5525  0.9290  0.1129
  101MOL    H1212212   1.326   6.569   3.443 -1.4209 -1.2283  2.5638
  101MOL    H1312213   1.220   6.670   3.539  0.1257 -0.6556  0.3956
  101MOL    C1412214   1.252   6.752   3.350 -0.0155  0.1836  0.6501
  101MOL    C1512215   1.117   6.706   3.282  0.3523  0.4734 -0.2966
  101MOL    H1612216   1.238   6.858   3.369  0.5226  0.4123 -0.1912
  101MOL    H1712217   1.330   6.752   3.274  0.9499 -1.3474  1.6150
  101MOL    H1812218   1.046   6.668   3.355 -0.1002 -0.3790 -1.1665
  101MOL    H1912219   1.075   6.792   3.229  1.3083  1.8872  1.2061
  101MOL    C2012220   1.141   6.597   3.176  0.1147 -0.0671 -0.1106
  101MOL    C2112221   1.005   6.542   3.120  0.5764 -0.4832  0.3569
  101MOL    H2212222   1.202   6.650   3.103 -2.0900  0.4391 -1.6440
  101MOL    H2312223   1.200   6.513   3.213  0.3402  0.5115  0.8563
  101MOL    H2412224   0.950   6.506   3.206 -0.4197  0.4313  0.1192
  101MOL    H2512225   0.944   6.624   3.082  0.7184 -0.3897  0.3301
  101MOL    C2612226   1.037   6.436   3.013  0.1873  0.2357 -0.1443
  101MOL    C2712227   0.908   6.377   2.948  0.5716  0.3591  0.0253
  101MOL    H2812228   1.107   6.478   2.942 -1.2893  1.7139 -0.7468
  101MOL    H2912229   1.094   6.348   3.046 -1.5839 -0.3994  1.3528
  101MOL    H3012230   0.838   6.334   3.019  1.5254 -0.2280  0.6308
  101MOL    H3112231   0.853   6.457   2.898  2.7383  2.3297  0.6765
  101MOL    C3212232   0.944   6.273   2.837 -0.4412  0.1292 -0.2075
  101MOL    C3312233   0.826   6.217   2.758  0.2977 -0.0821 -0.7406
  101MOL    H3412234   1.019   6.312   2.768 -0.4159 -1.5501 -1.1546
  101MOL    H3512235   0.999   6.191   2.883 -2.2984 -1.7120 -1.1487
  101MOL    H3612236   0.759   6.180   2.836  0.8707 -0.6905 -0.5389
  101MOL    H3712237   0.767   6.296   2.710 -0.6308  0.8142  1.7834
  101MOL    C3812238   0.870   6.113   2.656  0.8214  0.0745  0.3385
  101MOL    C3912239   0.743   6.035   2.611  0.1069 -0.3930  0.1903
  101MOL    H4012240   0.904   6.164   2.565 -0.8071  0.2176 -0.2088
  101MOL    H4112241   0.947   6.042   2.686  0.5983 -0.4741 -0.3648
  101MOL    H4212242   0.693   5.990   2.697 -0.2339  2.3828  1.4925
  101MOL    H4312243   0.674   6.104   2.563 -0.9720  0.1482  2.4697
  101MOL    C4412244   0.754   5.917   2.506  0.0764  0.0678  0.4445
  101MOL    C4512245   0.618   5.850   2.489  0.2761 -0.2341 -0.3008
  101MOL    H4612246   0.791   5.958   2.411 -0.8483  0.1385  0.1128
  101MOL    H4712247   0.838   5.857   2.542  0.2217  1.2648  2.1565
  101MOL    H4812248   0.591   5.804   2.584 -0.2049  0.0856 -0.2806
  101MOL    H4912249   0.540   5.924   2.468  0.5192  0.5154  1.3204
  101MOL    C5012250   0.613   5.746   2.376  0.3004  0.2096 -0.2089
  101MOL    C5112251   0.481   5.659   2.376  0.1451 -0.2940 -0.0213
  101MOL    H5212252   0.633   5.795   2.280 -0.2242  1.4826  0.3309
  101MOL    H5312253   0.701   5.682   2.384  1.3558  1.7675  1.1438
  101MOL    H5412254   0.470   5.597   2.465 -0.5593  0.6612  0.5661
  101MOL    H5512255   0.399   5.729   2.366  1.8441  1.3695 -2.9114
  101MOL    C5612256   0.491   5.557   2.259 -0.5483  0.0325 -0.3084
  101MOL    C5712257   0.375   5.455   2.267  0.6693  0.8557  0.2678
  101MOL    H5812258   0.497   5.607   2.162  0.6104  1.3055  0.4240
  101MOL    H5912259   0.590   5.512   2.265 -0.5523  0.1889  1.0532
  101MOL    H6012260   0.393   5.386   2.349 -0.2996  1.1238  0.7016
  101MOL    H6112261   0.282   5.511   2.270 -0.0851 -0.3774  0.0106
  101MOL    C6212262   0.375   5.368   2.140 -0.6197 -1.3011  0.4740
  101MOL    C6312263   0.252   5.278   2.130  0.4206 -0.1856  0.0114
  101MOL    H6412264   0.377   5.428   2.050 -2.2667  0.1774  1.4002
  101MOL    H6512265   0.463   5.306   2.125 -0.6527 -1.2591  0.1048
  101MOL    H6612266   0.241   5.218   2.220 -1.1261  0.6032  0.3740
  101MOL    H6712267   0.165   5.344   2.137  0.3763 -0.1156 -1.1684
  101MOL    C6812268   0.238   5.192   1.998 -0.2994 -0.2362  0.0821
  101MOL    C6912269   0.117   5.104   1.988 -0.5987  0.2733  0.3008
  101MOL    H7012270   0.248   5.258   1.911 -0.8003  1.0333  0.9661
  101MOL    H7112271   0.326   5.129   2.007 -1.7224 -2.2913 -0.2049
  101MOL    H7212272   0.115   5.032   2.069 -2.8996 -0.1082 -0.0553
  101MOL    H7312273   0.029   5.166   2.007 -1.3178 -0.0014 -2.0048
  101MOL    C7412274   0.096   5.017   1.859  0.5286 -0.6233 -0.4899
  101MOL    C7512275   7.657   4.938   1.863  0.2779  0.9210  0.1073
  101MOL    H7612276   0.093   5.078   1.769 -0.0922 -2.0679 -1.4715
  101MOL    H7712277   0.184   4.955   1.839 -0.6638 -3.1720  1.7059
  101MOL    H7812278   7.657   4.878   1.954  0.5105  1.0534  0.1966
  101MOL    H7912279   7.573   5.007   1.864  1.1169  1.9591  0.7456
  101MOL    C8012280   7.642   4.848   1.737  0.7941  0.3571  0.0233
  101MOL    C8112281   7.516   4.770   1.737  0.4816 -0.2279 -0.4596
  101MOL    H8212282   7.660   4.911   1.650 -0.9287  0.4591 -0.2881
  101MOL    H8312283   0.031   4.775   1.743  1.3524  0.8651 -1.2678
  101MOL    H8412284   7.507   4.721   1.834 -1.9022  0.1793 -0.4521
  101MOL    H8512285   7.422   4.825   1.731  0.0189 -0.7808  1.2681
  101MOL    C8612286   7.515   4.684   1.613  0.4502  0.3595 -0.5541
  101MOL    C8712287   7.394   4.598   1.608 -0.0591  0.6067  0.3621
  101MOL    H8812288   7.506   4.752   1.528  0.3729 -0.7028 -1.4085
  101MOL    H8912289   7.601   4.619   1.594 -0.1093 -0.3916 -0.5537
  101MOL    H9012290   7.378   4.546   1.703 -1.2897 -1.2864 -0.8748
  101MOL    H9112291   7.306   4.661   1.600 -1.4790 -1.4598 -0.6002
  101MOL    C9212292   7.387   4.497   1.489  0.0363  0.0760  0.2230
  101MOL    C9312293   7.241   4.437   1.468 -0.3246 -0.5676 -0.0233
  101MOL    H9412294   7.409   4.549   1.396 -2.5597  0.5854 -0.1412
  101MOL    H9512295   7.473   4.431   1.498 -0.2373 -0.1127  1.6589
  101MOL    H9612296   7.223   4.366   1.549 -1.3072 -2.2270 -1.6609
  101MOL    H9712297   7.178   4.526   1.469  0.1338 -0.2428  0.0141
  101MOL    C9812298   7.219   4.358   1.337  0.5807  0.7675 -0.4971
  101MOL    C9912299   7.104   4.247   1.353  0.1673  0.2907 -0.2564
  101MOL   H10012300   7.174   4.430   1.268 -0.2317  1.7606  1.0444
  101MOL   H10112301   7.311   4.321   1.291 -0.3106 -2.0182 -0.1267
  101MOL   H10212302   7.151   4.171   1.416 -0.1161  0.2229 -0.1258
  101MOL   H10312303   7.025   4.295   1.411  1.0635  0.1603  1.1177
  101MOL   C10412304   7.049   4.192   1.228  0.4049  0.3611 -0.6819
  101MOL   C10512305   7.153   4.107   1.140  0.0138  0.3171  0.2135
  101MOL   H10612306   6.971   4.131   1.272  0.0050  1.8363  0.7101
  101MOL   H10712307   6.992   4.266   1.171  0.1235  0.1169 -0.7165
  101MOL   H10812308   7.108   4.110   1.040  0.4196  0.6089  0.0407
  101MOL   H10912309   7.249   4.157   1.129  0.3745 -0.4356 -0.1312
  101MOL   C11012310   7.179   3.959   1.191  0.2839  0.8690  0.1114
  101MOL   C11112311   7.282   3.880   1.107  0.0344 -0.2643 -0.5121
  101MOL   H11212312   7.225   3.966   1.290  0.8154  0.2559 -0.0918
  101MOL   H11312313   7.083   3.908   1.195  1.0993 -0.5785  1.9722
  101MOL   H11412314   7.376   3.932   1.090 -0.7257  0.6802 -1.9201
  101MOL   H11512315   7.304   3.788   1.162 -0.2635 -0.9662 -1.5358
  101MOL   C11612316   7.214   3.821   0.979  0.1864 -0.5414  0.5291
  101MOL   C11712317   7.319   3.748   0.891  0.1919  0.0472  0.3186
  101MOL   H11812318   7.128   3.760   1.006  0.9650 -1.3072  1.3248
  101MOL   H11912319   7.180   3.900   0.912 -0.9529 -0.9810  0.5843
  101MOL   H12012320   7.384   3.683   0.949  0.0828 -0.4914 -0.1528
  101MOL   H12112321   7.274   3.686   0.813  0.9408  0.3888 -0.3990
  101MOL   H12212322   7.393   3.806   0.835  0.8949 -1.1003  0.0460
  102MOL     C112323   2.712   1.181   4.371  0.0435  0.1817 -0.4085
  102MOL     C212324   2.572   1.188   4.445 -0.1971 -0.4404  0.2754
  102MOL     H312325   2.795   1.210   4.435  0.0931  1.6952 -1.1537
  102MOL     H412326   2.705   1.243   4.282 -1.1327 -0.0828 -0.5189
  102MOL     H512327   2.580   1.114   4.525  0.5394 -0.3815  0.2530
  102MOL     H612328   2.558   1.284   4.494 -0.9811 -0.4706  0.1176
  102MOL     H712329   2.728   1.079   4.336 -0.0903  0.0654 -0.1357
  102MOL     C812330   2.458   1.149   4.348 -0.0931  0.7948  0.0506
  102MOL     C912331   2.329   1.175   4.415 -0.9903 -0.3082 -0.4372
  102MOL    H1012332   2.462   1.200   4.252  2.1380  1.6894  0.5810
  102MOL    H1112333   2.464   1.044   4.320 -0.7264  1.1193 -1.3616
  102MOL    H1212334   2.332   1.144   4.519  0.6089 -1.2741 -0.7545
  102MOL    H1312335   2.320   1.284   4.409 -1.6734 -0.4611 -2.4100
  102MOL    C1412336   2.197   1.142   4.340  0.8835  0.0305 -0.2314
  102MOL    C1512337   2.071   1.199   4.418 -0.3340  0.7504  0.6820
  102MOL    H1612338   2.201   1.188   4.241  2.5640 -0.0513 -0.2127
  102MOL    H1712339   2.183   1.036   4.317 -0.3657  0.3302 -0.8879
  102MOL    H1812340   2.024   1.120   4.475 -0.0457 -0.0451 -0.1781
  102MOL    H1912341   2.114   1.282   4.474 -0.3886  0.0174  1.8235
  102MOL    C2012342   1.964   1.265   4.335 -0.1593 -0.2823 -0.3853
  102MOL    C2112343   1.850   1.322   4.420 -0.0860  0.8069  0.7413
  102MOL    H2212344   1.996   1.348   4.272 -1.2230  1.4461  1.2825
  102MOL    H2312345   1.927   1.191   4.264  1.7525 -2.7114  1.1016
  102MOL    H2412346   1.797   1.249   4.480  0.6964 -0.4068 -0.0325
  102MOL    H2512347   1.884   1.402   4.487  1.3131  0.7408  0.1321
  102MOL    C2612348   1.743   1.393   4.337  0.9174  0.0065 -0.3818
  102MOL    C2712349   1.661   1.313   4.235  0.3037 -0.1443  0.1624
  102MOL    H2812350   1.672   1.447   4.401  1.9618 -0.9245  1.6050
  102MOL    H2912351   1.808   1.468   4.292  0.7366  1.1071  1.1283
  102MOL    H3012352   1.721   1.275   4.152 -0.9178 -2.2654  0.2187
  102MOL    H3112353   1.604   1.227   4.271 -0.3080  0.8483  1.5763
  102MOL    C3212354   1.560   1.415   4.188  0.2764 -0.0542 -0.2787
  102MOL    C3312355   1.481   1.364   4.066  0.0914 -0.3952 -0.6274
  102MOL    H3412356   1.494   1.432   4.273 -0.4852  1.1313 -1.0902
  102MOL    H3512357   1.610   1.507   4.158  0.8507 -1.1546 -2.8607
  102MOL    H3612358   1.548   1.337   3.984  1.3229 -3.1483  1.1914
  102MOL    H3712359   1.432   1.270   4.091  0.1169 -0.4396 -0.7421
  102MOL    C3812360   1.363   1.458   4.027  0.0521 -0.2088 -0.0393
  102MOL    C3912361   1.281   1.407   3.905 -0.5004  0.2422  0.7129
  102MOL    H4012362   1.286   1.470   4.103  0.6170 -1.0592  0.6742
  102MOL    H4112363   1.397   1.559   4.003 -1.6701  0.0222 -1.5920
  102MOL    H4212364   1.353   1.370   3.831  0.8316 -1.0454  2.6194
  102MOL    H4312365   1.217   1.323   3.931 -0.6591  0.3609  0.7036
  102MOL    C4412366   1.181   1.516   3.853  0.6635  0.3174 -0.2655
  102MOL    C4512367   1.117   1.481   3.715 -0.0141 -0.1018 -0.0759
  102MOL    H4612368   1.103   1.538   3.926  0.0286  1.1724 -1.1776
  102MOL    H4712369   1.243   1.605   3.847 -0.3937  1.0942  0.0659
  102MOL    H4812370   1.191   1.443   3.645  1.2924  1.7710  0.2734
  102MOL    H4912371   1.046   1.399   3.724  1.8080 -1.9440 -1.8704
  102MOL    C5012372   1.047   1.611   3.655 -0.5111  0.1881 -0.4633
  102MOL    C5112373   0.985   1.586   3.516  0.3769  0.0224  0.1510
  102MOL    H5212374   0.970   1.646   3.723 -0.8037  0.1547 -0.7788
  102MOL    H5312375   1.117   1.695   3.654 -1.7172  1.2469 -3.6193
  102MOL    H5412376   1.065   1.575   3.443 -0.7534  0.1267 -1.1128
  102MOL    H5512377   0.915   1.502   3.509 -0.9541  1.1109  0.1761
  102MOL    C5612378   0.906   1.714   3.480 -0.2876 -0.1897  0.6322
  102MOL    C5712379   0.848   1.709   3.341 -0.7839  0.1968 -0.0584
  102MOL    H5812380   0.829   1.725   3.556 -3.0060 -2.2478 -1.7104
  102MOL    H5912381   0.963   1.805   3.500 -0.5204 -0.3704  2.1009
  102MOL    H6012382   0.924   1.742   3.269 -0.6114  2.9296  1.3355
  102MOL    H6112383   0.815   1.605   3.330 -1.9393  0.5384  0.2135
  102MOL    C6212384   0.733   1.812   3.325 -1.3191  0.1197  0.0523
  102MOL    C6312385   0.658   1.784   3.194 -0.2847 -0.4474 -0.1631
  102MOL    H6412386   0.675   1.803   3.416  0.4037 -0.0490  1.1564
  102MOL    H6512387   0.778   1.910   3.339  1.6209 -1.2226  0.5062
  102MOL    H6612388   0.732   1.804   3.115  0.8198  0.1684  1.0061
  102MOL    H6712389   0.629   1.680   3.186 -0.1640 -0.4215 -1.0679
  102MOL    C6812390   0.547   1.883   3.168  0.4784  0.1071 -0.4244
  102MOL    C6912391   0.508   1.881   3.022  0.5272 -0.2645  0.3086
  102MOL    H7012392   0.456   1.860   3.224  1.1389  1.2018  1.1405
  102MOL    H7112393   0.581   1.984   3.192 -0.6098 -0.0813  2.1004
  102MOL    H7212394   0.595   1.916   2.967  1.6102  1.6237  3.0887
  102MOL    H7312395   0.486   1.782   2.983 -3.1685 -0.2808  2.1755
  102MOL    C7412396   0.381   1.968   2.997  0.1846  0.2449  0.4753
  102MOL    C7512397   0.399   2.118   3.029 -0.2821 -1.1139  0.0689
  102MOL    H7612398   0.352   1.965   2.892 -0.7446 -0.8679  0.7571
  102MOL    H7712399   0.296   1.928   3.052 -0.2068  3.6270  2.4885
  102MOL    H7812400   0.407   2.140   3.135  0.1185 -0.8560 -0.0153
  102MOL    H7912401   0.486   2.161   2.978 -0.3464 -0.1544  0.7573
  102MOL    C8012402   0.277   2.197   2.988 -0.0829 -0.3758 -0.0634
  102MOL    C8112403   0.301   2.351   3.011 -0.1912  0.2974 -0.7803
  102MOL    H8212404   0.244   2.182   2.885  1.4356  0.2728 -0.6414
  102MOL    H8312405   0.187   2.167   3.043  1.0671  0.7155  2.4914
  102MOL    H8412406   0.212   2.412   2.994  1.3775  2.3967 -1.7357
  102MOL    H8512407   0.344   2.372   3.109 -1.7371 -1.4545  0.3002
  102MOL    C8612408   0.385   2.402   2.891 -0.7365  0.0012  0.2513
  102MOL    C8712409   0.423   2.551   2.909  0.3059  0.1095 -0.0714
  102MOL    H8812410   0.482   2.353   2.892 -0.8253 -0.1940  3.0633
  102MOL    H8912411   0.337   2.394   2.794 -2.8473  1.8264  1.1027
  102MOL    H9012412   0.330   2.608   2.912 -1.5244 -2.8332  0.9438
  102MOL    H9112413   0.465   2.566   3.009 -0.8460 -0.6688  0.5429
  102MOL    C9212414   0.527   2.611   2.812  0.0877  1.0379 -0.3921
  102MOL    C9312415   0.570   2.760   2.838  0.0435  0.2048  0.2194
  102MOL    H9412416   0.621   2.555   2.810  0.3610  1.4733  0.0350
  102MOL    H9512417   0.489   2.593   2.712  0.1394 -0.3856 -0.1595
  102MOL    H9612418   0.482   2.824   2.838 -0.6013 -0.6713 -0.6147
  102MOL    H9712419   0.608   2.764   2.940  1.0648  0.7352 -0.1784
  102MOL    C9812420   0.690   2.809   2.752 -0.5132  0.3391 -0.0103
  102MOL    C9912421   0.725   2.956   2.783  0.3570  0.8973 -0.3296
  102MOL   H10012422   0.780   2.750   2.768 -0.1305  1.1492  0.8500
  102MOL   H10112423   0.667   2.804   2.645 -1.7626  0.5210  0.2457
  102MOL   H10212424   0.660   3.034   2.742 -0.3279  0.5554  0.0981
  102MOL   H10312425   0.725   2.964   2.891 -0.6583  1.8164 -0.3828
  102MOL   C10412426   0.864   2.991   2.718 -0.8085 -0.0058 -0.4605
  102MOL   C10512427   0.914   3.133   2.739  0.5018 -0.2894 -0.6285
  102MOL   H10612428   0.943   2.921   2.744 -1.0747  0.4088  1.4815
  102MOL   H10712429   0.849   2.971   2.612 -0.5261  1.4572 -0.7867
  102MOL   H10812430   0.826   3.196   2.724 -2.6612 -4.1014  1.1132
  102MOL   H10912431   0.937   3.149   2.844  0.3953  0.4194 -0.7042
  102MOL   C11012432   1.040   3.173   2.659  0.2739  0.5215  0.0800
  102MOL   C11112433   1.091   3.310   2.692 -0.1482 -0.4720  0.2206
  102MOL   H11212434   1.115   3.098   2.685  0.3509  0.7350  0.4814
  102MOL   H11312435   0.999   3.169   2.559  0.6417  0.0503 -0.0549
  102MOL   H11412436   1.006   3.377   2.706  2.0475  2.3990  0.2815
  102MOL   H11512437   1.147   3.302   2.785 -1.7235 -0.1947  1.2090
  102MOL   C11612438   1.194   3.363   2.587 -0.8376  0.2489 -0.0620
  102MOL   C11712439   1.231   3.512   2.582  0.2223 -0.3024 -0.4856
  102MOL   H11812440   1.281   3.300   2.604  0.3013  1.3681 -1.5885
  102MOL   H11912441   1.174   3.328   2.485 -2.3238  1.0253 -0.0555
  102MOL   H12012442   1.316   3.516   2.514 -0.3586 -2.2302 -1.3629
  102MOL   H12112443   1.148   3.578   2.557 -0.0899  0.0131  1.3654
  102MOL   H12212444   1.270   3.534   2.681 -0.2334  0.2299 -0.4220
  103MOL     C112445   2.237   4.030   4.919  0.3206 -0.4375  0.0125
  103MOL     C212446   2.345   4.116   4.982  0.5326 -0.1817 -0.2941
  103MOL     H312447   2.197   4.081   4.832  0.0923 -0.8267 -0.1109
  103MOL     H412448   2.154   4.019   4.989 -0.0893 -0.5734 -0.4922
  103MOL     H512449   2.429   4.130   4.914  1.1416 -2.8995 -0.1575
  103MOL     H612450   2.304   4.217   4.992  0.0067 -0.4026 -0.2219
  103MOL     H712451   2.273   3.935   4.879  2.2899  0.1004  0.4228
  103MOL     C812452   2.372   4.069   5.127 -0.3946 -0.2439  0.1621
  103MOL     C912453   2.470   3.951   5.140  0.4257 -0.6402 -0.2818
  103MOL    H1012454   2.417   4.149   5.186  0.1178  0.7040 -1.4703
  103MOL    H1112455   2.283   4.046   5.185 -1.4585 -0.0236 -1.3420
  103MOL    H1212456   2.487   3.933   5.246  2.1964 -0.4429 -0.5168
  103MOL    H1312457   2.430   3.854   5.108  1.7674 -0.8959 -1.2122
  103MOL    C1412458   2.595   3.961   5.063 -0.6938 -0.2619 -0.3495
  103MOL    C1512459   2.698   3.862   5.109  0.6089  0.9667 -0.4231
  103MOL    H1612460   2.583   3.946   4.955  1.6932 -0.3793 -0.6280
  103MOL    H1712461   2.651   4.055   5.069 -0.2871 -0.3173 -2.5822
  103MOL    H1812462   2.740   3.908   5.199  0.2731 -1.4629  1.0106
  103MOL    H1912463   2.645   3.774   5.145 -1.7461  2.4701 -0.1469
  103MOL    C2012464   2.800   3.816   5.006 -0.1483 -0.5133 -0.0442
  103MOL    C2112465   2.894   3.725   5.074 -0.0572 -0.8516  0.8723
  103MOL    H2212466   2.757   3.772   4.916 -1.0441 -0.0792  0.1622
  103MOL    H2312467   2.847   3.903   4.960  0.7259  0.5540  2.7731
  103MOL    H2412468   2.880   3.710   5.181 -0.9110  3.5947  1.5114
  103MOL    H2512469   2.884   3.635   5.014  0.3993  0.3212 -1.0283
  103MOL    C2612470   3.035   3.778   5.073 -0.0559  0.3509  0.0195
  103MOL    C2712471   3.136   3.683   5.136 -0.2541  0.0721 -0.3343
  103MOL    H2812472   3.057   3.803   4.969  0.3683 -0.3563 -0.0622
  103MOL    H2912473   3.034   3.870   5.131  1.0027  1.2666 -1.3690
  103MOL    H3012474   3.104   3.682   5.241  1.8002 -0.5851  0.3095
  103MOL    H3112475   3.132   3.584   5.090  0.9819  0.2310 -0.8049
  103MOL    C3212476   3.282   3.737   5.135  0.0510  0.5467 -0.2652
  103MOL    C3312477   3.309   3.852   5.232 -1.3670  0.2564  0.2347
  103MOL    H3412478   3.352   3.654   5.143  1.7223  1.8549 -0.7627
  103MOL    H3512479   3.302   3.780   5.037  0.0251 -0.4706 -0.7236
  103MOL    H3612480   3.295   3.956   5.200  1.9990  0.4576 -0.7449
  103MOL    H3712481   3.239   3.848   5.315 -1.3480 -0.9373  0.2029
  103MOL    C3812482   3.441   3.820   5.306 -0.5862 -0.2520 -0.6888
  103MOL    C3912483   3.450   3.918   5.429 -1.1262 -0.7611 -0.7897
  103MOL    H4012484   3.434   3.718   5.345  3.5957  0.2333  1.5907
  103MOL    H4112485   3.527   3.837   5.242  0.0910  0.7326  0.4854
  103MOL    H4212486   3.454   4.019   5.388  1.1101 -0.7221 -0.5303
  103MOL    H4312487   3.365   3.909   5.497 -0.9269 -2.1303 -0.6931
  103MOL    C4412488   3.566   3.883   5.521 -0.2149 -0.6583  0.0431
  103MOL    C4512489   3.587   3.995   5.626  0.3793  0.3338  0.3773
  103MOL    H4612490   3.562   3.782   5.561 -0.1757 -1.0101 -0.8366
  103MOL    H4712491   3.655   3.875   5.458 -0.8565  2.1557 -1.3383
  103MOL    H4812492   3.665   4.067   5.599  1.1650 -0.6449  0.0147
  103MOL    H4912493   3.491   4.045   5.637  0.5717  1.0641 -1.0845
  103MOL    C5012494   3.635   3.937   5.762  0.2490 -0.5546  0.0585
  103MOL    C5112495   3.637   4.037   5.873 -0.0629 -0.4125 -0.0006
  103MOL    H5212496   3.587   3.842   5.783 -2.6917  0.8705 -0.0019
  103MOL    H5312497   3.741   3.916   5.750  0.8689  3.3967 -2.3688
  103MOL    H5412498   3.716   4.107   5.845  3.4733 -3.4791  1.7521
  103MOL    H5512499   3.543   4.091   5.871 -0.6296 -1.4100 -0.4346
  103MOL    C5612500   3.688   3.981   6.006  0.4357  0.7520  0.1904
  103MOL    C5712501   3.664   4.077   6.116 -0.0650  0.3279  0.3899
  103MOL    H5812502   3.633   3.888   6.017  1.2122  0.0266 -1.8454
  103MOL    H5912503   3.793   3.953   6.002 -0.2201 -1.8919  0.5548
  103MOL    H6012504   3.717   4.172   6.107  0.1630  0.5501  3.3573
  103MOL    H6112505   3.562   4.114   6.107  0.5011  1.2626 -2.9530
  103MOL    C6212506   3.693   4.014   6.259  0.1988  0.1163  0.0656
  103MOL    C6312507   3.669   4.117   6.364  0.3314  0.7481 -0.6823
  103MOL    H6412508   3.623   3.930   6.259 -2.8828  2.5795 -0.8708
  103MOL    H6512509   3.797   3.983   6.254  0.3232  0.4501  0.6359
  103MOL    H6612510   3.738   4.200   6.350 -0.1287  1.1644 -0.4801
  103MOL    H6712511   3.569   4.158   6.351 -0.6348 -1.2812  0.1879
  103MOL    C6812512   3.689   4.065   6.514 -0.1654 -0.2021 -0.3677
  103MOL    C6912513   3.639   4.171   6.618 -0.1028 -0.5624 -0.2799
  103MOL    H7012514   3.629   3.974   6.519 -1.9051  0.8924 -0.6262
  103MOL    H7112515   3.792   4.035   6.528 -0.6372 -0.7113  2.1829
  103MOL    H7212516   3.686   4.270   6.609 -0.7012 -0.3441 -1.0419
  103MOL    H7312517   3.534   4.186   6.593 -0.1074 -0.5700 -0.2652
  103MOL    C7412518   3.640   4.145   6.765  0.2266  0.7278  0.1525
  103MOL    C7512519   3.776   4.168   6.824  0.2370 -0.0812  0.0172
  103MOL    H7612520   3.564   4.209   6.810 -1.7382 -1.4968  0.1310
  103MOL    H7712521   3.603   4.043   6.780  2.4637  0.0308  1.0264
  103MOL    H7812522   3.846   4.113   6.761  0.2842 -0.1045  0.0909
  103MOL    H7912523   3.814   4.270   6.819  4.5532 -1.5439  0.8321
  103MOL    C8012524   3.787   4.134   6.971 -0.6467 -0.4302 -0.6078
  103MOL    C8112525   3.939   4.143   7.015 -0.0288 -0.9380 -0.4211
  103MOL    H8212526   3.725   4.199   7.034 -0.7074 -0.7826 -0.3013
  103MOL    H8312527   3.750   4.032   6.985 -1.0715  0.0775  2.4192
  103MOL    H8412528   4.007   4.107   6.939 -0.7024  1.2381 -2.1273
  103MOL    H8512529   3.956   4.251   7.019  1.8601 -1.1415 -2.2142
  103MOL    C8612530   3.963   4.087   7.161 -0.3232 -0.0718  0.7303
  103MOL    C8712531   4.103   4.122   7.210  0.0498 -0.3621 -0.2538
  103MOL    H8812532   3.883   4.135   7.218 -1.1732 -0.2349 -0.2995
  103MOL    H8912533   3.948   3.979   7.167  1.9608 -0.4248  0.4198
  103MOL    H9012534   4.134   4.224   7.188  0.6797 -0.3302  0.7564
  103MOL    H9112535   4.094   4.119   7.319 -0.5720  0.7161 -0.2669
  103MOL    C9212536   4.209   4.019   7.166 -0.5443  0.1953  0.3634
  103MOL    C9312537   4.336   4.061   7.240 -0.2993 -0.2493 -0.0139
  103MOL    H9412538   4.173   3.917   7.179  2.6255 -0.9607  0.5774
  103MOL    H9512539   4.218   4.022   7.058 -2.2437  1.8808  0.2388
  103MOL    H9612540   4.344   4.170   7.235  3.1242 -0.2756  2.9910
  103MOL    H9712541   4.300   4.047   7.342  0.6753  2.3358  0.7271
  103MOL    C9812542   4.476   4.002   7.195 -0.2350 -0.1557  0.2602
  103MOL    C9912543   4.470   3.849   7.206  0.3319  0.3650 -0.0724
  103MOL   H10012544   4.498   4.027   7.091 -1.8947 -3.0073 -0.8478
  103MOL   H10112545   4.544   4.051   7.265 -2.0936 -0.8824  2.6353
  103MOL   H10212546   4.574   3.825   7.224 -0.1174 -1.1244  0.6127
  103MOL   H10312547   4.416   3.814   7.294 -1.1332 -0.2190 -1.1749
  103MOL   C10412548   4.414   3.774   7.092 -0.0296  0.8106  0.0554
  103MOL   C10512549   4.466   3.631   7.087 -0.0467 -0.4372  0.2490
  103MOL   H10612550   4.306   3.756   7.094  0.1323 -0.6016 -2.7426
  103MOL   H10712551   4.426   3.838   7.005  0.5620  1.2949  0.4900
  103MOL   H10812552   4.574   3.638   7.102 -0.1849  1.0268  0.5675
  103MOL   H10912553   4.445   3.578   7.180  0.4248 -0.7414  0.1836
  103MOL   C11012554   4.434   3.545   6.958 -0.3437 -0.2570 -0.6567
  103MOL   C11112555   4.495   3.611   6.834 -0.1502 -0.0618  0.6683
  103MOL   H11212556   4.470   3.442   6.952 -1.3702 -0.5833 -1.3588
  103MOL   H11312557   4.327   3.528   6.945 -0.4540 -1.5198  1.7595
  103MOL   H11412558   4.443   3.705   6.813  0.1216 -0.3241 -1.2470
  103MOL   H11512559   4.599   3.641   6.846  0.4842 -1.7248 -0.4942
  103MOL   C11612560   4.477   3.541   6.697  0.1123  0.0522  0.1979
  103MOL   C11712561   4.335   3.532   6.647 -0.4116 -0.2091  0.2323
  103MOL   H11812562   4.538   3.585   6.618 -1.0058  1.7386  0.2608
  103MOL   H11912563   4.506   3.438   6.718  0.2199  0.4490  2.0478
  103MOL   H12012564   4.324   3.490   6.547 -1.8177 -0.7575  0.6017
  103MOL   H12112565   4.268   3.493   6.724  1.5748 -3.3921  0.4693
  103MOL   H12212566   4.301   3.635   6.642  2.5211  0.7601 -0.5615
  104MOL     C112567   4.568   7.398   0.863  0.8538 -0.2995  0.0044
  104MOL     C212568   4.616   7.270   0.911 -0.0911  0.1114  0.2965
  104MOL     H312569   4.462   7.418   0.879  0.8670  0.7296 -1.1608
  104MOL     H412570   4.597   7.408   0.758 -0.6715  2.0755 -0.2307
  104MOL     H512571   4.725   7.277   0.904 -0.1871  1.8431  0.3217
  104MOL     H612572   4.586   7.252   1.014  1.4031 -1.7508  0.4401
  104MOL     H712573   4.619   7.475   0.921  1.6642 -2.7998  2.7309
  104MOL     C812574   4.559   7.149   0.828 -0.1818 -0.2655 -0.1750
  104MOL     C912575   4.635   7.019   0.866 -0.0687  0.0030 -1.1554
  104MOL    H1012576   4.455   7.125   0.847  0.0578 -2.1294 -1.0889
  104MOL    H1112577   4.574   7.183   0.725  5.5783 -1.3036  0.1292
  104MOL    H1212578   4.736   7.005   0.828  0.7678  1.3075  0.5087
  104MOL    H1312579   4.663   7.018   0.972  2.0823 -2.2947 -1.7052
  104MOL    C1412580   4.560   6.891   0.843  0.4298  0.7081 -0.1411
  104MOL    C1512581   4.626   6.777   0.914  0.2922  0.5590 -0.6295
  104MOL    H1612582   4.463   6.903   0.892  1.9074  1.2801  2.7644
  104MOL    H1712583   4.556   6.869   0.737  1.3861 -0.7375  0.1031
  104MOL    H1812584   4.638   6.807   1.017  0.4119  1.4592 -0.9028
  104MOL    H1912585   4.557   6.693   0.917 -1.5205  1.9993 -0.9104
  104MOL    C2012586   4.758   6.720   0.858 -0.7339  0.2154 -0.1690
  104MOL    C2112587   4.811   6.605   0.943  1.1263  0.3501  0.8069
  104MOL    H2212588   4.748   6.685   0.755  2.0997  1.2486 -0.8366
  104MOL    H2312589   4.833   6.798   0.843 -1.5390  1.2240  0.9453
  104MOL    H2412590   4.858   6.646   1.033  0.8159  1.2570  0.5542
  104MOL    H2512591   4.737   6.527   0.961 -0.4171  1.4503 -0.5942
  104MOL    C2612592   4.930   6.533   0.874 -0.0719  0.0578 -0.8592
  104MOL    C2712593   5.014   6.447   0.956 -0.0593  0.5748 -0.1691
  104MOL    H2812594   4.881   6.465   0.804  1.1281 -0.6366 -1.0508
  104MOL    H2912595   4.991   6.597   0.811  0.3321  0.5849  0.0663
  104MOL    H3012596   5.065   6.504   1.034  3.0213  0.0657 -1.7136
  104MOL    H3112597   4.960   6.364   1.003 -0.2297  1.6765  1.6192
  104MOL    C3212598   5.129   6.397   0.872 -0.1029  0.4011  0.5638
  104MOL    C3312599   5.230   6.319   0.954 -0.3305 -0.0516  0.0058
  104MOL    H3412600   5.077   6.337   0.798 -0.2361  0.4293  0.6337
  104MOL    H3512601   5.172   6.484   0.822 -1.8003  1.6199  1.1564
  104MOL    H3612602   5.272   6.386   1.029  2.1290 -2.9215  1.3015
  104MOL    H3712603   5.178   6.233   0.998  1.2228  0.5661  3.1965
  104MOL    C3812604   5.350   6.276   0.866  0.3585  0.1581  0.0460
  104MOL    C3912605   5.451   6.198   0.959 -0.7622 -0.3989 -0.1943
  104MOL    H4012606   5.310   6.208   0.791 -0.4348  0.5546  0.1092
  104MOL    H4112607   5.401   6.360   0.820  0.1467  0.6705  0.7325
  104MOL    H4212608   5.503   6.275   1.016 -0.8016  0.0335 -0.7361
  104MOL    H4312609   5.382   6.133   1.013 -1.8410 -0.3978 -1.5294
  104MOL    C4412610   5.548   6.109   0.899  0.2058 -0.3243 -0.7342
  104MOL    C4512611   5.641   6.036   0.989  0.2903  0.7896  0.1554
  104MOL    H4612612   5.496   6.040   0.833 -0.8303 -1.2502  0.9981
  104MOL    H4712613   5.619   6.171   0.845 -0.3295 -0.4082 -1.5360
  104MOL    H4812614   5.730   6.005   0.935 -0.7767 -0.6085 -0.8399
  104MOL    H4912615   5.663   6.092   1.080 -0.3766 -0.7309  1.2767
  104MOL    C5012616   5.576   5.909   1.041 -0.3162  0.7603 -0.1868
  104MOL    C5112617   5.664   5.822   1.136  0.1001  0.7308  0.0438
  104MOL    H5212618   5.480   5.932   1.088 -1.4387 -2.3923 -0.8084
  104MOL    H5312619   5.550   5.846   0.956 -0.1105 -0.3655  0.5637
  104MOL    H5412620   5.768   5.805   1.108  0.8556 -0.7914  3.5277
  104MOL    H5512621   5.692   5.865   1.232  3.2314  1.7276 -1.2556
  104MOL    C5612622   5.582   5.702   1.179  0.0231  0.9224 -0.0171
  104MOL    C5712623   5.639   5.623   1.295 -0.5008 -0.4707  0.5873
  104MOL    H5812624   5.480   5.738   1.197 -0.8111 -0.9309 -0.9042
  104MOL    H5912625   5.581   5.626   1.101  3.3746  0.3697  0.4115
  104MOL    H6012626   5.738   5.585   1.271 -1.0009 -0.1953 -2.0263
  104MOL    H6112627   5.646   5.697   1.375 -1.1734  0.7740 -0.4848
  104MOL    C6212628   5.561   5.505   1.348 -0.6948  1.0937 -0.2374
  104MOL    C6312629   5.542   5.392   1.241 -0.1990  0.2818  0.1253
  104MOL    H6412630   5.605   5.457   1.436 -1.7465 -1.1605 -0.8830
  104MOL    H6512631   5.465   5.547   1.375 -2.7002 -2.3874 -1.5562
  104MOL    H6612632   5.506   5.425   1.144  0.6019  0.5421 -0.0911
  104MOL    H6712633   5.638   5.345   1.217 -0.2089 -0.6014  1.7014
  104MOL    C6812634   5.446   5.283   1.297  0.7288  0.7504  0.6695
  104MOL    C6912635   5.448   5.155   1.216 -0.2704  0.1395 -0.5659
  104MOL    H7012636   5.472   5.272   1.403  2.4501 -1.4717  0.0515
  104MOL    H7112637   5.345   5.323   1.294  0.5571  0.4145  1.7175
  104MOL    H7212638   5.418   5.176   1.113 -2.5981 -0.4544 -0.0377
  104MOL    H7312639   5.553   5.129   1.213 -0.1217  0.6117  0.3848
  104MOL    C7412640   5.368   5.032   1.266  0.0708 -0.1064 -0.2153
  104MOL    C7512641   5.370   5.009   1.422 -0.2652 -0.5060  0.3434
  104MOL    H7612642   5.262   5.048   1.245 -0.0718 -1.5849 -0.6623
  104MOL    H7712643   5.412   4.944   1.220  0.1905 -0.9902  1.5696
  104MOL    H7812644   5.465   4.973   1.462 -1.0582 -0.3099  2.4462
  104MOL    H7912645   5.365   5.097   1.485  1.4096 -0.5586  0.5785
  104MOL    C8012646   5.258   4.911   1.469 -0.9208 -0.1716 -0.2702
  104MOL    C8112647   5.129   4.984   1.486  0.0991 -0.2565  0.6437
  104MOL    H8212648   5.240   4.830   1.399  2.2190 -1.3041  0.1477
  104MOL    H8312649   5.286   4.865   1.564 -1.2839 -0.1693 -0.1616
  104MOL    H8412650   5.145   5.050   1.572  0.3785 -0.1232  0.4899
  104MOL    H8512651   5.107   5.051   1.403  0.1362 -1.3463 -0.2495
  104MOL    C8612652   5.008   4.895   1.508 -0.0362 -0.4564 -0.4925
  104MOL    C8712653   4.879   4.980   1.527 -0.1510 -0.0539  0.1052
  104MOL    H8812654   4.993   4.828   1.424 -0.8481 -1.5992  0.5424
  104MOL    H8912655   5.026   4.828   1.592  0.4966 -1.0583 -1.0851
  104MOL    H9012656   4.884   5.039   1.618  0.0259  0.3659 -0.1777
  104MOL    H9112657   4.864   5.050   1.445 -0.9973 -1.2763 -0.8104
  104MOL    C9212658   4.754   4.897   1.548  0.1126  0.0649  0.4483
  104MOL    C9312659   4.627   4.988   1.558 -0.4511 -0.0494 -0.7148
  104MOL    H9412660   4.741   4.812   1.480 -0.9135 -1.0588  2.0030
  104MOL    H9512661   4.755   4.845   1.644 -2.5831 -0.1105  0.4177
  104MOL    H9612662   4.639   5.068   1.631 -0.2694 -0.6217 -0.1115
  104MOL    H9712663   4.611   5.047   1.468 -0.2067 -0.4501 -1.0203
  104MOL    C9812664   4.505   4.899   1.594  0.0046  0.3195 -0.6016
  104MOL    C9912665   4.387   4.994   1.601  0.5431 -0.0878 -0.2019
  104MOL   H10012666   4.485   4.825   1.517 -0.7543  1.9888 -2.0518
  104MOL   H10112667   4.513   4.855   1.693  1.0536  0.1022 -0.7723
  104MOL   H10212668   4.402   5.067   1.680  0.7835  1.3018 -1.5227
  104MOL   H10312669   4.374   5.043   1.505  1.2159  0.7556  0.1351
  104MOL   C10412670   4.256   4.919   1.640  0.3680 -0.5945  0.0651
  104MOL   C10512671   4.129   4.997   1.650  0.0920 -0.3662 -0.4489
  104MOL   H10612672   4.254   4.834   1.572 -1.3805 -0.5201  0.0012
  104MOL   H10712673   4.281   4.873   1.736  2.3680  1.3590  0.5151
  104MOL   H10812674   4.148   5.085   1.712  2.2537 -0.5367 -0.8349
  104MOL   H10912675   4.107   5.056   1.562 -2.5655  1.8891  1.6336
  104MOL   C11012676   4.001   4.925   1.694 -0.3433  0.7332  0.2927
  104MOL   C11112677   3.873   5.012   1.690  0.1438 -0.4292  0.2396
  104MOL   H11212678   3.989   4.830   1.642  1.4784  0.5958  0.0902
  104MOL   H11312679   4.024   4.901   1.798 -0.2249 -1.0881 -0.1411
  104MOL   H11412680   3.884   5.099   1.755  0.8006  0.7126 -1.3546
  104MOL   H11512681   3.855   5.051   1.589 -1.2470  1.3303  1.1397
  104MOL   C11612682   3.740   4.928   1.726  0.8250  0.8234  0.0295
  104MOL   C11712683   3.734   4.879   1.879  0.3184 -0.5650 -0.7556
  104MOL   H11812684   3.652   4.984   1.695 -1.4420 -1.6161  1.7204
  104MOL   H11912685   3.745   4.838   1.664 -2.4957  1.5108 -1.3366
  104MOL   H12012686   3.797   4.793   1.902 -0.0086  0.2581  3.5111
  104MOL   H12112687   3.751   4.962   1.947 -3.2831  0.2243 -0.7155
  104MOL   H12212688   3.637   4.838   1.907  1.3162 -2.4595  0.0428
  105MOL     C112689   1.960   1.873   3.605 -0.8395  0.5003 -0.0801
  105MOL     C212690   2.011   1.739   3.537  0.3631  0.3058 -0.4604
  105MOL     H312691   1.852   1.883   3.594 -0.6334  0.9539 -1.8803
  105MOL     H412692   1.997   1.966   3.561 -4.0094  1.7228 -0.2909
  105MOL     H512693   2.119   1.741   3.548  0.3363  0.3534 -0.1912
  105MOL     H612694   1.977   1.655   3.598 -0.8854  0.3680 -1.0536
  105MOL     H712695   1.984   1.876   3.711  0.4299  2.1690 -0.3992
  105MOL     C812696   1.949   1.719   3.400  0.4082  0.3066  0.5582
  105MOL     C912697   1.983   1.585   3.321 -0.2708  0.1164  0.3277
  105MOL    H1012698   1.841   1.735   3.407  0.9076  3.3733  2.0486
  105MOL    H1112699   1.970   1.802   3.333  2.1528 -0.2036  0.4588
  105MOL    H1212700   2.085   1.589   3.283 -0.4988 -0.0858 -0.3135
  105MOL    H1312701   1.980   1.496   3.383 -2.4946 -0.7683 -0.9939
  105MOL    C1412702   1.878   1.558   3.207 -0.7339  0.5311  0.4397
  105MOL    C1512703   1.902   1.635   3.076 -0.3486 -0.1004  0.1398
  105MOL    H1612704   1.877   1.451   3.188  2.8430 -0.0908  3.1622
  105MOL    H1712705   1.780   1.580   3.247 -0.5788  0.7767  0.6898
  105MOL    H1812706   1.812   1.622   3.016 -0.7249 -2.2853  1.1273
  105MOL    H1912707   1.904   1.740   3.105  0.2855  0.1164 -0.6758
  105MOL    C2012708   2.033   1.591   3.000 -0.4396 -0.1191 -0.6212
  105MOL    C2112709   2.058   1.693   2.896  0.1010  0.2879  0.1910
  105MOL    H2212710   2.116   1.558   3.063 -0.3430 -1.2700 -1.3413
  105MOL    H2312711   2.007   1.501   2.945 -0.7536  0.1467 -0.9077
  105MOL    H2412712   1.961   1.703   2.848 -1.1837 -1.2445  2.3932
  105MOL    H2512713   2.084   1.788   2.942 -0.7919  0.5791  0.1087
  105MOL    C2612714   2.168   1.660   2.796  0.6906 -0.0636  0.1559
  105MOL    C2712715   2.152   1.739   2.668 -0.0605  0.2684  0.3958
  105MOL    H2812716   2.258   1.693   2.849  1.0958 -0.0101 -0.5543
  105MOL    H2912717   2.181   1.556   2.766  1.0476 -0.0971  0.4139
  105MOL    H3012718   2.060   1.704   2.620  1.1629  0.1497 -1.9030
  105MOL    H3112719   2.141   1.847   2.678 -1.8918  0.2291 -0.8440
  105MOL    C3212720   2.267   1.706   2.569  0.5866  0.1157  0.3032
  105MOL    C3312721   2.249   1.766   2.429  0.4297  0.0702 -0.9545
  105MOL    H3412722   2.364   1.731   2.612 -0.0056  2.6591  0.2897
  105MOL    H3512723   2.267   1.598   2.555 -0.9485  0.1145  0.1996
  105MOL    H3612724   2.153   1.727   2.394  0.7402 -2.1852  0.5999
  105MOL    H3712725   2.229   1.871   2.448  1.5795  0.3532 -1.2821
  105MOL    C3812726   2.346   1.708   2.330 -0.2595  0.6717  0.9403
  105MOL    C3912727   2.488   1.758   2.354 -0.2601  0.7692  0.0246
  105MOL    H4012728   2.343   1.599   2.328  0.5756  0.6386  0.9365
  105MOL    H4112729   2.306   1.744   2.236 -1.1652  0.1747  1.1332
  105MOL    H4212730   2.494   1.864   2.377 -1.9766  0.8175  0.2901
  105MOL    H4312731   2.530   1.698   2.435 -1.6285 -0.9449 -0.5001
  105MOL    C4412732   2.579   1.743   2.230  0.5050  0.2968  0.0177
  105MOL    C4512733   2.727   1.760   2.256 -0.2757  0.0811 -0.3646
  105MOL    H4612734   2.571   1.644   2.185 -0.8238  1.0300 -1.3983
  105MOL    H4712735   2.544   1.813   2.154  2.8388 -0.6245 -1.9865
  105MOL    H4812736   2.742   1.859   2.299 -1.5172 -0.3375  1.0632
  105MOL    H4912737   2.753   1.680   2.324 -0.0944  1.2476  0.9579
  105MOL    C5012738   2.803   1.739   2.128 -0.4033  0.0234  0.7276
  105MOL    C5112739   2.952   1.762   2.145 -0.0868 -0.7761  0.3431
  105MOL    H5212740   2.784   1.640   2.087  2.0818 -1.1243  2.1812
  105MOL    H5312741   2.761   1.815   2.063 -0.6771 -0.5469  0.2382
  105MOL    H5412742   2.965   1.862   2.187 -0.1261 -1.0024  0.8882
  105MOL    H5512743   2.976   1.698   2.230 -1.8919 -0.2167  1.3086
  105MOL    C5612744   3.049   1.750   2.032 -0.0973 -0.2231  0.0841
  105MOL    C5712745   3.195   1.770   2.081 -0.2614  0.1992  0.1295
  105MOL    H5812746   3.045   1.656   1.977 -0.0837  0.8101 -1.7289
  105MOL    H5912747   3.038   1.825   1.953  0.6752 -0.6381 -0.4197
  105MOL    H6012748   3.191   1.867   2.130 -1.0124  1.0774 -1.6398
  105MOL    H6112749   3.206   1.691   2.155  0.7574  0.0820 -0.1372
  105MOL    C6212750   3.301   1.764   1.971  0.0577 -0.4437 -0.4329
  105MOL    C6312751   3.445   1.781   2.024 -1.2277 -0.0640  0.7470
  105MOL    H6412752   3.290   1.665   1.926  0.1850 -0.9842  0.6852
  105MOL    H6512753   3.283   1.833   1.889 -0.4036 -0.5526 -0.4294
  105MOL    H6612754   3.456   1.859   2.100  1.7288  0.6281 -0.3287
  105MOL    H6712755   3.470   1.687   2.074 -0.7675  0.0463  0.7300
  105MOL    C6812756   3.555   1.802   1.911  0.1937 -0.8643 -0.4384
  105MOL    C6912757   3.692   1.837   1.946 -0.4057 -0.7334 -0.6175
  105MOL    H7012758   3.571   1.709   1.856  1.2509 -1.0573  0.1893
  105MOL    H7112759   3.515   1.871   1.837 -1.6231 -0.5528  0.7839
  105MOL    H7212760   3.681   1.937   1.987  1.1022 -1.1777  0.9551
  105MOL    H7312761   3.729   1.771   2.025 -0.8041 -1.7399 -1.2543
  105MOL    C7412762   3.794   1.831   1.837 -0.1161  0.0292  0.1517
  105MOL    C7512763   3.929   1.883   1.885 -0.0927 -0.0516 -0.1601
  105MOL    H7612764   3.808   1.729   1.801 -0.0257 -0.0369  0.3742
  105MOL    H7712765   3.767   1.883   1.745 -1.1671 -1.2823 -0.3059
  105MOL    H7812766   3.933   1.991   1.894  0.2719 -0.0236 -0.6334
  105MOL    H7912767   3.965   1.843   1.981 -0.3553  0.5142  0.1748
  105MOL    C8012768   4.039   1.864   1.779 -0.0965  0.1151  0.8258
  105MOL    C8112769   4.179   1.907   1.829  0.0920 -0.4120  0.8872
  105MOL    H8212770   4.048   1.758   1.754 -2.0857 -0.0377  0.6340
  105MOL    H8312771   4.004   1.908   1.686  0.4116 -0.0617  0.5491
  105MOL    H8412772   4.184   2.012   1.858  0.1363  0.0800 -0.8390
  105MOL    H8512773   4.203   1.840   1.912  0.1769  0.2356  1.3874
  105MOL    C8612774   4.275   1.895   1.702 -0.6068  0.8555 -0.3433
  105MOL    C8712775   4.420   1.932   1.741  0.8343 -0.4523  0.2536
  105MOL    H8812776   4.288   1.790   1.674  1.6479  1.2307 -0.7631
  105MOL    H8912777   4.244   1.958   1.619  1.9718  1.3193 -0.9946
  105MOL    H9012778   4.437   2.029   1.787 -1.5319 -0.6830  1.6998
  105MOL    H9112779   4.448   1.860   1.818 -2.1614 -2.7282 -0.6622
  105MOL    C9212780   4.523   1.902   1.625 -0.1730 -0.5517 -0.3207
  105MOL    C9312781   4.660   1.948   1.668  0.2534  0.0653 -0.5631
  105MOL    H9412782   4.533   1.796   1.605  0.6748 -0.6241  0.4137
  105MOL    H9512783   4.502   1.949   1.529  0.4932  1.2861  0.4023
  105MOL    H9612784   4.649   2.049   1.708 -1.1702 -0.7732  1.2075
  105MOL    H9712785   4.685   1.901   1.763 -0.5998  1.4291  0.3555
  105MOL    C9812786   4.769   1.928   1.568 -0.3550 -0.2477 -0.0100
  105MOL    C9912787   4.904   1.958   1.634 -0.0029  0.0839  0.0912
  105MOL   H10012788   4.754   1.825   1.536  1.9096 -0.1319 -1.4804
  105MOL   H10112789   4.771   1.987   1.476  1.1899 -0.4292 -0.0936
  105MOL   H10212790   4.901   2.057   1.679 -1.5478 -1.2221  3.0373
  105MOL   H10312791   4.930   1.889   1.714 -1.4987 -0.0798  0.4566
  105MOL   C10412792   5.017   1.935   1.530  0.2034  0.6053  0.4366
  105MOL   C10512793   5.158   1.966   1.588 -0.2180 -0.1768  0.1289
  105MOL   H10612794   5.021   1.838   1.480  3.2753  0.8858  0.0207
  105MOL   H10712795   5.002   2.007   1.450 -1.2971  1.5790  1.5665
  105MOL   H10812796   5.157   2.057   1.649  0.0477  0.9070 -1.4536
  105MOL   H10912797   5.191   1.889   1.658  0.9445  1.3906  1.3513
  105MOL   C11012798   5.266   1.973   1.479 -0.1911  0.4484 -0.6517
  105MOL   C11112799   5.381   2.056   1.525  0.8317  0.1876 -0.7003
  105MOL   H11212800   5.301   1.874   1.451  4.2797  1.3844  1.2660
  105MOL   H11312801   5.232   2.021   1.387  1.7910  0.4731 -1.3952
  105MOL   H11412802   5.360   2.163   1.521  2.4759  0.6198  1.6198
  105MOL   H11512803   5.394   2.038   1.631 -1.3348  0.3412 -0.3775
  105MOL   C11612804   5.514   2.053   1.444  0.2136  0.6801 -0.2584
  105MOL   C11712805   5.595   1.929   1.474  0.4585 -0.3246  0.8581
  105MOL   H11812806   5.493   2.053   1.337 -0.4601 -1.4569 -0.1603
  105MOL   H11912807   5.569   2.146   1.459 -0.4501  0.8003  1.5058
  105MOL   H12012808   5.525   1.849   1.446 -0.6773  0.9904 -0.1826
  105MOL   H12112809   5.689   1.919   1.421  0.9530  2.0632  1.2531
  105MOL   H12212810   5.614   1.914   1.580  0.1481 -0.2250  0.9308
  106MOL     C112811   0.326   3.875   2.561 -0.1940 -0.3090 -0.6211
  106MOL     C212812   0.396   3.990   2.484  0.8161 -0.0161  0.7064
  106MOL     H312813   0.398   3.810   2.611  2.6437  2.4537 -0.9189
  106MOL     H412814   0.265   3.819   2.490 -2.2702  0.0753  0.7924
  106MOL     H512815   0.447   3.965   2.391 -0.2490  1.1770 -0.2177
  106MOL     H612816   0.313   4.053   2.451 -0.6330 -2.3663 -0.3299
  106MOL     H712817   0.257   3.904   2.641  0.4384 -0.8898  0.1435
  106MOL     C812818   0.490   4.074   2.575 -0.3636  0.6511 -0.7352
  106MOL     C912819   0.436   4.131   2.708 -0.0185 -0.5849 -0.4241
  106MOL    H1012820   0.584   4.021   2.593 -0.0827  1.8099  1.3245
  106MOL    H1112821   0.511   4.159   2.511  1.4514  0.7665 -0.0281
  106MOL    H1212822   0.333   4.166   2.693 -0.2850 -1.5754 -0.9461
  106MOL    H1312823   0.435   4.058   2.789 -0.4154  0.2808  0.3647
  106MOL    C1412824   0.522   4.252   2.759  0.5692 -0.0258  0.3944
  106MOL    C1512825   0.484   4.288   2.898 -0.2654  0.2292 -0.0209
  106MOL    H1612826   0.628   4.229   2.758  0.7784  0.8762  1.1530
  106MOL    H1712827   0.514   4.339   2.694  0.1305 -1.3065 -1.2929
  106MOL    H1812828   0.378   4.311   2.902  0.2242  2.8320 -1.4204
  106MOL    H1912829   0.490   4.208   2.972 -0.4055  2.1057  2.0665
  106MOL    C2012830   0.550   4.411   2.960 -0.5902  0.3442  0.1845
  106MOL    C2112831   0.486   4.458   3.089  0.0035  0.0407  0.4134
  106MOL    H2212832   0.656   4.389   2.961 -0.1808  2.0511 -1.7508
  106MOL    H2312833   0.534   4.490   2.886 -0.4587 -1.1689 -1.4762
  106MOL    H2412834   0.383   4.488   3.073  0.1462 -0.5673 -1.8390
  106MOL    H2512835   0.487   4.376   3.161  1.3798 -0.9269 -0.6865
  106MOL    C2612836   0.561   4.573   3.154 -0.3635 -0.3689  0.4138
  106MOL    C2712837   0.497   4.609   3.281 -0.4006 -0.8110 -0.2576
  106MOL    H2812838   0.668   4.560   3.165 -0.2285  0.8955  0.6129
  106MOL    H2912839   0.557   4.662   3.092  1.1713  0.3660  1.3621
  106MOL    H3012840   0.389   4.616   3.270 -0.3421  0.3266 -0.2232
  106MOL    H3112841   0.504   4.529   3.355  1.5330 -0.7367 -0.3477
  106MOL    C3212842   0.561   4.731   3.344  0.0900 -0.2885  0.0821
  106MOL    C3312843   0.506   4.766   3.486 -0.3798 -0.4122  0.0767
  106MOL    H3412844   0.669   4.722   3.351 -0.0173 -0.9119  1.0121
  106MOL    H3512845   0.549   4.826   3.291 -1.7713 -0.0974  0.7966
  106MOL    H3612846   0.403   4.796   3.471 -0.8300 -0.0987  3.3011
  106MOL    H3712847   0.494   4.679   3.551  0.4567 -0.5082  0.1161
  106MOL    C3812848   0.581   4.877   3.557 -0.9083  0.8081  0.4208
  106MOL    C3912849   0.509   4.934   3.686 -0.3595  0.1074  0.2073
  106MOL    H4012850   0.676   4.836   3.589 -1.3636 -0.6734 -0.1039
  106MOL    H4112851   0.618   4.963   3.502  1.9989 -0.1376  0.8305
  106MOL    H4212852   0.412   4.976   3.657 -0.0147  0.9342  0.2445
  106MOL    H4312853   0.489   4.841   3.740 -0.1936  0.5721  1.0737
  106MOL    C4412854   0.597   5.038   3.760 -0.0162 -0.4568 -0.3262
  106MOL    C4512855   0.538   5.094   3.893 -0.2556  0.5322 -0.1634
  106MOL    H4612856   0.701   5.007   3.767  0.3535  0.5862 -1.0836
  106MOL    H4712857   0.606   5.119   3.687 -0.8733  0.7592  0.8935
  106MOL    H4812858   0.442   5.143   3.876  0.6694  2.3527 -0.3099
  106MOL    H4912859   0.517   5.021   3.971  0.6344  0.9352  0.4649
  106MOL    C5012860   0.627   5.198   3.953  0.3459  0.5385 -0.1764
  106MOL    C5112861   0.560   5.276   4.065 -0.1815  0.3057 -0.4164
  106MOL    H5212862   0.725   5.161   3.983 -1.2917 -0.4066  4.3882
  106MOL    H5312863   0.642   5.282   3.886  3.4464  0.2814  0.1145
  106MOL    H5412864   0.467   5.321   4.029 -0.3542  1.6369  1.6058
  106MOL    H5512865   0.533   5.210   4.147 -2.8737  1.1601 -0.5541
  106MOL    C5612866   0.662   5.379   4.118  0.6300  0.6367  0.2657
  106MOL    C5712867   0.590   5.471   4.220  0.5408 -0.5089  0.1755
  106MOL    H5812868   0.750   5.328   4.156  0.0553  0.3700  1.2575
  106MOL    H5912869   0.703   5.439   4.037  1.7275 -2.0317 -1.2011
  106MOL    H6012870   0.495   5.497   4.175  0.8981  0.1209 -0.2159
  106MOL    H6112871   0.549   5.414   4.303 -0.8969  0.7075  0.3190
  106MOL    C6212872   0.676   5.592   4.266  0.4610 -0.0293  0.2215
  106MOL    C6312873   0.590   5.698   4.342 -0.2840 -0.4995  0.2225
  106MOL    H6412874   0.760   5.553   4.323 -0.2769 -0.4716  1.0206
  106MOL    H6512875   0.713   5.640   4.176 -1.9140  0.4232 -0.5571
  106MOL    H6612876   0.530   5.752   4.269 -0.1475  0.9844  1.1792
  106MOL    H6712877   0.528   5.638   4.408 -2.9089  0.2534 -1.4793
  106MOL    C6812878   0.684   5.782   4.434 -0.0111 -0.3249 -0.1752
  106MOL    C6912879   0.756   5.701   4.549 -0.3459  0.0115 -0.5005
  106MOL    H7012880   0.757   5.829   4.367  1.0894 -1.3555  0.2817
  106MOL    H7112881   0.626   5.859   4.485  0.8649 -0.3616  0.8958
  106MOL    H7212882   0.678   5.657   4.610 -0.2592 -0.6965 -0.9063
  106MOL    H7312883   0.818   5.618   4.516 -0.9757 -0.9519  0.7325
  106MOL    C7412884   0.837   5.799   4.641 -0.0921  0.1413  1.1436
  106MOL    C7512885   0.898   5.719   4.755  0.3431  0.1602  0.5346
  106MOL    H7612886   0.914   5.838   4.574  0.1052 -4.0089 -1.2542
  106MOL    H7712887   0.769   5.878   4.670 -0.0614  1.2512 -1.6891
  106MOL    H7812888   0.812   5.712   4.821  0.5581 -1.5297  0.6532
  106MOL    H7912889   0.922   5.615   4.731 -0.9548  0.1281 -0.6939
  106MOL    C8012890   1.016   5.791   4.823  0.7261  0.1177 -0.0733
  106MOL    C8112891   1.067   5.704   4.939  0.0228  0.0118  0.8489
  106MOL    H8212892   1.094   5.802   4.748  0.6874  0.3864 -0.0767
  106MOL    H8312893   0.981   5.884   4.868 -1.5341  0.2007 -1.8668
  106MOL    H8412894   1.007   5.683   5.028  2.0400 -1.8365  1.8000
  106MOL    H8512895   1.082   5.605   4.895  0.3433  1.2195 -1.8466
  106MOL    C8612896   1.214   5.732   4.986  0.5970 -0.1351 -0.1627
  106MOL    C8712897   1.267   5.621   5.084  0.1099 -1.0237 -0.4745
  106MOL    H8812898   1.272   5.739   4.894  0.7366 -0.7705 -0.1251
  106MOL    H8912899   1.225   5.831   5.028  1.0280  0.5461 -1.8490
  106MOL    H9012900   1.197   5.612   5.167  1.2732  1.5830  0.8368
  106MOL    H9112901   1.269   5.522   5.039  1.5300 -0.6614 -1.2484
  106MOL    C9212902   1.403   5.654   5.150  0.2561  0.3571 -0.7650
  106MOL    C9312903   1.438   5.572   5.273 -0.5113  0.3250  0.1833
  106MOL    H9412904   1.487   5.636   5.083  0.7253 -0.8121  0.1414
  106MOL    H9512905   1.399   5.761   5.170 -0.1171 -0.2358  2.5708
  106MOL    H9612906   1.365   5.577   5.354  1.9042  0.8292  2.3874
  106MOL    H9712907   1.449   5.466   5.248 -2.1953  0.2348 -0.2627
  106MOL    C9812908   1.572   5.624   5.331  0.4056 -0.6150  0.2703
  106MOL    C9912909   1.628   5.548   5.451 -0.7396 -0.7688  0.0635
  106MOL   H10012910   1.637   5.644   5.246 -2.0604  2.2574 -1.0298
  106MOL   H10112911   1.572   5.729   5.360  1.9513  0.0394 -1.9431
  106MOL   H10212912   1.569   5.552   5.542 -1.5768 -0.9089 -0.4666
  106MOL   H10312913   1.639   5.443   5.422  3.3293 -0.5098  0.3883
  106MOL   C10412914   1.773   5.578   5.486  0.5084  0.6038 -0.3708
  106MOL   C10512915   1.833   5.476   5.587  0.0920  0.0349  0.2964
  106MOL   H10612916   1.822   5.569   5.389  0.0346  2.7324 -0.8323
  106MOL   H10712917   1.787   5.677   5.528  0.6467  0.1979  0.5499
  106MOL   H10812918   1.853   5.521   5.684  2.6051 -1.4099  0.4711
  106MOL   H10912919   1.763   5.393   5.599 -0.1127 -0.0169 -1.1856
  106MOL   C11012920   1.967   5.428   5.546  0.2842 -0.6625 -0.0787
  106MOL   C11112921   2.073   5.538   5.540 -0.9884  0.8850  0.1485
  106MOL   H11212922   1.990   5.346   5.614 -0.7118 -0.5611  0.3809
  106MOL   H11312923   1.951   5.382   5.449 -1.6756  1.5271 -0.8335
  106MOL   H11412924   2.046   5.610   5.462  1.5127  2.0435  0.3268
  106MOL   H11512925   2.078   5.589   5.636  0.7603  2.6219 -0.8235
  106MOL   C11612926   2.205   5.482   5.504 -0.2146  0.3508  0.1293
  106MOL   C11712927   2.317   5.590   5.523 -0.1025 -0.2056 -0.7190
  106MOL   H11812928   2.211   5.393   5.567 -0.0292 -0.7160 -1.3467
  106MOL   H11912929   2.204   5.454   5.399 -1.9487  1.2193 -0.0995
  106MOL   H12012930   2.326   5.633   5.623  0.6546 -0.2128 -0.7801
  106MOL   H12112931   2.405   5.525   5.521 -1.0637 -1.5425  0.2794
  106MOL   H12212932   2.304   5.671   5.452 -1.8278  0.9382  0.8749
  107MOL     C112933   2.569   3.825   6.477  0.4045 -0.1945  0.2877
  107MOL     C212934   2.706   3.883   6.499  0.2848  0.1201 -0.2232
  107MOL     H312935   2.499   3.906   6.458 -2.3344 -2.1041  1.9274
  107MOL     H412936   2.538   3.761   6.560  0.8847 -1.6280 -0.6275
  107MOL     H512937   2.773   3.798   6.511 -0.8842 -0.7565  0.1718
  107MOL     H612938   2.748   3.944   6.420  0.0621  0.1250 -0.3381
  107MOL     H712939   2.558   3.775   6.381 -1.7135 -0.3876  0.6042
  107MOL     C812940   2.718   3.961   6.624 -0.1728  0.0540 -0.2281
  107MOL     C912941   2.654   4.096   6.632 -0.3343  0.2920 -0.0223
  107MOL    H1012942   2.696   3.893   6.706  1.4860 -0.3642 -0.1061
  107MOL    H1112943   2.825   3.977   6.640  0.2366 -1.0920 -1.6763
  107MOL    H1212944   2.707   4.165   6.567  1.3414 -0.8520  0.1033
  107MOL    H1312945   2.549   4.090   6.605  0.0363 -3.0494 -0.8763
  107MOL    C1412946   2.648   4.160   6.771  0.2519  0.7149  0.1974
  107MOL    C1512947   2.606   4.309   6.772 -0.2934  0.4009 -0.0029
  107MOL    H1612948   2.585   4.098   6.836 -0.9687  0.2769 -1.3692
  107MOL    H1712949   2.749   4.175   6.809  0.1156  0.9329  0.4769
  107MOL    H1812950   2.691   4.364   6.732  0.1187 -0.6745 -0.6628
  107MOL    H1912951   2.528   4.318   6.696 -0.4805 -0.8987  0.0154
  107MOL    C2012952   2.579   4.382   6.907 -0.1898  0.4429  0.3173
  107MOL    C2112953   2.686   4.380   7.016  0.1876  0.2647 -0.4837
  107MOL    H2212954   2.540   4.481   6.886 -3.2879 -0.6456  0.7229
  107MOL    H2312955   2.491   4.327   6.938 -1.5245  1.9751 -0.6920
  107MOL    H2412956   2.698   4.278   7.055  0.6244  0.1585 -0.8814
  107MOL    H2512957   2.783   4.405   6.972  1.0157 -0.1246  1.0415
  107MOL    C2612958   2.636   4.475   7.119  0.2685 -0.1851 -0.1527
  107MOL    C2712959   2.720   4.464   7.241  0.7761 -0.1786  0.5164
  107MOL    H2812960   2.619   4.580   7.095 -1.1684 -0.5964 -0.9810
  107MOL    H2912961   2.537   4.445   7.152  0.3822 -1.4028 -0.8891
  107MOL    H3012962   2.702   4.367   7.288 -5.1175  0.6167  0.2860
  107MOL    H3112963   2.823   4.473   7.206 -0.2362  2.2127 -2.0979
  107MOL    C3212964   2.698   4.576   7.345  0.2712 -0.6671  0.4220
  107MOL    C3312965   2.817   4.608   7.437 -0.0413  0.2347  0.0002
  107MOL    H3412966   2.666   4.670   7.298  0.0674 -0.9296  0.0332
  107MOL    H3512967   2.611   4.554   7.408 -1.8969  1.1615 -1.7957
  107MOL    H3612968   2.858   4.526   7.496 -0.3110  0.3590  0.3675
  107MOL    H3712969   2.907   4.642   7.385  0.2763 -1.4691 -0.5827
  107MOL    C3812970   2.786   4.711   7.545  0.5327  0.0230  0.5418
  107MOL    C3912971   2.914   4.775   7.607 -0.0927  0.2703 -0.1154
  107MOL    H4012972   2.722   4.791   7.508  0.3014 -0.7699 -0.8082
  107MOL    H4112973   2.727   4.658   7.620  1.2991 -0.2877  0.9268
  107MOL    H4212974   2.970   4.695   7.657  0.0807  0.9457  0.8003
  107MOL    H4312975   2.967   4.840   7.538  0.1321  0.7803  0.5266
  107MOL    C4412976   2.880   4.872   0.037  0.1627  0.6363  0.3795
  107MOL    C4512977   2.991   4.954   0.091  0.3204 -0.1098 -0.2693
  107MOL    H4612978   2.796   4.940   0.024  0.9585  2.0212  2.2509
  107MOL    H4712979   2.856   4.803   0.119 -1.4817  0.9363  0.1745
  107MOL    H4812980   3.061   4.872   0.102  0.1298 -0.3004 -0.4693
  107MOL    H4912981   3.039   5.022   0.020 -1.6487  1.9561  0.2896
  107MOL    C5012982   2.965   5.040   0.220  0.6465 -0.5101  0.0753
  107MOL    C5112983   2.874   5.158   0.189 -0.4461 -0.0983 -0.7136
  107MOL    H5212984   2.928   4.975   0.300  1.6617 -1.2136 -0.0156
  107MOL    H5312985   3.060   5.075   0.260  0.2710 -1.7186  2.1396
  107MOL    H5412986   2.918   5.198   0.098  0.6812 -1.4389 -0.7682
  107MOL    H5512987   2.772   5.121   0.175 -0.2074 -0.6175 -1.0512
  107MOL    C5612988   2.876   5.258   0.305 -0.5341 -0.9205 -0.2863
  107MOL    C5712989   2.798   5.390   0.267 -0.2168  0.6772 -0.1685
  107MOL    H5812990   2.832   5.214   0.394  0.1325  1.1633  1.1125
  107MOL    H5912991   2.964   5.296   0.355 -1.8436  0.3913  1.0700
  107MOL    H6012992   2.807   5.461   0.350  0.1643 -0.2026  0.5426
  107MOL    H6112993   2.851   5.433   0.182  0.3615  0.6306  0.1669
  107MOL    C6212994   2.650   5.364   0.234  0.0373  0.7263 -0.5320
  107MOL    C6312995   2.566   5.490   0.222  0.7301 -0.5307  0.2655
  107MOL    H6412996   2.638   5.306   0.143 -2.1495  3.4995 -2.1041
  107MOL    H6512997   2.618   5.300   0.316  0.5971  0.8996 -0.1715
  107MOL    H6612998   2.553   5.524   0.324  0.4294 -0.3805  0.1789
  107MOL    H6712999   2.622   5.565   0.166 -0.0196 -0.0174  0.1913
  107MOL    C6813000   2.429   5.472   0.153  0.3318 -0.0528  0.3184
  107MOL    C6913001   2.346   5.608   0.167 -0.0897  0.0744 -0.4006
  107MOL    H7013002   2.444   5.452   0.047 -2.8516  0.0282 -0.1901
  107MOL    H7113003   2.374   5.389   0.198 -2.4778  1.0187 -1.0337
  107MOL    H7213004   2.342   5.625   0.275  1.0957  2.0568 -0.6444
  107MOL    H7313005   2.411   5.679   0.116 -0.4550 -0.2645 -1.3474
  107MOL    C7413006   2.208   5.591   0.109 -0.8218  0.6211  0.1933
  107MOL    C7513007   2.120   5.723   0.114  0.9199  0.1681  0.2115
  107MOL    H7613008   2.222   5.563   0.005 -0.7427  0.6145  0.2049
  107MOL    H7713009   2.148   5.514   0.156  1.9566 -0.0450  2.8331
  107MOL    H7813010   2.125   5.781   0.206  0.5153 -1.1292  1.0678
  107MOL    H7913011   2.163   5.794   0.042  0.0329 -0.1907 -0.6806
  107MOL    C8013012   1.976   5.691   0.076 -0.8347  0.6581 -0.0769
  107MOL    C8113013   1.892   5.820   0.057 -1.2041 -0.2044  0.2215
  107MOL    H8213014   1.981   5.631   7.677 -1.7554  2.5795 -1.4167
  107MOL    H8313015   1.925   5.629   0.149  0.7152 -0.1753  0.3086
  107MOL    H8413016   1.786   5.793   0.055 -1.8228  2.2130 -1.7197
  107MOL    H8513017   1.919   5.895   0.132  2.4572 -1.3920  0.2063
  107MOL    C8613018   1.930   5.887   7.611 -0.0020 -0.0221  0.2584
  107MOL    C8713019   1.831   5.995   7.548  0.2552 -0.4043  0.6749
  107MOL    H8813020   2.025   5.941   7.614  0.0566 -0.1095 -0.0143
  107MOL    H8913021   1.931   5.810   7.534 -2.8575  0.8246 -0.6982
  107MOL    H9013022   1.798   6.071   7.618 -0.2247  1.8745 -1.9642
  107MOL    H9113023   1.888   6.050   7.474 -1.0897  1.3218  0.8958
  107MOL    C9213024   1.709   5.923   7.490  0.2976  0.3314 -0.6018
  107MOL    C9313025   1.608   6.016   7.428  0.6032  0.1024 -0.2812
  107MOL    H9413026   1.734   5.847   7.416  1.1359 -0.3219  0.3488
  107MOL    H9513027   1.655   5.872   7.570  1.9976 -0.7590 -0.1298
  107MOL    H9613028   1.558   6.083   7.498  0.3715  1.7666 -1.9851
  107MOL    H9713029   1.665   6.077   7.358  0.9640  1.5596  1.2484
  107MOL    C9813030   1.501   5.938   7.349  0.2200 -0.0106  0.6867
  107MOL    C9913031   1.400   5.864   7.432 -0.0803 -0.1716  0.2997
  107MOL   H10013032   1.457   6.025   7.299  0.0047  0.3222  1.4461
  107MOL   H10113033   1.556   5.883   7.273 -0.3477 -0.3521  0.5201
  107MOL   H10213034   1.447   5.811   7.515 -0.0008 -0.1716  0.2540
  107MOL   H10313035   1.328   5.932   7.477 -1.5770 -1.7459  0.3600
  107MOL   C10413036   1.308   5.773   7.344  0.1213  0.3019 -0.5706
  107MOL   C10513037   1.224   5.682   7.437 -0.6522 -0.1268 -0.4254
  107MOL   H10613038   1.244   5.835   7.281  1.6784  2.0306 -0.5013
  107MOL   H10713039   1.368   5.711   7.277 -0.5902 -1.2617  0.2245
  107MOL   H10813040   1.304   5.627   7.486 -0.7731  1.4334  1.6132
  107MOL   H10913041   1.177   5.754   7.504 -3.4363 -2.3187  0.0340
  107MOL   C11013042   1.109   5.611   7.363  0.2537  0.2424  0.5765
  107MOL   C11113043   1.040   5.492   7.442 -0.3425 -0.1606  0.2605
  107MOL   H11213044   1.029   5.680   7.334  0.8428  0.0128 -1.6194
  107MOL   H11313045   1.139   5.561   7.272 -1.5239 -1.1894  0.7652
  107MOL   H11413046   0.955   5.442   7.396 -0.3443  0.4709 -0.4306
  107MOL   H11513047   1.115   5.415   7.457 -0.8820 -0.0572  4.2720
  107MOL   C11613048   0.991   5.540   7.577  0.2190 -0.3580 -0.1615
  107MOL   C11713049   0.915   5.427   7.646 -0.5078  0.4218 -0.0194
  107MOL   H11813050   1.074   5.565   7.643 -1.7610  3.1135  1.1482
  107MOL   H11913051   0.929   5.628   7.564 -0.6660 -0.9534 -0.0462
  107MOL   H12013052   0.984   5.346   7.666  1.1133  1.7438 -0.1497
  107MOL   H12113053   0.871   5.465   0.046 -1.7177 -0.7280 -0.1072
  107MOL   H12213054   0.833   5.375   7.596 -1.3764  2.9044 -1.3003
  108MOL     C113055   2.527   3.136   1.044 -0.1469  0.2283  0.7811
  108MOL     C213056   2.510   3.032   0.927 -0.0858 -0.1448 -0.1898
  108MOL     H313057   2.450   3.212   1.053  0.1735  0.6539  0.0058
  108MOL     H413058   2.618   3.196   1.040 -1.3804  2.0363 -0.3178
  108MOL     H513059   2.603   2.976   0.914  0.1380  0.4996 -1.4951
  108MOL     H613060   2.443   2.955   0.964  0.4492  0.6819  2.5617
  108MOL     H713061   2.541   3.077   1.135 -0.4717 -1.3931 -0.1927
  108MOL     C813062   2.471   3.092   0.800  0.1257  0.2659 -0.3529
  108MOL     C913063   2.418   2.988   0.704 -0.1334  0.6692 -0.5009
  108MOL    H1013064   2.386   3.153   0.828  0.1579  0.4932 -0.7419
  108MOL    H1113065   2.549   3.153   0.753 -0.2600  0.4955 -0.6957
  108MOL    H1213066   2.490   2.909   0.682  0.5876  1.1707  0.0427
  108MOL    H1313067   2.338   2.929   0.749  1.9190  0.5291  3.0701
  108MOL    C1413068   2.370   3.040   0.570  0.4836 -0.1110  0.0074
  108MOL    C1513069   2.283   2.946   0.484 -0.0580  0.2487  0.3965
  108MOL    H1613070   2.298   3.118   0.591  0.4465 -0.7283  2.2753
  108MOL    H1713071   2.444   3.083   0.502 -0.3478  1.3754  0.0227
  108MOL    H1813072   2.349   2.863   0.457  0.7386  1.2683 -0.8498
  108MOL    H1913073   2.200   2.900   0.539  0.3072 -1.3127 -0.3144
  108MOL    C2013074   2.236   3.016   0.352  0.5134 -0.0533  0.5783
  108MOL    C2113075   2.168   2.922   0.248  0.8406 -0.4061  0.1424
  108MOL    H2213076   2.176   3.106   0.366  0.5030  0.7016 -3.6552
  108MOL    H2313077   2.329   3.053   0.308  0.1743  0.7521  0.5307
  108MOL    H2413078   2.240   2.885   0.176  0.9048  0.9220 -0.4888
  108MOL    H2513079   2.142   2.831   0.301  2.7362 -0.4964  0.9785
  108MOL    C2613080   2.065   2.990   0.157  0.1488 -0.2311  0.1934
  108MOL    C2713081   2.003   2.882   0.071 -0.2338 -0.0556  0.4334
  108MOL    H2813082   1.984   3.031   0.216 -0.8760  2.2199 -2.7738
  108MOL    H2913083   2.116   3.074   0.110  1.8576  0.1206  2.5471
  108MOL    H3013084   2.082   2.841   0.008  0.2837  0.5292  0.7040
  108MOL    H3113085   1.966   2.800   0.134 -0.3344 -0.6134 -0.3397
  108MOL    C3213086   1.882   2.929   7.684 -0.1918  0.5215 -0.0002
  108MOL    C3313087   1.838   2.821   7.577 -0.3268 -0.3138 -1.1396
  108MOL    H3413088   1.800   2.974   0.048 -0.3315 -1.7500  1.6933
  108MOL    H3513089   1.925   3.000   7.613 -0.7478 -1.4828 -2.4476
  108MOL    H3613090   1.929   2.774   7.540  0.4864 -0.1514  0.6322
  108MOL    H3713091   1.780   2.740   7.621 -0.0822 -0.0841 -0.3894
  108MOL    C3813092   1.739   2.889   7.478 -0.0617  0.1127  0.5956
  108MOL    C3913093   1.690   2.794   7.371 -0.6164  0.1775 -0.3096
  108MOL    H4013094   1.654   2.931   7.532  0.6666  2.9773 -0.3919
  108MOL    H4113095   1.783   2.983   7.445  1.2260 -1.1182 -1.3425
  108MOL    H4213096   1.774   2.744   7.324  0.7767  2.6492 -0.4999
  108MOL    H4313097   1.626   2.716   7.413 -2.0959  1.2371 -0.5596
  108MOL    C4413098   1.621   2.878   7.263  0.0953  0.4592  0.3722
  108MOL    C4513099   1.545   2.788   7.163 -0.0404 -0.0880  0.1887
  108MOL    H4613100   1.550   2.938   7.319 -0.7569  2.4430 -2.6956
  108MOL    H4713101   1.692   2.951   7.225 -0.5453  1.8509  1.7878
  108MOL    H4813102   1.611   2.713   7.118  0.2279  0.4863 -0.3856
  108MOL    H4913103   1.466   2.732   7.213 -1.7836  0.0311 -2.3411
  108MOL    C5013104   1.462   2.878   7.077 -0.5080  0.2871 -0.5021
  108MOL    C5113105   1.388   2.804   6.973 -0.5421 -0.4837  0.2570
  108MOL    H5213106   1.385   2.927   7.136  0.1498 -0.3794  0.9295
  108MOL    H5313107   1.530   2.944   7.024 -1.0652  0.7442 -0.6517
  108MOL    H5413108   1.461   2.755   6.909 -1.6868  0.1142 -1.5429
  108MOL    H5513109   1.320   2.730   7.016 -1.9583  1.7765  2.0206
  108MOL    C5613110   1.298   2.904   6.887  0.4335 -0.2031  0.4437
  108MOL    C5713111   1.383   2.989   6.790 -0.0860 -0.6863  0.2954
  108MOL    H5813112   1.218   2.862   6.825 -0.6300 -2.0966  3.0307
  108MOL    H5913113   1.244   2.972   6.952 -2.3563 -1.9971  0.0980
  108MOL    H6013114   1.454   3.044   6.852  3.0672  0.4669 -4.0661
  108MOL    H6113115   1.439   2.919   6.727  0.4807 -0.4188  0.5012
  108MOL    C6213116   1.299   3.090   6.709  0.0246  0.3204  0.8147
  108MOL    C6313117   1.388   3.157   6.604  0.1192 -0.0709 -0.5916
  108MOL    H6413118   1.219   3.038   6.655 -1.0863  0.6794  2.0751
  108MOL    H6513119   1.255   3.163   6.777 -1.1234  1.2407 -0.8672
  108MOL    H6613120   1.459   3.216   6.661 -0.6890  1.3540 -1.0401
  108MOL    H6713121   1.442   3.080   6.549  1.4143  1.6765 -1.8164
  108MOL    C6813122   1.310   3.247   6.513  0.1133 -0.2079 -0.1832
  108MOL    C6913123   1.391   3.291   6.396  0.3472 -0.0683  0.4102
  108MOL    H7013124   1.216   3.206   6.476 -0.4999  0.8059  0.2248
  108MOL    H7113125   1.272   3.324   6.580 -0.6605 -1.1644  0.4992
  108MOL    H7213126   1.487   3.330   6.432  1.1424 -3.2402  1.8809
  108MOL    H7313127   1.424   3.211   6.330  3.1872  2.6093 -1.6175
  108MOL    C7413128   1.323   3.401   6.321 -0.4963 -0.0225 -0.8450
  108MOL    C7513129   1.395   3.453   6.202 -0.1413  0.5337  0.0401
  108MOL    H7613130   1.224   3.360   6.302 -0.2062 -1.5411  0.7461
  108MOL    H7713131   1.306   3.477   6.398  1.2648 -0.0335 -0.4093
  108MOL    H7813132   1.490   3.496   6.233 -0.3454  1.1819 -0.2124
  108MOL    H7913133   1.425   3.378   6.129 -0.8740  0.5911 -0.3246
  108MOL    C8013134   1.312   3.557   6.122 -0.3863  0.7128 -0.1840
  108MOL    C8113135   1.400   3.613   6.006  0.3707  0.1468 -0.0497
  108MOL    H8213136   1.222   3.512   6.081 -1.3763  2.0874  0.4484
  108MOL    H8313137   1.282   3.635   6.192 -1.1266  1.2449 -1.0861
  108MOL    H8413138   1.504   3.631   6.032 -0.1008  0.4515  1.6631
  108MOL    H8513139   1.391   3.541   5.924  1.0983  0.2157 -0.2009
  108MOL    C8613140   1.350   3.756   5.966  0.4975 -0.3507  0.3471
  108MOL    C8713141   1.431   3.822   5.847 -0.6114 -0.3829 -0.5993
  108MOL    H8813142   1.246   3.753   5.933  0.9966 -0.9129 -1.2135
  108MOL    H8913143   1.361   3.830   6.046  1.3395 -0.4178  0.2985
  108MOL    H9013144   1.529   3.849   5.887 -0.2823  1.4307 -2.5269
  108MOL    H9113145   1.443   3.746   5.770  0.3671 -2.0378  1.1501
  108MOL    C9213146   1.363   3.948   5.790 -0.2186  0.0374  0.0533
  108MOL    C9313147   1.401   4.071   5.868  0.0684  0.1297  0.2344
  108MOL    H9413148   1.407   3.963   5.692 -1.7566  0.8422 -0.5350
  108MOL    H9513149   1.255   3.936   5.792 -0.2167  0.0325  0.1525
  108MOL    H9613150   1.402   4.054   5.976 -0.8996 -2.1982 -0.0918
  108MOL    H9713151   1.506   4.085   5.844  0.2245  1.5495  1.6158
  108MOL    C9813152   1.311   4.190   5.837 -0.7625 -0.5966  0.1738
  108MOL    C9913153   1.343   4.319   5.929  0.6846  0.2418  0.1795
  108MOL   H10013154   1.334   4.209   5.732  2.8458 -2.5036  0.5266
  108MOL   H10113155   1.214   4.141   5.848 -0.5730 -1.2387 -0.9861
  108MOL   H10213156   1.249   4.375   5.934  1.5587  1.7477 -0.0522
  108MOL   H10313157   1.359   4.298   6.035  0.5224 -1.8553 -0.1963
  108MOL   C10413158   1.461   4.412   5.877  0.1081 -0.2531 -0.1323
  108MOL   C10513159   1.460   4.545   5.945 -0.0890 -0.7213 -0.0728
  108MOL   H10613160   1.554   4.355   5.879  0.6973  0.7160  1.2719
  108MOL   H10713161   1.449   4.436   5.772 -0.3731 -0.4865 -0.1333
  108MOL   H10813162   1.360   4.589   5.957  0.7110  0.1562  4.4065
  108MOL   H10913163   1.471   4.537   6.053  0.8169  0.3896 -0.0744
  108MOL   C11013164   1.532   4.661   5.873 -0.6837  0.0371 -0.4200
  108MOL   C11113165   1.551   4.783   5.966 -0.4432 -0.0681 -0.4490
  108MOL   H11213166   1.631   4.620   5.853 -1.0271 -0.5709 -0.8621
  108MOL   H11313167   1.486   4.697   5.781 -0.2477 -1.5824 -1.2799
  108MOL   H11413168   1.451   4.815   5.996 -1.0019 -0.7850 -1.5295
  108MOL   H11513169   1.622   4.751   6.043  1.1819 -0.8561 -2.2586
  108MOL   C11613170   1.624   4.898   5.897 -0.1245  0.0936  0.1099
  108MOL   C11713171   1.667   5.017   5.985  0.1568  0.4609  0.2338
  108MOL   H11813172   1.715   4.862   5.849  0.5923  2.0309 -0.0274
  108MOL   H11913173   1.556   4.932   5.819  0.9689 -0.2619 -1.0050
  108MOL   H12013174   1.584   5.062   6.039 -1.9011 -3.6042  0.6757
  108MOL   H12113175   1.736   4.975   6.059 -1.0718 -2.0237  0.0228
  108MOL   H12213176   1.709   5.098   5.925  3.6492 -1.7818 -0.5217
  109MOL     C113177   2.217   3.193   3.571 -0.3403 -0.0155 -0.6808
  109MOL     C213178   2.302   3.259   3.681 -0.3136  0.5196  0.5614
  109MOL     H313179   2.117   3.176   3.609  0.4268 -0.8538  1.0275
  109MOL     H413180   2.263   3.097   3.549 -0.1273 -0.4386  1.5065
  109MOL     H513181   2.337   3.184   3.752  0.7908  0.5803  0.1018
  109MOL     H613182   2.387   3.313   3.639 -0.0901 -0.9729 -0.9530
  109MOL     H713183   2.216   3.247   3.476  1.9656 -1.5591 -1.6411
  109MOL     C813184   2.223   3.371   3.745 -0.1337 -0.2416 -0.5701
  109MOL     C913185   2.201   3.494   3.651  0.0525  0.4910 -0.0467
  109MOL    H1013186   2.127   3.342   3.787 -0.4011  1.2633 -0.1404
  109MOL    H1113187   2.276   3.411   3.831  1.5558  1.7465 -2.4710
  109MOL    H1213188   2.297   3.515   3.604 -0.2041 -1.4389 -1.4830
  109MOL    H1313189   2.127   3.467   3.576  0.2342  1.3269 -0.5389
  109MOL    C1413190   2.144   3.610   3.737 -0.1712  0.0153  0.6976
  109MOL    C1513191   2.126   3.732   3.643  0.7322 -0.2651 -0.2234
  109MOL    H1613192   2.051   3.579   3.784  0.1755 -0.5602  1.0158
  109MOL    H1713193   2.215   3.649   3.810 -1.9921  2.2771  1.2849
  109MOL    H1813194   2.223   3.753   3.597  1.0555 -0.2245  0.4668
  109MOL    H1913195   2.047   3.706   3.573  0.3299 -0.6186  0.3628
  109MOL    C2013196   2.075   3.871   3.710  0.0034 -0.0979  0.3270
  109MOL    C2113197   2.067   3.988   3.619 -0.1039 -0.3287  0.4697
  109MOL    H2213198   1.976   3.848   3.751  0.1075 -0.3302  0.4482
  109MOL    H2313199   2.140   3.894   3.794 -0.6927 -1.7878  1.3524
  109MOL    H2413200   2.162   4.022   3.578 -1.6603  2.2033 -1.1778
  109MOL    H2513201   1.994   3.958   3.544 -0.9197 -0.6970  1.4042
  109MOL    C2613202   1.995   4.102   3.689  0.4629  0.0444 -0.0484
  109MOL    C2713203   2.090   4.161   3.797  0.2546  0.1963  0.0652
  109MOL    H2813204   1.986   4.177   3.610  0.2236  1.6737  1.4759
  109MOL    H2913205   1.894   4.073   3.720  1.1096 -2.2112  0.0126
  109MOL    H3013206   2.112   4.085   3.873 -4.3854  0.3988  1.7685
  109MOL    H3113207   2.188   4.181   3.754 -0.5274  0.8298 -1.4339
  109MOL    C3213208   2.023   4.282   3.877 -0.7063 -0.7025  0.1808
  109MOL    C3313209   2.131   4.370   3.955  0.1663  0.1130  0.3222
  109MOL    H3413210   1.973   4.349   3.807 -1.3032 -0.5322  0.7610
  109MOL    H3513211   1.960   4.231   3.950  0.0433 -0.9802  0.6362
  109MOL    H3613212   2.185   4.311   4.029 -0.8670 -0.6467  0.4841
  109MOL    H3713213   2.197   4.423   3.887 -0.6452  0.9606  0.1757
  109MOL    C3813214   2.065   4.483   4.040 -0.0323  0.3988  0.3716
  109MOL    C3913215   2.161   4.536   4.145 -0.9902  0.5693 -0.2808
  109MOL    H4013216   2.038   4.569   3.978  0.2049 -0.0883 -0.4200
  109MOL    H4113217   1.977   4.464   4.101  0.0246  0.3281  0.4296
  109MOL    H4213218   2.206   4.450   4.195 -1.4337 -0.0864 -0.9944
  109MOL    H4313219   2.230   4.582   4.074 -1.3550  0.1458 -0.9153
  109MOL    C4413220   2.115   4.644   4.248  0.2648 -0.0886 -0.1720
  109MOL    C4513221   2.239   4.696   4.326 -0.2350  0.2412  0.0185
  109MOL    H4613222   2.060   4.726   4.203  0.3170  1.1937  2.0610
  109MOL    H4713223   2.048   4.602   4.323  0.1001  0.0191 -0.2580
  109MOL    H4813224   2.271   4.621   4.399  1.1982 -1.2268 -2.0793
  109MOL    H4913225   2.324   4.706   4.258 -1.3518 -1.6460 -1.6775
  109MOL    C5013226   2.198   4.821   4.403 -0.5996  0.4037 -0.2912
  109MOL    C5113227   2.298   4.863   4.512 -0.3087  0.2705  0.4338
  109MOL    H5213228   2.179   4.901   4.332  2.2679  1.2097 -0.2318
  109MOL    H5313229   2.105   4.799   4.455  0.1962  0.1692  1.0810
  109MOL    H5413230   2.293   4.807   4.605 -0.2152 -1.9962 -0.8972
  109MOL    H5513231   2.398   4.856   4.470  0.0693  1.0736  1.1751
  109MOL    C5613232   2.275   5.012   4.551 -0.1390 -0.1338 -0.2640
  109MOL    C5713233   2.360   5.061   4.674  0.3305  0.0255  0.2876
  109MOL    H5813234   2.289   5.068   4.458 -1.9770 -1.9788 -1.7016
  109MOL    H5913235   2.170   5.017   4.578 -0.0704  0.8699 -0.1553
  109MOL    H6013236   2.345   4.992   4.757 -0.5505  0.6434  0.6479
  109MOL    H6113237   2.464   5.050   4.645 -0.3203  0.4439 -2.3579
  109MOL    C6213238   2.312   5.190   4.737 -0.7086 -0.3727  0.3647
  109MOL    C6313239   2.405   5.236   4.849  0.6815 -0.1964 -0.1913
  109MOL    H6413240   2.300   5.263   4.657 -0.0640  2.4370  2.7556
  109MOL    H6513241   2.214   5.179   4.785 -0.7549 -0.5019  0.2403
  109MOL    H6613242   2.407   5.181   4.943  3.1963 -1.0456 -0.6918
  109MOL    H6713243   2.506   5.220   4.812  0.2767 -0.9100 -1.0043
  109MOL    C6813244   2.364   5.376   4.898 -0.3348  0.2258 -0.2170
  109MOL    C6913245   2.455   5.420   5.013  0.4943  0.5145 -0.4884
  109MOL    H7013246   2.374   5.440   4.810  3.0792  0.5169  0.3085
  109MOL    H7113247   2.263   5.374   4.938 -0.4723  1.3390 -0.4780
  109MOL    H7213248   2.430   5.364   5.104  0.4654 -1.9496 -1.9722
  109MOL    H7313249   2.557   5.407   4.980  0.3268 -0.7975 -0.5352
  109MOL    C7413250   2.421   5.560   5.055 -0.1176  0.2649 -0.0614
  109MOL    C7513251   2.493   5.603   5.182  0.0560 -0.0035  0.1607
  109MOL    H7613252   2.441   5.623   4.969 -3.7437  0.4318 -0.8926
  109MOL    H7713253   2.312   5.566   5.060 -0.2536 -1.5085 -0.4043
  109MOL    H7813254   2.445   5.553   5.266 -0.7247 -3.8084 -2.4398
  109MOL    H7913255   2.589   5.550   5.181  0.6125  0.8802  3.1783
  109MOL    C8013256   2.496   5.757   5.212  0.3867  0.0867  0.4816
  109MOL    C8113257   2.575   5.781   5.346 -0.1078  0.2225  0.3281
  109MOL    H8213258   2.550   5.812   5.135 -0.6355 -1.5193 -1.4399
  109MOL    H8313259   2.394   5.794   5.216 -0.2290 -1.4798 -0.4905
  109MOL    H8413260   2.559   5.693   5.408 -2.3144  0.6287  0.3848
  109MOL    H8513261   2.680   5.774   5.319 -0.3403 -0.0957 -0.5094
  109MOL    C8613262   2.521   5.911   5.403  0.0454  0.4683  0.2496
  109MOL    C8713263   2.553   5.926   5.553 -0.3249 -0.1139 -0.6182
  109MOL    H8813264   2.577   5.988   5.350 -0.4664  0.9084  0.3369
  109MOL    H8913265   2.418   5.943   5.388 -0.0256  1.9692  3.4707
  109MOL    H9013266   2.492   5.851   5.603 -1.2809  1.2184  0.2412
  109MOL    H9113267   2.661   5.910   5.563 -0.4747 -0.4312  0.6417
  109MOL    C9213268   2.513   6.060   5.616 -0.0558  0.7485 -0.3601
  109MOL    C9313269   2.585   6.072   5.753  0.3495  0.0783 -1.0330
  109MOL    H9413270   2.552   6.141   5.554  1.1314  0.4348 -0.0441
  109MOL    H9513271   2.404   6.067   5.619 -0.0869  0.4739 -0.8019
  109MOL    H9613272   2.545   5.987   5.808 -0.1081  0.8955 -0.0657
  109MOL    H9713273   2.693   6.058   5.750  0.3501 -0.1210 -0.2725
  109MOL    C9813274   2.562   6.206   5.827  0.2825  0.4905 -0.4568
  109MOL    C9913275   2.555   6.193   5.976  0.2124 -0.1831 -0.2038
  109MOL   H10013276   2.636   6.279   5.793  0.1157 -0.4611 -2.9387
  109MOL   H10113277   2.466   6.247   5.796  1.0056  2.8785  0.3649
  109MOL   H10213278   2.506   6.283   6.015  0.6243 -0.3881  0.8107
  109MOL   H10313279   2.484   6.118   6.011  0.9009 -0.4381  0.6758
  109MOL   C10413280   2.692   6.174   6.039 -0.0326 -0.2766 -0.2897
  109MOL   C10513281   2.695   6.214   6.188 -1.3368 -0.6568 -0.2617
  109MOL   H10613282   2.732   6.073   6.031 -0.2747 -0.1947 -2.9870
  109MOL   H10713283   2.771   6.225   5.982 -0.4605 -0.2384 -0.8534
  109MOL   H10813284   2.688   6.323   6.184 -2.4867 -0.6482  1.3501
  109MOL   H10913285   2.609   6.176   6.243 -0.7400  2.2820  2.8436
  109MOL   C11013286   2.828   6.181   6.258 -0.0345  0.1986  0.0706
  109MOL   C11113287   2.840   6.252   6.405  0.2222  0.7638 -0.5941
  109MOL   H11213288   2.844   6.075   6.276  1.3969 -0.1504 -3.0066
  109MOL   H11313289   2.914   6.211   6.199 -1.6412 -0.7937 -2.8658
  109MOL   H11413290   2.942   6.255   6.444  0.0381 -0.3283  0.0126
  109MOL   H11513291   2.812   6.357   6.408  1.0969  0.9996 -0.4511
  109MOL   C11613292   2.758   6.178   6.511 -0.2181 -0.5921 -0.0012
  109MOL   C11713293   2.765   6.251   6.647  0.0290 -0.0532 -0.4939
  109MOL   H11813294   2.655   6.182   6.476  0.3100  1.5999 -1.4056
  109MOL   H11913295   2.778   6.071   6.514  0.8602 -0.3708  3.8247
  109MOL   H12013296   2.707   6.200   6.724  0.0052  0.3837 -0.2143
  109MOL   H12113297   2.868   6.245   6.684 -0.6852  1.1272  1.7996
  109MOL   H12213298   2.746   6.358   6.632  0.6154  0.0334 -0.6300
  110MOL     C113299   0.026   1.143   0.256 -0.7763  0.8660  0.2881
  110MOL     C213300   0.173   1.132   0.197  1.2934  0.1076 -0.1269
  110MOL     H313301   7.670   1.048   0.233 -0.2287  0.4328  0.8976
  110MOL     H413302   7.660   1.225   0.213 -1.5250  0.7453  1.0516
  110MOL     H513303   0.246   1.185   0.258  1.1493 -0.7951  0.8282
  110MOL     H613304   0.204   1.031   0.221  0.8990  0.2513  0.9969
  110MOL     H713305   0.027   1.166   0.363  0.3895  3.2718 -0.1996
  110MOL     C813306   0.183   1.158   0.042 -0.1486 -0.0340  0.2040
  110MOL     C913307   0.133   1.041   7.640 -0.3195 -0.3686 -0.4552
  110MOL    H1013308   0.128   1.250   0.023  1.3829  0.3346 -2.7154
  110MOL    H1113309   0.288   1.174   0.018  0.0602 -0.0751  1.0666
  110MOL    H1213310   0.204   0.962   7.663  2.5567  2.2172 -0.2137
  110MOL    H1313311   0.028   1.021   7.663 -0.4526 -1.1709 -1.7430
  110MOL    C1413312   0.146   1.065   7.487  0.2700 -0.6332  0.1102
  110MOL    C1513313   0.088   0.950   7.399 -0.3229  0.3401 -0.4290
  110MOL    H1613314   0.096   1.157   7.457  2.0614  0.2375 -0.2720
  110MOL    H1713315   0.250   1.069   7.453  0.4335 -0.2933  0.6319
  110MOL    H1813316   0.108   0.847   7.428  0.1121  0.3365 -0.7420
  110MOL    H1913317   7.672   0.959   7.416 -0.0121  0.3865  1.6120
  110MOL    C2013318   0.119   0.962   7.250 -0.4713 -0.0929 -0.7286
  110MOL    C2113319   0.044   0.880   7.152  0.2272  0.1775 -0.4277
  110MOL    H2213320   0.106   1.065   7.219 -0.5401  0.6204  1.5794
  110MOL    H2313321   0.225   0.938   7.237  0.1493  1.6632  0.9436
  110MOL    H2413322   0.032   0.779   7.192  2.0116 -0.4879 -1.4658
  110MOL    H2513323   7.644   0.937   7.148  0.9012  1.4571  1.5435
  110MOL    C2613324   0.117   0.872   7.015  0.1905  0.1351 -0.3236
  110MOL    C2713325   0.040   0.772   6.927  0.3186 -0.4615  0.3097
  110MOL    H2813326   0.126   0.973   6.975 -0.3519  1.0040  1.7174
  110MOL    H2913327   0.222   0.844   7.025  0.2822  0.3497 -0.6559
  110MOL    H3013328   0.046   0.669   6.962 -1.1380 -0.1822  1.4689
  110MOL    H3113329   7.624   0.784   6.935  0.4327  1.3701 -0.6577
  110MOL    C3213330   0.093   0.789   6.782  0.0918  0.3002 -0.0428
  110MOL    C3313331   0.014   0.698   6.687  0.9591 -0.3068  0.1221
  110MOL    H3413332   0.097   0.893   6.752  0.1774  0.2097 -0.3539
  110MOL    H3513333   0.198   0.760   6.777 -0.0312 -0.4760  1.4846
  110MOL    H3613334   7.683   0.604   6.739 -0.0280 -0.1837 -0.0643
  110MOL    H3713335   7.602   0.731   6.677  0.5372 -1.5210  0.3244
  110MOL    C3813336   0.082   0.689   6.551 -0.2331 -0.9870  0.3378
  110MOL    C3913337   0.002   0.591   6.469 -0.6437  0.0481 -0.1615
  110MOL    H4013338   0.082   0.777   6.487  0.5328 -0.5857  0.8862
  110MOL    H4113339   0.183   0.649   6.565  0.7613  1.1429 -0.5314
  110MOL    H4213340   7.677   0.498   6.523 -1.0987  1.4215  2.1011
  110MOL    H4313341   7.591   0.621   6.451 -1.4133 -1.4510  1.6125
  110MOL    C4413342   0.068   0.558   6.322  0.1729  0.3430 -0.8749
  110MOL    C4513343   7.662   0.486   6.230 -0.5875 -0.1137  0.3103
  110MOL    H4613344   0.083   0.654   6.272  1.8983 -0.5165 -2.0330
  110MOL    H4713345   0.165   0.508   6.329  0.2664  0.8768  3.8453
  110MOL    H4813346   7.641   0.387   6.269  0.3936 -0.0221  1.1077
  110MOL    H4913347   7.570   0.543   6.222  0.1751  0.8179 -2.5059
  110MOL    C5013348   0.031   0.477   6.097  0.2019 -0.2390 -0.3887
  110MOL    C5113349   7.626   0.401   6.006  0.4857  0.7086 -0.8670
  110MOL    H5213350   0.055   0.579   6.068 -1.4009  0.1227 -0.5037
  110MOL    H5313351   0.120   0.414   6.098 -0.1230 -0.6874  0.6901
  110MOL    H5413352   7.599   0.300   6.038 -0.8673  1.0500 -0.8634
  110MOL    H5513353   7.528   0.449   6.014 -0.5001 -0.8039 -3.1037
  110MOL    C5613354   7.678   0.400   5.864 -0.3458 -0.1616 -0.6652
  110MOL    C5713355   7.577   0.342   5.762 -0.5367  0.0530  0.5841
  110MOL    H5813356   0.021   0.498   5.831  2.6628  0.8444  4.9276
  110MOL    H5913357   0.070   0.331   5.871 -0.2380 -0.0351 -0.7185
  110MOL    H6013358   7.512   0.271   5.815 -0.2115 -0.0398  0.8605
  110MOL    H6113359   7.514   0.421   5.720 -0.5208  0.3254  1.0705
  110MOL    C6213360   7.639   0.263   5.646 -0.1580  0.0713  0.3834
  110MOL    C6313361   7.546   0.255   5.523  0.0600  0.7424  0.1056
  110MOL    H6413362   0.030   0.329   5.620  0.3255  0.1385  2.0414
  110MOL    H6513363   7.686   0.169   5.673 -1.2852 -0.5934  0.0766
  110MOL    H6613364   7.468   0.183   5.545  1.1224 -0.8689 -1.1970
  110MOL    H6713365   7.508   0.355   5.503  0.2217  0.5578 -1.1628
  110MOL    C6813366   7.617   0.219   5.394 -0.1473 -0.6007  0.4873
  110MOL    C6913367   7.529   0.189   5.274 -0.2795  0.2893 -0.6915
  110MOL    H7013368   7.686   0.298   5.364 -2.8721  1.5021 -0.3803
  110MOL    H7113369   7.678   0.131   5.416 -0.9279 -0.8805  1.5706
  110MOL    H7213370   7.458   0.110   5.299 -1.4066  0.5219 -3.0189
  110MOL    H7313371   7.472   0.277   5.241 -0.1790  0.5714 -0.1279
  110MOL    C7413372   7.598   0.155   5.145  0.1012 -0.1874 -0.0968
  110MOL    C7513373   7.504   0.080   5.045 -1.0067 -0.7730 -0.3780
  110MOL    H7613374   7.634   0.246   5.098 -0.3377  0.3162  0.5532
  110MOL    H7713375   7.689   0.104   5.177 -0.3073 -0.5926  0.4226
  110MOL    H7813376   7.469   7.679   5.090 -0.4239 -0.6167  0.4044
  110MOL    H7913377   7.419   0.147   5.027 -4.1163 -3.9304  1.8405
  110MOL    C8013378   7.596   0.060   4.921  0.1340 -0.5380  0.1217
  110MOL    C8113379   7.521   7.690   4.802 -0.9584 -0.4522  0.4216
  110MOL    H8213380   7.637   0.158   4.895 -1.6972 -0.0489 -0.9717
  110MOL    H8313381   7.677   7.687   4.954  0.6638  0.1079  0.1140
  110MOL    H8413382   7.460   7.609   4.841 -1.8756 -0.9550 -1.9745
  110MOL    H8513383   7.461   0.070   4.747 -1.0487 -1.2683 -0.5605
  110MOL    C8613384   7.618   7.624   4.701  0.6483 -0.3085  0.2418
  110MOL    C8713385   7.521   7.560   4.592 -0.2124  0.8327  0.3603
  110MOL    H8813386   7.683   7.688   4.641 -2.5027 -0.5064 -3.6252
  110MOL    H8913387   7.684   7.550   4.745  0.5940 -0.7231 -0.3591
  110MOL    H9013388   7.449   7.499   4.646 -1.2978 -0.0945 -2.0650
  110MOL    H9113389   7.462   7.635   4.538 -0.6428  1.6707  1.9421
  110MOL    C9213390   7.578   7.461   4.495 -0.6913 -0.3154 -0.2350
  110MOL    C9313391   7.471   7.382   4.418 -0.9905 -0.0783  0.2515
  110MOL    H9413392   7.654   7.502   4.429 -0.1653 -0.4702  0.2669
  110MOL    H9513393   7.625   7.382   4.554  2.2416  0.8943 -0.8548
  110MOL    H9613394   7.534   7.306   4.371 -0.4516  0.6270 -0.1727
  110MOL    H9713395   7.409   7.325   4.487 -0.8874  0.3163  0.6660
  110MOL    C9813396   7.392   7.459   4.310 -0.3024  0.6687 -0.9129
  110MOL    C9913397   7.263   7.378   4.278  0.2933  0.2759  0.1854
  110MOL   H10013398   7.375   7.563   4.335  1.0100  0.5414  0.5659
  110MOL   H10113399   7.457   7.463   4.222  1.0223  1.0145  0.0604
  110MOL   H10213400   7.281   7.289   4.219 -2.7398  0.6644 -1.4312
  110MOL   H10313401   7.212   7.365   4.374 -0.0979  0.4616  0.0012
  110MOL   C10413402   7.179   7.475   4.193 -0.8069  0.7998 -0.0506
  110MOL   C10513403   7.030   7.425   4.179 -0.0461  0.2064 -0.3896
  110MOL   H10613404   7.183   7.578   4.228 -1.3281  0.6280  0.5529
  110MOL   H10713405   7.219   7.479   4.092  0.2585  0.3391  0.3544
  110MOL   H10813406   6.979   7.471   4.095  1.8510  1.4121 -0.9130
  110MOL   H10913407   7.028   7.316   4.171  0.6912  0.3659 -3.3804
  110MOL   C11013408   6.939   7.454   4.299  0.1088 -0.5276 -0.0079
  110MOL   C11113409   6.916   7.609   4.311  0.8317  0.4928  0.4831
  110MOL   H11213410   6.843   7.403   4.285 -0.6573  0.2889  2.0978
  110MOL   H11313411   6.981   7.398   4.382 -1.1535 -2.8116 -0.8608
  110MOL   H11413412   7.001   7.672   4.341  1.0665 -0.1981  1.3099
  110MOL   H11513413   6.891   7.655   4.216  0.1712  2.6547  1.6518
  110MOL   C11613414   6.798   7.630   4.412  0.7612 -0.1866  0.5480
  110MOL   C11713415   6.775   0.085   4.462  0.3228 -0.2819 -0.6136
  110MOL   H11813416   6.712   7.584   4.362  2.1396  0.3761 -2.4118
  110MOL   H11913417   6.809   7.564   4.498 -2.3339  2.1578  2.8671
  110MOL   H12013418   6.700   0.104   4.539 -0.4670  0.5653 -1.5757
  110MOL   H12113419   6.862   0.117   4.520 -0.8251  1.3110  0.2873
  110MOL   H12213420   6.761   0.155   4.380 -0.7223  1.2770  0.8663
  111MOL     C113421   0.809   3.620   7.057  0.2526  0.0680  0.0489
  111MOL     C213422   0.857   3.653   7.195 -0.0049  0.2460 -0.1693
  111MOL     H313423   0.750   3.705   7.022 -0.0543 -1.3999 -3.1693
  111MOL     H413424   0.736   3.539   7.065  0.6331 -0.1504  1.4903
  111MOL     H513425   0.937   3.590   7.234 -0.6148 -1.4664 -1.6125
  111MOL     H613426   0.889   3.757   7.195  1.5666 -0.2319 -0.0519
  111MOL     H713427   0.894   3.606   6.991  0.3608 -0.4510  0.2902
  111MOL     C813428   0.732   3.659   7.291  0.2264  0.2884  0.0094
  111MOL     C913429   0.762   3.703   7.436  0.1863  0.4236 -0.7792
  111MOL    H1013430   0.654   3.719   7.245 -1.3995  0.6089  3.0382
  111MOL    H1113431   0.696   3.556   7.294 -1.9198  0.9826 -0.9494
  111MOL    H1213432   0.853   3.654   7.472  0.8800  3.1141  1.2971
  111MOL    H1313433   0.795   3.806   7.437 -1.1089  0.8503 -0.5299
  111MOL    C1413434   0.650   3.690   7.538 -0.3096  0.2228 -0.0325
  111MOL    C1513435   0.683   3.762   7.670 -0.0233  0.2366  0.0039
  111MOL    H1613436   0.564   3.737   7.490 -1.5489 -2.4275 -0.5285
  111MOL    H1713437   0.630   3.585   7.559 -0.3191 -0.4858 -3.1948
  111MOL    H1813438   0.759   3.704   0.030 -0.0709 -0.0709 -0.2652
  111MOL    H1913439   0.720   3.864   7.657 -0.1308  0.0735 -1.7931
  111MOL    C2013440   0.572   3.748   0.083 -0.0004  0.8588 -0.2840
  111MOL    C2113441   0.542   3.600   0.128  0.1515  0.7383  0.4411
  111MOL    H2213442   0.584   3.805   0.174  1.5935 -0.2684  0.2410
  111MOL    H2313443   0.478   3.782   0.038 -1.2775 -1.7994  0.2187
  111MOL    H2413444   0.529   3.527   0.047  0.7516  2.0732 -0.8928
  111MOL    H2513445   0.626   3.554   0.181 -0.5591  0.5122  1.3749
  111MOL    C2613446   0.417   3.584   0.217 -0.4092 -0.1153  0.9628
  111MOL    C2713447   0.378   3.449   0.269 -0.3036 -0.0372  0.1543
  111MOL    H2813448   0.423   3.645   0.307 -0.3668 -0.1657  0.9937
  111MOL    H2913449   0.338   3.634   0.160 -1.7699 -2.0188  1.1284
  111MOL    H3013450   0.379   3.382   0.183 -2.0055 -0.3531  0.3581
  111MOL    H3113451   0.458   3.410   0.332 -0.1637  0.2696  0.1659
  111MOL    C3213452   0.247   3.437   0.344 -0.7899  0.1243 -0.2926
  111MOL    C3313453   0.270   3.468   0.496 -0.1313 -0.2088 -0.2551
  111MOL    H3413454   0.181   3.512   0.300 -0.7471  0.1286 -0.3499
  111MOL    H3513455   0.198   3.340   0.343  0.6461 -0.6427  1.3196
  111MOL    H3613456   0.356   3.413   0.534 -1.3644 -1.5940  0.5865
  111MOL    H3713457   0.294   3.574   0.499  3.2458 -0.9721  2.3484
  111MOL    C3813458   0.136   3.430   0.571 -0.1141 -0.4435  0.0788
  111MOL    C3913459   0.010   3.494   0.521  0.0498  0.0620 -0.9697
  111MOL    H4013460   0.129   3.321   0.568 -0.8813 -0.3629 -2.3068
  111MOL    H4113461   0.147   3.466   0.673  1.4321 -2.1547  0.5466
  111MOL    H4213462   0.016   3.603   0.532  0.1764 -0.1179  0.9798
  111MOL    H4313463   7.681   3.463   0.419 -3.6183 -4.0105  0.8316
  111MOL    C4413464   7.578   3.446   0.608  0.4831 -0.4214  0.5897
  111MOL    C4513465   7.446   3.533   0.579 -0.7972  0.8556 -0.3206
  111MOL    H4613466   7.558   3.339   0.601 -1.5118 -0.1193  1.3857
  111MOL    H4713467   7.599   3.456   0.715  2.5988  1.3711  0.0584
  111MOL    H4813468   7.373   3.487   0.646  2.8187  0.4692  3.5195
  111MOL    H4913469   7.456   3.639   0.604 -1.2300  1.5231 -2.8517
  111MOL    C5013470   7.386   3.528   0.435  0.1542  0.1728  0.1906
  111MOL    C5113471   7.250   3.597   0.421 -0.1604 -0.2684 -0.4083
  111MOL    H5213472   7.464   3.561   0.366  0.6879 -0.8977  0.2866
  111MOL    H5313473   7.367   3.427   0.399  1.1654  0.2069 -0.4682
  111MOL    H5413474   7.189   3.557   0.502  2.0427  0.0370  1.4556
  111MOL    H5513475   7.265   3.705   0.432  1.1820 -0.4786 -0.1709
  111MOL    C5613476   7.188   3.582   0.286  0.4002 -0.3948  0.5377
  111MOL    C5713477   7.278   3.621   0.171  0.1112  0.0395 -0.2137
  111MOL    H5813478   7.157   3.478   0.272 -1.1737  0.0772  0.3858
  111MOL    H5913479   7.102   3.648   0.277  0.7199  0.1093  1.1925
  111MOL    H6013480   7.307   3.723   0.197 -2.5218  0.8941 -0.5238
  111MOL    H6113481   7.372   3.566   0.169 -0.5380 -1.1349  0.7453
  111MOL    C6213482   7.214   3.624   0.030 -0.3473  0.3997  0.3619
  111MOL    C6313483   7.303   3.674   7.610 -0.7331  0.1146  0.8070
  111MOL    H6413484   7.182   3.523   0.004 -1.5920  0.5036  1.4508
  111MOL    H6513485   7.123   3.683   0.036 -0.5070 -0.0806  3.2195
  111MOL    H6613486   7.326   3.775   7.644  1.2770  0.3808 -1.2662
  111MOL    H6713487   7.380   3.597   7.612  1.5315  2.3260  1.1834
  111MOL    C6813488   7.230   3.675   7.472 -0.1802  1.4749  0.6862
  111MOL    C6913489   7.210   3.820   7.419  0.1793 -0.2084  0.2785
  111MOL    H7013490   7.285   3.607   7.406 -1.4475  2.1201 -1.0781
  111MOL    H7113491   7.135   3.621   7.474  0.5870  0.1076  1.0261
  111MOL    H7213492   7.126   3.856   7.478  0.9291  1.1756  0.5410
  111MOL    H7313493   7.289   3.895   7.424 -1.5100  1.8172 -2.2352
  111MOL    C7413494   7.162   3.838   7.272  0.2716 -0.6012 -0.4851
  111MOL    C7513495   7.023   3.889   7.268 -0.2437  0.2452  0.4082
  111MOL    H7613496   7.233   3.903   7.220  0.2877  0.5633  0.9805
  111MOL    H7713497   7.176   3.742   7.221 -0.6066 -2.1376  2.0674
  111MOL    H7813498   6.985   3.875   7.167 -1.8301 -0.2248  1.0496
  111MOL    H7913499   6.964   3.828   7.336 -0.4018  0.8642  0.8305
  111MOL    C8013500   7.005   4.033   7.317 -0.4647  0.0170  0.0435
  111MOL    C8113501   7.056   4.145   7.218 -0.6368 -0.3742 -0.3685
  111MOL    H8213502   6.897   4.043   7.333 -0.7934 -1.9207 -0.8215
  111MOL    H8313503   7.049   4.055   7.414 -1.1431  0.4030  0.2673
  111MOL    H8413504   7.124   4.096   7.148  2.2488  1.4005  1.0919
  111MOL    H8513505   6.976   4.182   7.154 -0.1987 -0.5495 -1.0337
  111MOL    C8613506   7.132   4.266   7.285 -0.3410  0.3732 -0.3099
  111MOL    C8713507   7.270   4.231   7.341  0.1134 -0.0696 -0.3449
  111MOL    H8813508   7.142   4.350   7.216  0.5985 -1.4392 -2.3928
  111MOL    H8913509   7.068   4.296   7.369  0.1790 -0.0175  0.2277
  111MOL    H9013510   7.258   4.142   7.403 -1.0902  1.4209  1.5928
  111MOL    H9113511   7.334   4.207   7.255 -1.1808 -2.9075 -0.5885
  111MOL    C9213512   7.336   4.341   7.413 -0.4357  0.4303  0.0624
  111MOL    C9313513   7.472   4.301   7.470  0.8013  0.6382  0.7640
  111MOL    H9413514   7.342   4.427   7.347 -0.9168 -0.4254 -1.1225
  111MOL    H9513515   7.275   4.372   7.497 -0.7000 -1.9916  0.8058
  111MOL    H9613516   7.482   4.194   7.490 -1.2996  0.9898  4.0477
  111MOL    H9713517   7.553   4.327   7.401 -0.1803 -0.1399 -0.7088
  111MOL    C9813518   7.489   4.370   7.612  1.1056 -0.5790 -0.1460
  111MOL    C9913519   7.622   4.334   7.677  0.5499  0.3584  0.3216
  111MOL   H10013520   7.466   4.476   7.602  2.5962 -0.0911  1.1802
  111MOL   H10113521   7.420   4.334   7.689 -0.6638 -0.4654 -1.6549
  111MOL   H10213522   7.620   4.226   7.686 -1.2208  0.4175  0.9835
  111MOL   H10313523   0.003   4.370   7.605  1.1440 -0.2228  0.6312
  111MOL   C10413524   7.644   4.398   0.124 -0.3526 -0.5531 -0.4233
  111MOL   C10513525   0.078   4.367   0.205  0.1653 -0.0673 -0.5928
  111MOL   H10613526   7.656   4.505   0.106  1.7241 -0.7387 -0.2446
  111MOL   H10713527   7.557   4.380   0.188  0.6026 -0.8695  0.7912
  111MOL   H10813528   0.100   4.261   0.193 -2.2378 -0.6192 -0.4166
  111MOL   H10913529   0.153   4.430   0.156  0.8343  1.4514  2.2511
  111MOL   C11013530   0.074   4.405   0.357 -0.0208  0.1257  0.1120
  111MOL   C11113531   0.194   4.356   0.438  0.0594 -0.1890 -0.2039
  111MOL   H11213532   0.067   4.513   0.366 -2.5753 -0.1597  1.9253
  111MOL   H11313533   7.667   4.379   0.393 -0.5630  2.5373  0.4669
  111MOL   H11413534   0.190   4.249   0.461  2.0124 -0.1993  0.1902
  111MOL   H11513535   0.286   4.369   0.380 -0.2283  0.1972 -0.5757
  111MOL   C11613536   0.203   4.423   0.572  0.7587 -0.7481  0.2056
  111MOL   C11713537   0.288   4.344   0.673  0.5085 -0.1736  0.3456
  111MOL   H11813538   0.245   4.523   0.567  0.8286 -0.8446 -1.1645
  111MOL   H11913539   0.100   4.435   0.607  0.3393 -0.0508 -1.2654
  111MOL   H12013540   0.278   4.359   0.781 -0.4977  0.0700  0.2163
  111MOL   H12113541   0.263   4.239   0.657  0.0530 -0.2512  1.4833
  111MOL   H12213542   0.391   4.368   0.649 -0.0454  0.6747 -1.2209
  112MOL     C113543   6.483   0.288   1.747 -0.0370  0.7369 -0.0202
  112MOL     C213544   6.530   0.234   1.885 -0.1808 -0.5998 -0.4320
  112MOL     H313545   6.501   0.396   1.749 -1.0438  0.9056  0.2828
  112MOL     H413546   6.375   0.280   1.733  0.3189 -2.3130 -1.3678
  112MOL     H513547   6.487   0.136   1.902 -0.5013 -0.0823  1.9149
  112MOL     H613548   6.637   0.216   1.874  0.3316  1.5171  0.7437
  112MOL     H713549   6.531   0.249   1.658  0.2949  1.5840 -0.2206
  112MOL     C813550   6.515   0.334   2.003 -0.7070  0.0538  0.1656
  112MOL     C913551   6.592   0.294   2.133 -0.3393 -0.2813  0.2832
  112MOL    H1013552   6.547   0.433   1.971 -0.7559 -0.0271 -0.1371
  112MOL    H1113553   6.408   0.356   2.016 -0.6214  0.8649 -0.4160
  112MOL    H1213554   6.552   0.204   2.180  0.7881 -0.2643  1.2873
  112MOL    H1313555   6.694   0.263   2.113 -0.3794 -1.3033  1.6018
  112MOL    C1413556   6.593   0.404   2.240  0.0311 -0.6302 -0.4776
  112MOL    C1513557   6.670   0.350   2.361  0.0086 -0.8001 -0.2958
  112MOL    H1613558   6.638   0.496   2.201 -2.9916  0.7159 -0.9358
  112MOL    H1713559   6.494   0.442   2.266  1.2100  2.5325 -0.3926
  112MOL    H1813560   6.614   0.267   2.402 -0.2808 -0.0725  0.8163
  112MOL    H1913561   6.763   0.307   2.323 -0.0606  0.6842 -2.2196
  112MOL    C2013562   6.698   0.468   2.466  0.4165 -0.3382 -0.2355
  112MOL    C2113563   6.790   0.417   2.568  0.3573  0.4928  0.1608
  112MOL    H2213564   6.749   0.550   2.416  3.1260 -1.7235  0.1991
  112MOL    H2313565   6.605   0.507   2.508  0.5351 -0.9707  0.6489
  112MOL    H2413566   6.739   0.331   2.611  2.5672  0.0391  1.9858
  112MOL    H2513567   6.888   0.386   2.533 -0.5419 -0.8047 -1.2852
  112MOL    C2613568   6.798   0.519   2.680  0.1127  0.3777 -0.1695
  112MOL    C2713569   6.900   0.486   2.797 -0.3118  0.1368 -0.0925
  112MOL    H2813570   6.828   0.614   2.635  0.4929 -0.8383 -2.5547
  112MOL    H2913571   6.704   0.530   2.733 -0.3627 -1.6077 -0.5554
  112MOL    H3013572   6.879   0.384   2.829  0.3161  0.3248  0.9280
  112MOL    H3113573   6.997   0.490   2.749 -0.2656  1.4373  0.0932
  112MOL    C3213574   6.893   0.591   2.911 -0.1964 -0.3433  0.5861
  112MOL    C3313575   7.002   0.569   3.014 -0.0772 -0.0362 -0.6741
  112MOL    H3413576   6.899   0.687   2.861 -0.4224 -2.0217 -2.7819
  112MOL    H3513577   6.798   0.579   2.964  0.1589 -1.7038  0.9295
  112MOL    H3613578   7.099   0.567   2.965 -0.5990  1.1245 -1.7962
  112MOL    H3713579   6.993   0.651   3.085 -0.4522 -0.5347 -0.1405
  112MOL    C3813580   7.002   0.431   3.083 -0.3200  0.3687 -0.8029
  112MOL    C3913581   7.106   0.417   3.196 -0.5075  0.2710  0.0233
  112MOL    H4013582   6.895   0.421   3.105 -0.2803 -0.0730 -0.8008
  112MOL    H4113583   7.014   0.352   3.009  1.5077 -3.4327  3.3278
  112MOL    H4213584   7.201   0.453   3.158 -2.2364  2.7179 -2.1198
  112MOL    H4313585   7.064   0.468   3.283  0.9067  0.8053  0.3957
  112MOL    C4413586   7.133   0.266   3.237 -0.0481 -0.0732  0.5600
  112MOL    C4513587   7.014   0.176   3.295 -0.3394 -0.4717  0.9239
  112MOL    H4613588   7.175   0.210   3.153  1.4842  0.8124  0.7176
  112MOL    H4713589   7.213   0.249   3.309  0.8978 -0.8864 -0.6599
  112MOL    H4813590   6.989   0.213   3.394  1.0452  1.7160  0.4939
  112MOL    H4913591   6.928   0.200   3.232 -1.4375 -0.3098  2.4602
  112MOL    C5013592   7.035   0.024   3.301  0.7226 -0.8188 -0.6947
  112MOL    C5113593   7.135   7.661   3.404 -0.2318 -0.2593 -0.3990
  112MOL    H5213594   6.937   7.670   3.318 -0.7342  2.1884 -0.5624
  112MOL    H5313595   7.063   7.684   3.200  4.6883 -0.6871  0.2833
  112MOL    H5413596   7.220   0.033   3.427  0.3736 -0.4904 -1.9971
  112MOL    H5513597   7.078   7.650   3.497  0.7797 -2.0098  0.0498
  112MOL    C5613598   7.184   7.521   3.355  0.3554  0.7187 -0.3580
  112MOL    C5713599   7.285   7.449   3.451  0.0515  0.5538  0.3368
  112MOL    H5813600   7.097   7.458   3.336  0.2057  1.2257 -1.4361
  112MOL    H5913601   7.230   7.541   3.258  0.1875 -0.7314 -0.7430
  112MOL    H6013602   7.377   7.506   3.445  0.5755 -0.2213  0.9423
  112MOL    H6113603   7.258   7.466   3.556  0.1725 -3.6981  1.1694
  112MOL    C6213604   7.311   7.302   3.414  0.6973  0.0478  0.4756
  112MOL    C6313605   7.424   7.231   3.487  0.2423  0.4971 -0.0399
  112MOL    H6413606   7.213   7.255   3.426  0.5503 -0.0327 -0.8898
  112MOL    H6513607   7.333   7.306   3.307 -0.2841  1.7672  0.3188
  112MOL    H6613608   7.503   7.301   3.515  0.1580  0.6514 -0.1848
  112MOL    H6713609   7.389   7.192   3.582 -0.3704  3.2109  0.9128
  112MOL    C6813610   7.470   7.111   3.402 -0.0442 -0.8531  0.6854
  112MOL    C6913611   7.588   7.045   3.475  0.0837 -0.2424  0.0719
  112MOL    H7013612   7.384   7.047   3.382 -0.4988 -0.2639  0.7360
  112MOL    H7113613   7.504   7.145   3.304  0.9950  0.2576  1.4146
  112MOL    H7213614   7.674   7.112   3.481 -0.2905  0.1144  1.6134
  112MOL    H7313615   7.555   7.022   3.576 -2.1320  1.5079 -0.1877
  112MOL    C7413616   7.631   6.920   3.397  0.1887  0.7102 -0.1568
  112MOL    C7513617   0.025   6.942   3.270 -0.0834  0.1612 -0.1783
  112MOL    H7613618   7.688   6.862   3.469 -0.1088  0.7380  0.1042
  112MOL    H7713619   7.544   6.856   3.384  1.5240 -2.0171  3.3740
  112MOL    H7813620   7.669   7.021   3.212  1.7266  2.1862  0.9949
  112MOL    H7913621   0.121   6.985   3.299 -0.9799 -0.0376  3.3359
  112MOL    C8013622   0.050   6.814   3.180 -0.4955  0.2239 -0.6760
  112MOL    C8113623   0.081   6.854   3.033  0.2052  0.1433  0.4547
  112MOL    H8213624   0.131   6.757   3.225 -0.2057  1.9933  1.0964
  112MOL    H8313625   7.652   6.752   3.183 -0.5621  0.3234 -0.6441
  112MOL    H8413626   0.021   6.941   3.006  0.9259  0.0653 -1.4697
  112MOL    H8513627   0.185   6.885   3.036  0.3563 -0.0689 -1.7109
  112MOL    C8613628   0.056   6.741   2.938 -0.2555 -0.3427 -0.0816
  112MOL    C8713629   0.071   6.782   2.788  0.1647  0.3110  0.0251
  112MOL    H8813630   0.119   6.655   2.959  3.2939  2.3444  0.8443
  112MOL    H8913631   7.644   6.706   2.943 -0.1522 -1.0338 -2.2525
  112MOL    H9013632   0.007   6.867   2.765  1.9974  1.5225 -0.6793
  112MOL    H9113633   0.170   6.820   2.767 -0.0307  2.1967  2.3485
  112MOL    C9213634   0.043   6.663   2.691  0.1503 -0.3242 -0.8713
  112MOL    C9313635   0.081   6.696   2.546  0.5202 -0.0593  0.2444
  112MOL    H9413636   0.090   6.577   2.739  1.3550  0.9538  0.2890
  112MOL    H9513637   7.626   6.655   2.693  0.0769  0.7216  0.0934
  112MOL    H9613638   0.037   6.794   2.528  1.5815  0.5362  0.8450
  112MOL    H9713639   0.189   6.709   2.543  0.4156  0.9996  0.8855
  112MOL    C9813640   0.048   6.589   2.449 -0.6723 -0.1844  0.3398
  112MOL    C9913641   0.120   6.590   2.313 -0.4997 -0.4916 -0.0335
  112MOL   H10013642   0.063   6.494   2.499  1.3917 -1.2465 -2.1813
  112MOL   H10113643   7.632   6.595   2.435 -0.6057  1.4646  0.3877
  112MOL   H10213644   0.094   6.683   2.262 -1.0956 -0.5854  0.0913
  112MOL   H10313645   0.228   6.581   2.323 -0.7255 -2.3530  0.9736
  112MOL   C10413646   0.073   6.474   2.218 -0.4318  0.1916  0.4831
  112MOL   C10513647   0.173   6.448   2.099 -0.6462 -0.3343 -0.6516
  112MOL   H10613648   0.055   6.385   2.278  0.9124 -0.4436 -0.0382
  112MOL   H10713649   7.664   6.502   2.185 -0.4698 -1.1650 -0.5869
  112MOL   H10813650   0.167   6.538   2.037  0.8797 -0.0368 -0.3727
  112MOL   H10913651   0.273   6.427   2.135 -1.0401 -1.5444 -0.2359
  112MOL   C11013652   0.127   6.321   2.025 -0.3373 -0.1241  0.3481
  112MOL   C11113653   0.208   6.304   1.894  0.2386 -0.3333  0.1234
  112MOL   H11213654   0.133   6.233   2.089  0.3402 -1.3320 -1.3386
  112MOL   H11313655   0.019   6.322   2.009 -0.7509 -2.8728  2.4964
  112MOL   H11413656   0.206   6.397   1.838 -0.0278 -1.6631 -2.1140
  112MOL   H11513657   0.310   6.290   1.928  0.1681  1.1398  0.9975
  112MOL   C11613658   0.164   6.197   1.799 -0.0603 -0.0552 -0.4166
  112MOL   C11713659   0.223   6.185   1.659 -0.1547 -0.3192  0.2260
  112MOL   H11813660   0.158   6.100   1.848 -0.2647  0.5709  0.8257
  112MOL   H11913661   0.057   6.210   1.781  0.0697  2.1815  0.2627
  112MOL   H12013662   0.216   6.278   1.603 -2.4803 -0.1061  0.8377
  112MOL   H12113663   0.326   6.149   1.655 -0.2186 -0.5121  0.2890
  112MOL   H12213664   0.170   6.110   1.600 -2.0902  0.9580  0.3380
  113MOL     C113665   5.938   0.433   0.879 -0.0816  0.3645 -0.3347
  113MOL     C213666   6.068   0.506   0.880 -0.0753  0.2223  0.6227
  113MOL     H313667   5.887   0.475   0.965  0.6725 -1.8752  1.2489
  113MOL     H413668   5.933   0.327   0.903  0.9742  0.8170  1.9093
  113MOL     H513669   6.120   0.490   0.975  3.1149  1.4935 -0.8302
  113MOL     H613670   6.132   0.469   0.800  0.5613  2.0243  0.2791
  113MOL     H713671   5.874   0.454   0.793  1.7497 -0.2817 -1.8800
  113MOL     C813672   6.061   0.650   0.852  0.8890  0.2697  0.2149
  113MOL     C913673   6.188   0.724   0.879  0.2379  0.4783  0.1120
  113MOL    H1013674   6.025   0.673   0.752  0.7315  0.1212  0.2378
  113MOL    H1113675   5.975   0.697   0.902  1.8359  1.7563  0.4818
  113MOL    H1213676   6.271   0.691   0.816  1.7071  0.8821  1.7920
  113MOL    H1313677   6.172   0.827   0.846 -0.4584  0.0824 -0.7782
  113MOL    C1413678   6.228   0.724   1.027  0.3230 -0.4216  0.3461
  113MOL    C1513679   6.263   0.861   1.085  0.2421  0.3567  0.0374
  113MOL    H1613680   6.157   0.683   1.099  0.8188 -0.0702  1.0388
  113MOL    H1713681   6.318   0.664   1.042  0.0287 -0.5112  1.8792
  113MOL    H1813682   6.339   0.920   1.033 -0.6205 -0.1619 -1.8195
  113MOL    H1913683   6.173   0.922   1.093  0.3389  0.4848  0.1561
  113MOL    C2013684   6.325   0.844   1.229 -0.1605  0.7913 -0.2473
  113MOL    C2113685   6.316   0.969   1.314 -0.4917  0.4045  0.1235
  113MOL    H2213686   6.269   0.766   1.281 -0.1132  0.1998 -1.0695
  113MOL    H2313687   6.430   0.816   1.219 -0.1355  0.3643  1.1811
  113MOL    H2413688   6.341   1.058   1.256 -3.0037  1.6936  0.9120
  113MOL    H2513689   6.211   0.990   1.335 -0.0318  1.3381  1.5826
  113MOL    C2613690   6.399   0.955   1.443 -0.4290 -0.1448  0.4472
  113MOL    C2713691   6.394   1.080   1.534 -0.4528  0.0386  0.4105
  113MOL    H2813692   6.351   0.875   1.498 -2.8678 -1.3727 -3.2463
  113MOL    H2913693   6.494   0.917   1.407 -0.9149 -0.8793 -0.0699
  113MOL    H3013694   6.446   1.157   1.476  1.2230 -3.4791 -3.0245
  113MOL    H3113695   6.292   1.114   1.548 -1.5096 -1.4173 -3.1522
  113MOL    C3213696   6.452   1.059   1.673  0.1370 -0.5733  0.3693
  113MOL    C3313697   6.413   1.168   1.786 -0.5889  0.2639 -0.6354
  113MOL    H3413698   6.401   0.969   1.709 -2.3325  0.8435  0.4681
  113MOL    H3513699   6.561   1.056   1.668  0.0704 -0.4513 -1.5765
  113MOL    H3613700   6.459   1.265   1.767  0.8447 -0.3821 -0.5497
  113MOL    H3713701   6.304   1.170   1.787 -0.6224 -1.8186  1.3428
  113MOL    C3813702   6.470   1.131   1.922  0.1562  0.0422 -0.5126
  113MOL    C3913703   6.425   1.200   2.052  0.2322  0.3113  0.1999
  113MOL    H4013704   6.425   1.034   1.945  0.4814  0.3448  1.5134
  113MOL    H4113705   6.578   1.122   1.910  0.1642  1.2868 -1.4080
  113MOL    H4213706   6.464   1.302   2.050  0.4410  0.2383  0.4318
  113MOL    H4313707   6.316   1.206   2.050  0.1197 -1.7607 -2.8286
  113MOL    C4413708   6.480   1.144   2.188  0.1632 -0.2968 -0.4209
  113MOL    C4513709   6.405   1.203   2.309 -0.4106 -0.0946 -0.1522
  113MOL    H4613710   6.469   1.036   2.185  1.0536 -0.4203  0.4991
  113MOL    H4713711   6.583   1.177   2.197 -0.4274  1.0532  1.7665
  113MOL    H4813712   6.462   1.205   2.402 -0.5379  0.9175 -0.0936
  113MOL    H4913713   6.378   1.306   2.286  0.9703 -0.2365 -2.6354
  113MOL    C5013714   6.272   1.126   2.332 -0.1934  1.1109 -0.3456
  113MOL    C5113715   6.186   1.177   2.449 -1.0120  0.0682  0.2473
  113MOL    H5213716   6.219   1.138   2.238 -2.3644 -1.0202  0.5339
  113MOL    H5313717   6.286   1.019   2.350 -0.2242  0.7522 -2.3261
  113MOL    H5413718   6.229   1.154   2.547 -1.9218  1.3827  0.9672
  113MOL    H5513719   6.186   1.286   2.450  0.1861  0.0766 -0.4698
  113MOL    C5613720   6.037   1.138   2.447  0.5039  0.6366  0.2206
  113MOL    C5713721   5.960   1.179   2.571 -0.0274 -0.6521  0.2508
  113MOL    H5813722   5.988   1.180   2.359  1.0068  0.6903 -0.0353
  113MOL    H5913723   6.012   1.032   2.436  1.2334  0.5547 -0.7758
  113MOL    H6013724   6.003   1.273   2.606 -0.2665 -0.7571  0.8478
  113MOL    H6113725   5.855   1.194   2.545 -0.2793  0.2309  1.7024
  113MOL    C6213726   5.982   1.068   2.679  0.0413 -0.4503  0.1749
  113MOL    C6313727   5.954   1.101   2.827 -0.3914  0.0588  0.1991
  113MOL    H6413728   5.935   0.973   2.654 -0.2403 -0.0987 -0.6386
  113MOL    H6513729   6.086   1.035   2.680  0.2594  0.1797 -1.5596
  113MOL    H6613730   5.875   1.175   2.831  0.2644  0.6780  3.7296
  113MOL    H6713731   5.912   1.011   2.872 -1.5994  0.4025 -0.2182
  113MOL    C6813732   6.073   1.155   2.906 -0.6379 -0.3579 -0.4829
  113MOL    C6913733   6.047   1.166   3.058  0.1261  0.1354 -0.4279
  113MOL    H7013734   6.168   1.103   2.894 -1.5571 -2.5350  1.3050
  113MOL    H7113735   6.100   1.252   2.863 -2.9170 -0.5135 -2.3125
  113MOL    H7213736   5.951   1.215   3.068 -1.1888 -2.1500 -1.4604
  113MOL    H7313737   6.015   1.066   3.088  1.1083  0.0340  0.3083
  113MOL    C7413738   6.154   1.244   3.127 -0.0695  0.1702 -0.0882
  113MOL    C7513739   6.120   1.263   3.272  0.4268 -0.2640  0.2285
  113MOL    H7613740   6.246   1.187   3.120 -1.3934 -1.8608 -1.5884
  113MOL    H7713741   6.173   1.342   3.081 -1.8846  0.0839 -1.0785
  113MOL    H7813742   6.018   1.298   3.284  0.2085 -1.0418  0.6696
  113MOL    H7913743   6.111   1.162   3.314 -1.0664 -0.6019 -0.8765
  113MOL    C8013744   6.229   1.336   3.353  0.0557  0.6292 -0.4098
  113MOL    C8113745   6.173   1.365   3.495 -0.2693  0.5654  0.9739
  113MOL    H8213746   6.323   1.282   3.361  0.4572  1.4192  0.2707
  113MOL    H8313747   6.249   1.433   3.307 -0.5942  0.7329 -0.4822
  113MOL    H8413748   6.084   1.427   3.497 -0.5943  0.2620 -1.7231
  113MOL    H8513749   6.144   1.274   3.548  3.3351 -0.4719  1.3658
  113MOL    C8613750   6.280   1.428   3.587  0.8859 -0.4995 -0.2502
  113MOL    C8713751   6.350   1.549   3.526 -0.1065  0.3970  0.1783
  113MOL    H8813752   6.236   1.448   3.685 -0.2675 -1.3465 -0.5906
  113MOL    H8913753   6.353   1.348   3.601 -0.2697 -1.8588 -1.7567
  113MOL    H9013754   6.432   1.591   3.583 -0.1185 -0.6830  0.9827
  113MOL    H9113755   6.405   1.527   3.434  1.0115  0.0349  0.9312
  113MOL    C9213756   6.245   1.670   3.511  0.5005  0.2315  0.0653
  113MOL    C9313757   6.287   1.771   3.396 -0.2619  0.2922  0.0836
  113MOL    H9413758   6.145   1.643   3.477  0.4677 -0.0161  0.3620
  113MOL    H9513759   6.246   1.721   3.607 -1.9390 -1.5957  1.1038
  113MOL    H9613760   6.379   1.823   3.424  0.5802 -0.5987 -0.9340
  113MOL    H9713761   6.325   1.712   3.312  0.1932  0.6545  0.0292
  113MOL    C9813762   6.172   1.863   3.355 -0.1370 -0.3584  0.5576
  113MOL    C9913763   6.156   1.987   3.446 -0.2065  0.0246 -0.6820
  113MOL   H10013764   6.194   1.894   3.253 -0.1691  0.4975  0.8085
  113MOL   H10113765   6.083   1.808   3.326  0.0557  0.8964 -2.5989
  113MOL   H10213766   6.079   2.041   3.390 -1.0152 -1.0649 -0.6294
  113MOL   H10313767   6.124   1.947   3.542 -0.3067  1.1767 -0.2283
  113MOL   C10413768   6.273   2.086   3.453  0.2700  0.1553 -0.0897
  113MOL   C10513769   6.243   2.188   3.558  0.4374 -0.3885  0.4267
  113MOL   H10613770   6.373   2.047   3.472 -0.2183  0.2665  3.0133
  113MOL   H10713771   6.285   2.140   3.360  0.0012  0.4919  0.0713
  113MOL   H10813772   6.142   2.219   3.529  1.1023  2.5519  1.0229
  113MOL   H10913773   6.223   2.143   3.655  1.0423 -2.0006 -0.1937
  113MOL   C11013774   6.331   2.313   3.572 -0.5431 -0.0781 -0.0423
  113MOL   C11113775   6.458   2.280   3.658  0.5934 -0.0078  0.5855
  113MOL   H11213776   6.374   2.346   3.477  0.9487 -3.0087 -0.4408
  113MOL   H11313777   6.287   2.406   3.607 -0.3249  0.2008 -0.5028
  113MOL   H11413778   6.422   2.245   3.755  1.0659 -1.1044  0.3670
  113MOL   H11513779   6.523   2.203   3.617  0.2817  1.1204 -2.1582
  113MOL   C11613780   6.550   2.398   3.691 -0.4931 -0.5683  0.3641
  113MOL   C11713781   6.670   2.362   3.776 -0.0860 -0.0885  0.2125
  113MOL   H11813782   6.577   2.436   3.592  1.0267 -0.8749  0.6451
  113MOL   H11913783   6.489   2.474   3.740  2.3480  1.8055  0.4272
  113MOL   H12013784   6.640   2.318   3.871  1.2977 -0.4154  0.5136
  113MOL   H12113785   6.726   2.283   3.726 -0.3835 -0.9866  1.2835
  113MOL   H12213786   6.738   2.447   3.777 -2.2015  1.6783 -0.9167
  114MOL     C113787   2.094   7.312   5.793 -0.0041 -0.1654  0.5116
  114MOL     C213788   2.155   7.428   5.876 -0.2147  0.2121  0.4377
  114MOL     H313789   2.161   7.290   5.709  0.6694 -0.1556  1.0437
  114MOL     H413790   1.994   7.342   5.763  1.0402  0.4637 -2.6011
  114MOL     H513791   2.261   7.406   5.884  0.1168  2.0727  1.4600
  114MOL     H613792   2.142   7.514   5.811  0.7699 -1.5181 -2.1018
  114MOL     H713793   2.091   7.219   5.849  0.8198 -0.3358  0.2815
  114MOL     C813794   2.102   7.448   6.012  0.0737  0.1351  0.0350
  114MOL     C913795   1.977   7.527   6.031 -0.1634  0.2496 -0.5535
  114MOL    H1013796   2.087   7.349   6.056 -1.3742  0.2173 -0.2359
  114MOL    H1113797   2.181   7.498   6.068 -0.1927  3.6103 -2.5509
  114MOL    H1213798   1.997   7.617   5.972  2.4437 -1.3403 -2.1974
  114MOL    H1313799   1.884   7.492   5.988  0.2998 -0.3001 -1.1197
  114MOL    C1413800   1.937   7.550   6.172  0.7128 -0.2580  0.7088
  114MOL    C1513801   1.824   7.650   6.198 -0.9113  0.2531 -0.6903
  114MOL    H1613802   1.917   7.454   6.221 -0.6583 -0.7584 -0.7833
  114MOL    H1713803   2.021   7.599   6.221  1.5438 -1.3264  0.3778
  114MOL    H1813804   1.859   0.035   6.128  1.5445 -0.1677  0.0108
  114MOL    H1913805   1.731   7.609   6.160 -1.8023  1.2946  0.3308
  114MOL    C2013806   1.815   0.009   6.340 -0.8149  0.8424 -0.2227
  114MOL    C2113807   1.811   7.587   6.438 -0.4619  0.6431 -0.1483
  114MOL    H2213808   1.890   0.086   6.359  1.1630 -0.7857 -1.1800
  114MOL    H2313809   1.727   0.072   6.335  0.6467  3.1487  1.9099
  114MOL    H2413810   1.754   7.514   6.380  0.6905  0.4191 -1.0254
  114MOL    H2513811   1.907   7.539   6.455 -2.6906 -3.2361  2.4043
  114MOL    C2613812   1.752   7.625   6.576 -0.0570 -0.7930 -0.0510
  114MOL    C2713813   1.835   0.012   6.674 -0.4136 -0.0147 -0.5397
  114MOL    H2813814   1.656   7.669   6.548  0.0447 -1.2177 -1.1130
  114MOL    H2913815   1.734   7.528   6.621  0.7651 -0.3283  1.3031
  114MOL    H3013816   1.934   7.661   6.688  0.3742  2.1425  0.9010
  114MOL    H3113817   1.864   0.108   6.631 -0.7357  0.6741  0.7356
  114MOL    C3213818   1.772   0.033   6.814  0.1422 -0.3637  0.5678
  114MOL    C3313819   1.873   0.061   6.923  0.3292  0.2525 -0.6041
  114MOL    H3413820   1.698   0.113   6.811  2.5975  1.9211 -0.3886
  114MOL    H3513821   1.715   7.636   6.843 -3.0476  1.6090  0.5859
  114MOL    H3613822   1.926   7.664   6.957  2.0223  1.8892  1.1833
  114MOL    H3713823   1.955   0.121   6.883  0.2214  0.9809  0.2511
  114MOL    C3813824   1.814   0.117   7.044 -1.0527 -0.1346 -0.8499
  114MOL    C3913825   1.904   0.094   7.160 -0.0387 -0.0667  0.6972
  114MOL    H4013826   1.801   0.225   7.032  1.1854  0.3688  0.9745
  114MOL    H4113827   1.721   0.064   7.066  0.0148 -0.8950  2.1104
  114MOL    H4213828   1.919   7.679   7.179  0.4662  0.2143  1.9614
  114MOL    H4313829   2.008   0.114   7.134  0.1580 -1.5530  0.3131
  114MOL    C4413830   1.848   0.147   7.297  0.2800  0.8867 -0.1988
  114MOL    C4513831   1.937   0.125   7.423 -0.1344 -0.4057  0.0463
  114MOL    H4613832   1.815   0.251   7.294  0.8650  1.0906  0.3969
  114MOL    H4713833   1.759   0.087   7.317  2.3166 -1.5513  2.0278
  114MOL    H4813834   1.998   0.035   7.420 -0.2721 -0.5276  0.7023
  114MOL    H4913835   2.011   0.205   7.419 -0.4170 -0.1645 -0.3716
  114MOL    C5013836   1.871   0.122   7.562 -0.1706  0.0988 -0.3881
  114MOL    C5113837   1.965   0.081   7.676  0.1480 -0.1645  0.2302
  114MOL    H5213838   1.807   0.209   7.577  0.1867  0.2119  0.5148
  114MOL    H5313839   1.796   0.045   7.548 -0.8249  0.3089  1.8373
  114MOL    H5413840   2.015   7.678   7.656  1.1400  0.3502  0.2124
  114MOL    H5513841   2.044   0.155   7.690 -1.0147  0.9352  1.0528
  114MOL    C5613842   1.888   0.065   0.117  0.7480 -0.2381 -0.1290
  114MOL    C5713843   1.983   0.013   0.228  0.2992 -0.3298  0.2856
  114MOL    H5813844   1.844   0.158   0.152 -0.8102 -1.0196  0.0222
  114MOL    H5913845   1.812   7.683   0.094  0.5030 -0.3479  0.9845
  114MOL    H6013846   2.044   7.626   0.185 -0.8804  0.2345 -2.5421
  114MOL    H6113847   2.060   0.090   0.237  0.3445 -0.0876 -1.7623
  114MOL    C6213848   1.902   7.678   0.359  0.0606  0.0273  0.2232
  114MOL    C6313849   1.988   7.645   0.484  0.2742  0.1808  0.2703
  114MOL    H6413850   1.836   0.071   0.375  1.2408  0.7411  1.3442
  114MOL    H6513851   1.841   7.589   0.341  0.4120 -0.2586  0.4138
  114MOL    H6613852   2.034   7.548   0.470  2.1673  1.1489 -0.3606
  114MOL    H6713853   2.068   0.027   0.481  1.4833 -1.1180  0.4565
  114MOL    C6813854   1.895   7.647   0.613 -0.3057  0.7533 -0.1962
  114MOL    C6913855   1.854   0.094   0.660  0.2945 -0.0722 -0.6813
  114MOL    H7013856   1.799   7.595   0.606 -0.4507  0.7343  1.6126
  114MOL    H7113857   1.951   7.593   0.689  0.5654  1.0336 -0.6353
  114MOL    H7213858   1.935   0.161   0.635  1.7378 -1.5465 -0.0484
  114MOL    H7313859   1.767   0.129   0.604 -0.2212 -1.6092 -0.8910
  114MOL    C7413860   1.814   0.115   0.803 -0.3918  1.0258  0.7038
  114MOL    C7513861   1.696   0.027   0.845 -0.4986 -0.3941 -1.1415
  114MOL    H7613862   1.893   0.088   0.874 -0.5396 -2.4140 -0.3177
  114MOL    H7713863   1.782   0.219   0.802 -2.0858  0.5164  0.7685
  114MOL    H7813864   1.619   0.029   0.768 -1.4723 -0.8509 -0.2090
  114MOL    H7913865   1.726   7.615   0.857  1.3513 -0.1466 -3.3754
  114MOL    C8013866   1.634   0.072   0.984 -0.3401 -1.1897 -0.0313
  114MOL    C8113867   1.541   0.201   0.988 -0.3870  0.2436  0.2548
  114MOL    H8213868   1.571   7.682   1.019 -1.5970  0.3844  1.4943
  114MOL    H8313869   1.701   0.088   1.068 -0.6119  0.8017 -0.1732
  114MOL    H8413870   1.614   0.281   0.976  0.1234 -0.2701 -0.1469
  114MOL    H8513871   1.477   0.200   0.900  0.9201  0.7976 -0.7320
  114MOL    C8613872   1.471   0.223   1.113  0.5874 -0.3510 -0.6625
  114MOL    C8713873   1.351   0.313   1.089  0.7244 -0.4167  0.1234
  114MOL    H8813874   1.442   0.127   1.156  0.5389 -0.3430 -0.6762
  114MOL    H8913875   1.532   0.278   1.184 -2.0115  1.5203  0.1916
  114MOL    H9013876   1.385   0.411   1.056  0.7398  0.5947  3.0073
  114MOL    H9113877   1.297   0.259   1.011 -1.7986  1.5234  0.4628
  114MOL    C9213878   1.251   0.319   1.209 -0.0441  0.2385 -0.5080
  114MOL    C9313879   1.130   0.426   1.202  0.5473 -0.3292  0.0474
  114MOL    H9413880   1.203   0.221   1.214 -1.8609  1.1520  0.3286
  114MOL    H9513881   1.304   0.340   1.302  1.0933  0.4909 -1.2088
  114MOL    H9613882   1.150   0.530   1.229 -2.2465  0.4409 -0.7447
  114MOL    H9713883   1.089   0.430   1.102  2.7154  2.1898 -0.7801
  114MOL    C9813884   1.024   0.398   1.314 -0.2268  0.0714 -0.6049
  114MOL    C9913885   0.912   0.497   1.315 -0.5347 -0.7317 -0.0248
  114MOL   H10013886   0.986   0.298   1.290 -0.2649 -0.6848  2.3237
  114MOL   H10113887   1.075   0.381   1.409 -0.5449 -2.9790 -0.9289
  114MOL   H10213888   0.862   0.491   1.219 -2.1510  0.6260  0.6994
  114MOL   H10313889   0.830   0.484   1.386 -2.0481  0.0482 -1.5899
  114MOL   C10413890   0.957   0.646   1.354  0.5040 -0.2418 -0.2582
  114MOL   C10513891   0.840   0.734   1.420 -0.2508  0.0542  0.0192
  114MOL   H10613892   1.032   0.626   1.432 -0.3227 -0.4468  0.4885
  114MOL   H10713893   1.004   0.703   1.274  0.4123 -0.8649 -0.7597
  114MOL   H10813894   0.803   0.675   1.503 -1.4209 -0.5806 -0.9368
  114MOL   H10913895   0.883   0.830   1.447 -0.3204 -0.0063  0.3380
  114MOL   C11013896   0.723   0.769   1.328 -0.1405  0.0870  0.5007
  114MOL   C11113897   0.624   0.862   1.414 -0.5499  0.4466 -0.6890
  114MOL   H11213898   0.763   0.806   1.234 -0.8084 -0.4794 -0.0150
  114MOL   H11313899   0.675   0.677   1.293 -0.5135 -0.1294  1.5357
  114MOL   H11413900   0.597   0.797   1.497  0.3136 -0.6780 -1.2745
  114MOL   H11513901   0.687   0.942   1.455 -2.0934  0.0806  2.5805
  114MOL   C11613902   0.492   0.903   1.345 -0.1147 -0.5196  0.1249
  114MOL   C11713903   0.507   1.018   1.254  0.1999  0.0086  0.1094
  114MOL   H11813904   0.447   0.818   1.292  1.0909 -1.3967  0.4730
  114MOL   H11913905   0.423   0.930   1.424  0.3061 -1.8928  0.9853
  114MOL   H12013906   0.417   1.047   1.200 -0.4384 -0.0310  1.1521
  114MOL   H12113907   0.531   1.115   1.298  1.4511  0.7385 -2.1177
  114MOL   H12213908   0.589   1.002   1.183  0.4704 -3.1919  1.0876
  115MOL     C113909   2.366   3.468   6.214  0.1182 -0.0534  0.7390
  115MOL     C213910   2.233   3.472   6.277 -0.3763 -0.0917  0.7874
  115MOL     H313911   2.397   3.365   6.193 -3.5819 -1.1700  0.4753
  115MOL     H413912   2.443   3.498   6.285  1.8360 -1.0579 -0.6535
  115MOL     H513913   2.155   3.457   6.203  1.0946  0.0328 -0.8101
  115MOL     H613914   2.227   3.394   6.353 -0.8774 -1.0026 -0.1739
  115MOL     H713915   2.382   3.537   6.131  0.3076  1.1921  1.7864
  115MOL     C813916   2.204   3.610   6.346  0.1312  0.6143  0.2920
  115MOL     C913917   2.239   3.617   6.497 -0.5213  0.4303  0.8361
  115MOL    H1013918   2.260   3.694   6.305  1.1179  0.4306  1.2336
  115MOL    H1113919   2.097   3.625   6.334 -0.0674 -0.2721  0.9153
  115MOL    H1213920   2.178   3.538   6.541 -1.3812 -0.1891 -1.3965
  115MOL    H1313921   2.344   3.587   6.500 -0.7098 -0.2151  1.1152
  115MOL    C1413922   2.222   3.761   6.544  0.3612 -0.3545  0.2575
  115MOL    C1513923   2.234   3.779   6.697  0.4336 -0.8156 -0.2634
  115MOL    H1613924   2.303   3.817   6.498  1.7025 -1.8790  0.7258
  115MOL    H1713925   2.126   3.792   6.502  0.5598  1.6474  1.2148
  115MOL    H1813926   2.139   3.747   6.741  0.6019  0.1704  0.8540
  115MOL    H1913927   2.313   3.727   6.751 -1.6267 -2.9332  0.8378
  115MOL    C2013928   2.240   3.929   6.736 -0.6531 -0.4148  0.1716
  115MOL    C2113929   2.237   3.958   6.887  0.4158  0.2680  0.1602
  115MOL    H2213930   2.338   3.972   6.715  0.6908 -1.5954  3.6068
  115MOL    H2313931   2.166   3.980   6.674 -0.9458 -2.2575 -1.0093
  115MOL    H2413932   2.142   3.920   6.924  0.8737 -0.1703  0.8822
  115MOL    H2513933   2.325   3.904   6.921  0.6926  1.0313  0.6670
  115MOL    C2613934   2.246   4.111   6.918  0.0733  0.6502  0.4954
  115MOL    C2713935   2.243   4.143   7.066  0.2258  0.1942 -0.0705
  115MOL    H2813936   2.332   4.166   6.879 -2.2416  3.0979 -1.3562
  115MOL    H2913937   2.173   4.163   6.856  1.0243  1.8925  0.4002
  115MOL    H3013938   2.221   4.249   7.068  2.4770  0.7487 -2.6912
  115MOL    H3113939   2.159   4.088   7.108 -0.5130  1.2976 -0.0985
  115MOL    C3213940   2.376   4.100   7.133  0.5611 -0.2770 -0.1276
  115MOL    C3313941   2.389   4.156   7.267 -0.5164  0.2633 -0.8246
  115MOL    H3413942   2.405   3.995   7.131 -0.0920 -0.4462 -0.6719
  115MOL    H3513943   2.458   4.141   7.074  0.1361 -1.2220 -1.3899
  115MOL    H3613944   2.360   4.261   7.273  0.9555  0.8912 -3.8967
  115MOL    H3713945   2.328   4.097   7.337 -0.1433  1.9465  0.9584
  115MOL    C3813946   2.528   4.143   7.322 -0.0916  0.0677 -0.0958
  115MOL    C3913947   2.542   4.196   7.461  0.7067 -0.6296  0.2438
  115MOL    H4013948   2.554   4.039   7.341  1.5546  0.8168  1.8317
  115MOL    H4113949   2.605   4.191   7.262 -1.4697  1.1991 -1.0053
  115MOL    H4213950   2.533   4.304   7.461 -0.1989 -0.6434 -3.5016
  115MOL    H4313951   2.471   4.158   7.535  0.5154 -1.6260 -0.4388
  115MOL    C4413952   2.680   4.162   7.519 -0.1483 -0.6424  0.1871
  115MOL    C4513953   2.692   4.207   7.663 -0.6082  0.6235 -0.1449
  115MOL    H4613954   2.685   4.053   7.511  0.5260 -0.7670  2.1515
  115MOL    H4713955   2.762   4.210   7.467 -0.0367 -3.3827 -2.2793
  115MOL    H4813956   2.671   4.314   7.663  1.5158  1.0762  0.2041
  115MOL    H4913957   2.623   4.145   0.029 -0.0598 -1.2874 -1.4940
  115MOL    C5013958   2.824   4.191   0.043 -0.5338  0.4246 -0.0194
  115MOL    C5113959   2.810   4.252   0.185 -0.2180 -0.1988 -0.0207
  115MOL    H5213960   2.850   4.086   0.042 -1.4271  0.2078 -0.7065
  115MOL    H5313961   2.901   4.239   7.675 -1.4765  0.6301 -1.0771
  115MOL    H5413962   2.813   4.361   0.185  0.9440 -0.2252 -0.9751
  115MOL    H5513963   2.716   4.218   0.229  0.5452 -0.8031  1.1926
  115MOL    C5613964   2.918   4.209   0.285 -0.8370  0.1489 -0.2867
  115MOL    C5713965   2.890   4.269   0.424  0.3071  0.0999  0.0891
  115MOL    H5813966   2.925   4.100   0.284  1.5213  0.1294 -6.2577
  115MOL    H5913967   3.017   4.243   0.255  0.2482 -0.7966  2.1201
  115MOL    H6013968   2.788   4.243   0.452  0.2332 -1.0789 -1.2108
  115MOL    H6113969   2.955   4.216   0.494 -0.8298 -3.4953 -1.4393
  115MOL    C6213970   2.917   4.418   0.435  0.1969  0.2192 -0.5425
  115MOL    C6313971   3.064   4.470   0.433  0.1304 -0.1367 -0.1685
  115MOL    H6413972   2.857   4.473   0.362 -0.0331 -1.2726 -1.4898
  115MOL    H6513973   2.867   4.442   0.529  1.4914 -1.2582  0.5488
  115MOL    H6613974   3.116   4.425   0.518 -1.2385 -0.9427  0.2620
  115MOL    H6713975   3.115   4.430   0.345  1.5717 -0.9870  1.0309
  115MOL    C6813976   3.061   4.623   0.430  0.0922 -0.3338 -0.5780
  115MOL    C6913977   3.194   4.687   0.447 -0.2962 -0.0239  0.0873
  115MOL    H7013978   3.032   4.655   0.330  1.2071 -0.4170 -0.9362
  115MOL    H7113979   3.001   4.670   0.508 -0.2935 -2.3086  0.3517
  115MOL    H7213980   3.232   4.670   0.547 -0.7965  2.9453  0.8325
  115MOL    H7313981   3.259   4.652   0.367 -0.9415 -1.3984  0.1544
  115MOL    C7413982   3.190   4.839   0.446 -0.1500  0.3191  0.2052
  115MOL    C7513983   3.326   4.912   0.409  0.0231  0.1533 -0.4851
  115MOL    H7613984   3.116   4.871   0.373 -1.0110 -3.2915 -0.5628
  115MOL    H7713985   3.145   4.875   0.539 -1.4003 -1.3235  0.2505
  115MOL    H7813986   3.397   4.863   0.476  0.5373  0.8412 -0.5161
  115MOL    H7913987   3.349   4.893   0.304 -0.6913 -0.7602 -0.4773
  115MOL    C8013988   3.321   5.064   0.428  0.1609 -0.2578  0.5314
  115MOL    C8113989   3.465   5.119   0.414 -0.0125  1.1834  0.1752
  115MOL    H8213990   3.261   5.100   0.345  3.1307  0.3690 -1.4127
  115MOL    H8313991   3.281   5.088   0.527 -0.7129 -1.3708  0.4468
  115MOL    H8413992   3.525   5.053   0.352 -1.6552  0.3018 -0.5053
  115MOL    H8513993   3.457   5.215   0.363 -2.5845  0.2424 -1.2538
  115MOL    C8613994   3.527   5.129   0.552 -0.7133  0.0857  0.1657
  115MOL    C8713995   3.670   5.184   0.553 -0.8000  0.6227 -0.3978
  115MOL    H8813996   3.479   5.208   0.609  1.3169  1.8583 -0.4862
  115MOL    H8913997   3.523   5.041   0.616  1.7385 -0.7483 -0.7484
  115MOL    H9013998   3.733   5.122   0.489  0.8445  1.3394  0.4749
  115MOL    H9113999   3.677   5.278   0.498  2.5755  0.4964 -0.2794
  115MOL    C9214000   3.736   5.184   0.693  0.5001 -0.5222 -0.6929
  115MOL    C9314001   3.892   5.199   0.697 -0.3130  0.4760  0.5820
  115MOL    H9414002   3.695   5.268   0.749 -1.2448 -1.4461 -0.5677
  115MOL    H9514003   3.724   5.091   0.748  0.1769  1.1460  2.1380
  115MOL    H9614004   3.940   5.121   0.637 -2.9684 -0.6868 -0.1002
  115MOL    H9714005   3.913   5.289   0.640 -0.9806  0.2270 -0.0756
  115MOL    C9814006   3.945   5.215   0.842 -0.4505 -0.4648  0.5220
  115MOL    C9914007   4.093   5.236   0.861  0.0439  0.1197 -0.6148
  115MOL   H10014008   3.895   5.306   0.876  0.4317  0.2816 -0.1434
  115MOL   H10114009   3.906   5.137   0.907  1.8805 -1.4137  0.8473
  115MOL   H10214010   4.148   5.144   0.881  1.1886  1.3175  1.9983
  115MOL   H10314011   4.131   5.277   0.767  2.2972 -1.1367 -0.2954
  115MOL   C10414012   4.129   5.330   0.982  0.3573 -0.2463 -0.2676
  115MOL   C10514013   4.282   5.343   0.986 -0.1419 -0.7887  0.4877
  115MOL   H10614014   4.076   5.425   0.982  0.9905  0.1248  1.4225
  115MOL   H10714015   4.084   5.280   1.068  1.4734  2.6181  2.0666
  115MOL   H10814016   4.331   5.247   0.971 -0.1446 -1.0694  2.1871
  115MOL   H10914017   4.316   5.412   0.909  1.1501 -1.9713  0.0034
  115MOL   C11014018   4.324   5.389   1.121  0.4395 -1.3642  0.5231
  115MOL   C11114019   4.477   5.393   1.157 -0.9120  0.1721 -0.3477
  115MOL   H11214020   4.289   5.491   1.131  0.9200 -1.0359 -1.0062
  115MOL   H11314021   4.271   5.326   1.192 -1.1303 -0.7212 -0.0716
  115MOL   H11414022   4.495   5.444   1.251 -0.9246 -0.8619  0.2241
  115MOL   H11514023   4.515   5.291   1.160 -2.3004 -0.3516 -0.0452
  115MOL   C11614024   4.554   5.483   1.050 -0.4498  0.5479  0.2892
  115MOL   C11714025   4.696   5.528   1.078  0.0398 -0.9694  0.4394
  115MOL   H11814026   4.564   5.422   0.961  2.4354  0.1777  0.8363
  115MOL   H11914027   4.490   5.570   1.032 -0.2096 -0.0285 -3.7260
  115MOL   H12014028   4.765   5.446   1.096  0.0805 -1.3297 -1.3573
  115MOL   H12114029   4.726   5.593   0.997 -0.4133 -2.2063 -0.7413
  115MOL   H12214030   4.701   5.595   1.164  0.6368  0.7777 -0.9575
  116MOL     C114031   6.421   1.253   5.277 -0.5133  0.6192  0.3882
  116MOL     C214032   6.516   1.297   5.168 -0.2602  0.1017  0.8029
  116MOL     H314033   6.324   1.220   5.240 -0.9779  2.3196  0.0531
  116MOL     H414034   6.392   1.336   5.341 -2.0014  0.3865  0.0131
  116MOL     H514035   6.535   1.217   5.097  3.5753 -0.0998  1.9124
  116MOL     H614036   6.463   1.369   5.107 -0.1794 -1.2384 -0.8996
  116MOL     H714037   6.459   1.163   5.326 -0.3189 -0.0186 -0.9127
  116MOL     C814038   6.646   1.366   5.219 -0.0622  0.0763 -0.0019
  116MOL     C914039   6.625   1.474   5.323 -0.1798 -0.1555  0.2664
  116MOL    H1014040   6.715   1.292   5.260  2.6043  1.8197 -1.2161
  116MOL    H1114041   6.690   1.414   5.132 -0.1139  1.4873  0.7447
  116MOL    H1214042   6.561   1.547   5.275 -0.4611 -0.5023  0.1110
  116MOL    H1314043   6.570   1.428   5.405  1.6686  3.0139  3.4252
  116MOL    C1414044   6.752   1.533   5.382 -0.1032 -1.1860 -0.1676
  116MOL    C1514045   6.734   1.587   5.524  0.6914 -0.3305 -0.1996
  116MOL    H1614046   6.825   1.453   5.394  0.7241 -0.5196 -0.7345
  116MOL    H1714047   6.784   1.615   5.319 -2.5025 -1.0808 -1.3293
  116MOL    H1814048   6.702   1.517   5.601 -2.3411  0.3332 -0.8165
  116MOL    H1914049   6.822   1.636   5.566  1.0714  0.1750 -1.5607
  116MOL    C2014050   6.627   1.697   5.517  0.2239  0.2747 -0.1767
  116MOL    C2114051   6.600   1.780   5.650 -0.2117  0.3458  0.1949
  116MOL    H2214052   6.637   1.762   5.430 -1.7335  0.3034 -0.4137
  116MOL    H2314053   6.533   1.652   5.484  1.5849 -0.7934 -2.6979
  116MOL    H2414054   6.502   1.824   5.632  1.0461  3.1327 -0.0007
  116MOL    H2514055   6.583   1.720   5.739 -0.1144 -1.4498 -0.9629
  116MOL    C2614056   6.687   1.901   5.678 -0.3037  0.5203 -0.2733
  116MOL    C2714057   6.658   1.971   5.805  0.6051  0.1594  0.1369
  116MOL    H2814058   6.793   1.875   5.678  0.2130  2.3461  2.9292
  116MOL    H2914059   6.679   1.975   5.599 -2.2062  0.8652  0.2289
  116MOL    H3014060   6.550   1.987   5.804  0.3355 -1.1430  3.1924
  116MOL    H3114061   6.677   1.899   5.884 -2.1729 -0.3255  0.4123
  116MOL    C3214062   6.741   2.096   5.822  0.2722  0.0667  1.3106
  116MOL    C3314063   6.706   2.190   5.940 -0.8003  0.1641 -0.5817
  116MOL    H3414064   6.842   2.067   5.850  0.2587  0.8326  2.1708
  116MOL    H3514065   6.746   2.147   5.726  3.2395 -0.8392  0.9305
  116MOL    H3614066   6.790   2.260   5.933 -0.5548 -0.2726 -2.2988
  116MOL    H3714067   6.615   2.246   5.920 -1.0738  0.5906  1.7262
  116MOL    C3814068   6.707   2.118   6.069 -0.1314 -0.1721  0.2612
  116MOL    C3914069   6.688   2.224   6.185 -0.0772  0.1799  0.1701
  116MOL    H4014070   6.634   2.037   6.067  0.0848 -0.3922  1.2492
  116MOL    H4114071   6.805   2.071   6.081  0.2486 -0.1258 -2.3320
  116MOL    H4214072   6.764   2.300   6.171 -1.3080  2.0645  3.1492
  116MOL    H4314073   6.594   2.276   6.166 -0.7720 -0.1676  2.3959
  116MOL    C4414074   6.709   2.172   6.330 -0.5333  0.1497  0.3244
  116MOL    C4514075   6.835   2.232   6.403 -0.3962  0.0701 -0.2329
  116MOL    H4614076   6.623   2.208   6.386 -0.5622  0.5853  0.0071
  116MOL    H4714077   6.712   2.066   6.352  0.0467  0.9149  4.4684
  116MOL    H4814078   6.842   2.341   6.396 -0.1829  0.1552  1.1267
  116MOL    H4914079   6.834   2.217   6.511 -2.4792 -0.3487 -0.3010
  116MOL    C5014080   6.964   2.172   6.344 -0.3457  0.5127 -0.1582
  116MOL    C5114081   7.090   2.239   6.408 -0.1795 -0.3056 -0.2021
  116MOL    H5214082   6.958   2.064   6.358 -0.3062  0.3910 -1.0705
  116MOL    H5314083   6.972   2.194   6.238  3.6756  1.4531  0.2484
  116MOL    H5414084   7.094   2.343   6.374  0.4081  0.6448  2.6173
  116MOL    H5514085   7.069   2.250   6.515  2.8884  1.4476  0.2868
  116MOL    C5614086   7.222   2.153   6.385  0.3014  0.3166 -0.9148
  116MOL    C5714087   7.280   2.145   6.243  0.7044  0.0758  0.5183
  116MOL    H5814088   7.303   2.189   6.449 -0.8499 -1.3314  1.5583
  116MOL    H5914089   7.208   2.060   6.439 -2.1334 -0.6033 -3.0870
  116MOL    H6014090   7.198   2.134   6.173  0.4000 -0.8798  1.0200
  116MOL    H6114091   7.328   2.240   6.221  0.1611  0.4049  0.7331
  116MOL    C6214092   7.381   2.039   6.226  0.2403  0.2414  0.5164
  116MOL    C6314093   7.476   2.083   6.121  0.1526  0.1796  0.3306
  116MOL    H6414094   7.437   2.023   6.318 -0.6629 -0.7343  0.9165
  116MOL    H6514095   7.317   1.951   6.214 -0.3253  0.8727 -1.3483
  116MOL    H6614096   7.415   2.116   6.037 -0.0439 -0.3919  0.2435
  116MOL    H6714097   7.531   2.171   6.154  1.2209 -1.0413  1.8941
  116MOL    C6814098   7.580   1.978   6.074  0.4273  0.0646  0.6198
  116MOL    C6914099   7.686   2.024   5.980  0.5848 -0.4724  0.3532
  116MOL    H7014100   7.630   1.946   6.165  2.1047 -3.3187 -1.3868
  116MOL    H7114101   7.533   1.890   6.029  0.2180 -0.2886  1.5197
  116MOL    H7214102   0.038   1.927   5.957  0.3899 -0.0633 -1.9074
  116MOL    H7314103   7.644   2.058   5.885 -0.5625 -3.9816 -0.4691
  116MOL    C7414104   0.107   2.112   6.022 -0.5952 -0.3349  0.0625
  116MOL    C7514105   0.210   2.122   5.907 -0.4582 -0.2396  0.2207
  116MOL    H7614106   0.077   2.212   6.050  1.1793  0.7849 -1.8909
  116MOL    H7714107   0.155   2.059   6.105  0.9635  3.2899  1.5751
  116MOL    H7814108   0.257   2.025   5.894 -2.3970 -1.1750  0.0248
  116MOL    H7914109   0.160   2.128   5.810 -0.4551  2.1581  0.3245
  116MOL    C8014110   0.308   2.238   5.919 -0.9999 -0.2123 -0.6043
  116MOL    C8114111   0.419   2.236   5.811 -0.3718 -0.2426  0.2882
  116MOL    H8214112   0.264   2.338   5.919 -0.5212 -0.0000 -0.8719
  116MOL    H8314113   0.357   2.242   6.017 -3.3091  1.6561  0.5111
  116MOL    H8414114   0.511   2.279   5.853 -0.2783  0.9917 -1.1513
  116MOL    H8514115   0.446   2.132   5.792 -0.2128  0.2374 -2.2969
  116MOL    C8614116   0.380   2.312   5.682  0.6111 -0.1967  0.6998
  116MOL    C8714117   0.498   2.315   5.588 -0.5891 -0.4622  0.4780
  116MOL    H8814118   0.297   2.259   5.635  1.3432 -0.8596  0.1385
  116MOL    H8914119   0.364   2.418   5.701 -0.5291 -0.0120 -1.1216
  116MOL    H9014120   0.589   2.312   5.647 -0.8360 -2.8413  0.7884
  116MOL    H9114121   0.496   2.233   5.515 -0.7614  0.6092 -0.7407
  116MOL    C9214122   0.514   2.441   5.507 -0.0657 -0.5925 -0.1082
  116MOL    C9314123   0.628   2.425   5.403  0.6881  0.9065 -0.1807
  116MOL    H9414124   0.420   2.466   5.457 -0.3137  2.9195  1.9772
  116MOL    H9514125   0.540   2.525   5.571  3.3971 -1.3909 -0.3904
  116MOL    H9614126   0.707   2.359   5.439 -0.8249 -0.0022  1.5678
  116MOL    H9714127   0.594   2.361   5.321  0.4979 -0.6905  1.1089
  116MOL    C9814128   0.692   2.553   5.336  0.2272 -0.1508 -0.6094
  116MOL    C9914129   0.831   2.532   5.260  0.0784 -0.1783  0.2451
  116MOL   H10014130   0.621   2.609   5.275  0.6916 -0.7141 -1.6655
  116MOL   H10114131   0.709   2.627   5.414 -0.9255 -1.3786  0.8552
  116MOL   H10214132   0.906   2.491   5.328 -0.8060 -0.0111  1.3376
  116MOL   H10314133   0.829   2.462   5.177 -1.7148  2.3259 -1.9162
  116MOL   C10414134   0.885   2.670   5.205  0.7486 -0.5880 -0.1012
  116MOL   C10514135   0.992   2.648   5.093 -0.4545 -0.5249 -0.0003
  116MOL   H10614136   0.808   2.736   5.167 -0.2769 -2.3821 -1.1903
  116MOL   H10714137   0.927   2.736   5.282 -2.7774  1.1629  0.4151
  116MOL   H10814138   1.074   2.588   5.132  1.2901  0.5545 -1.9246
  116MOL   H10914139   0.950   2.593   5.008  1.2081  0.8354 -1.7439
  116MOL   C11014140   1.042   2.792   5.042 -0.0709  0.3517  0.1489
  116MOL   C11114141   1.156   2.785   4.924 -0.2499 -0.6721  0.3152
  116MOL   H11214142   0.948   2.842   5.019  1.8834  3.0081 -2.4390
  116MOL   H11314143   1.087   2.839   5.130 -2.5083 -0.0221  1.6572
  116MOL   H11414144   1.248   2.751   4.971 -0.2842 -0.5480  0.4699
  116MOL   H11514145   1.123   2.715   4.846  0.7541  0.2248 -0.9395
  116MOL   C11614146   1.184   2.917   4.850 -0.1488  0.4980 -0.0395
  116MOL   C11714147   1.298   2.907   4.749 -0.0871 -0.3224 -0.0308
  116MOL   H11814148   1.100   2.949   4.789  0.0603  2.8345  0.8592
  116MOL   H11914149   1.209   3.000   4.916 -0.9242  1.0942 -0.4911
  116MOL   H12014150   1.263   2.835   4.674 -0.2932  0.6926 -0.9149
  116MOL   H12114151   1.319   2.999   4.695  1.6788  0.4671  1.9329
  116MOL   H12214152   1.390   2.870   4.795  0.1305 -3.2024 -2.6678
  117MOL     C114153   1.260   4.069   3.198 -0.2479 -0.1848 -0.0408
  117MOL     C214154   1.213   3.945   3.276 -0.5560  0.7438 -0.4551
  117MOL     H314155   1.188   4.109   3.128  1.6330  0.4279 -1.6713
  117MOL     H414156   1.361   4.060   3.158  0.5391  0.2980  1.7744
  117MOL     H514157   1.139   3.974   3.351 -0.5748  0.7143 -0.4627
  117MOL     H614158   1.168   3.862   3.222 -0.1867  0.0314  0.3301
  117MOL     H714159   1.266   4.150   3.271  1.1142  0.2029 -0.5771
  117MOL     C814160   1.328   3.886   3.352 -0.5858 -0.2135 -0.4009
  117MOL     C914161   1.278   3.762   3.433 -0.3487 -0.2063 -0.0934
  117MOL    H1014162   1.408   3.861   3.283  1.3923 -1.2168  2.1785
  117MOL    H1114163   1.370   3.961   3.420 -2.1518  1.0471 -0.8027
  117MOL    H1214164   1.198   3.791   3.501 -2.0853 -2.4551 -1.1181
  117MOL    H1314165   1.229   3.696   3.362  1.6283  0.2063 -1.8707
  117MOL    C1414166   1.373   3.667   3.518  0.1011  0.5119 -0.7508
  117MOL    C1514167   1.302   3.549   3.578  0.3420 -0.3670  0.2642
  117MOL    H1614168   1.447   3.626   3.450  2.0549  0.8810  1.1295
  117MOL    H1714169   1.413   3.734   3.594  0.3542  0.7745 -1.1189
  117MOL    H1814170   1.228   3.604   3.637 -0.4744 -0.8542 -0.2907
  117MOL    H1914171   1.243   3.492   3.505 -0.1922 -0.8442  1.0602
  117MOL    C2014172   1.380   3.458   3.671  0.2477 -0.1108 -0.0967
  117MOL    C2114173   1.301   3.340   3.728  0.4246 -0.5478  0.1536
  117MOL    H2214174   1.465   3.409   3.624 -1.3481 -4.3138  1.2033
  117MOL    H2314175   1.410   3.519   3.757  1.3327 -1.6359  0.6429
  117MOL    H2414176   1.211   3.377   3.778  0.5498  0.4837 -0.3836
  117MOL    H2514177   1.259   3.268   3.658 -2.1877  0.4686  0.6131
  117MOL    C2614178   1.404   3.265   3.822  0.3913  0.5843  0.3662
  117MOL    C2714179   1.335   3.160   3.912 -0.5089  0.7263  0.4113
  117MOL    H2814180   1.483   3.218   3.763 -1.9208 -1.2042 -1.4216
  117MOL    H2914181   1.443   3.348   3.880  0.1264 -0.2806  1.8153
  117MOL    H3014182   1.259   3.192   3.983 -0.8638 -1.9176  1.2753
  117MOL    H3114183   1.280   3.090   3.848  0.0931  0.0806  0.5940
  117MOL    C3214184   1.439   3.072   3.987  0.4840 -0.0951 -0.0115
  117MOL    C3314185   1.377   3.002   4.109 -0.2860  0.4518  0.3402
  117MOL    H3414186   1.488   3.001   3.920 -2.0085 -0.9380 -0.9846
  117MOL    H3514187   1.526   3.127   4.022 -0.5824  0.0510  2.5208
  117MOL    H3614188   1.340   3.082   4.173  0.7204  0.0117  1.4834
  117MOL    H3714189   1.294   2.941   4.072 -0.6502 -1.1932  3.6915
  117MOL    C3814190   1.466   2.905   4.190  0.0799 -0.5852  0.4446
  117MOL    C3914191   1.400   2.858   4.320 -1.0500 -1.0421  0.4039
  117MOL    H4014192   1.491   2.816   4.133  0.1622  0.5485 -1.3000
  117MOL    H4114193   1.562   2.956   4.201 -0.4632  0.7042 -0.6751
  117MOL    H4214194   1.460   2.785   4.373  0.1553  0.2294  0.8252
  117MOL    H4314195   1.377   2.943   4.384 -0.3118  0.5643 -1.4143
  117MOL    C4414196   1.266   2.793   4.288  0.2012 -0.8140 -0.0958
  117MOL    C4514197   1.190   2.763   4.417 -0.3240 -0.6319 -0.0530
  117MOL    H4614198   1.204   2.860   4.227 -1.4668  0.6217  3.0853
  117MOL    H4714199   1.288   2.701   4.234  0.2112 -1.9296  1.7704
  117MOL    H4814200   1.263   2.716   4.483  0.5697  0.8714  0.0414
  117MOL    H4914201   1.154   2.856   4.459 -0.3221  0.0445 -1.5060
  117MOL    C5014202   1.073   2.662   4.402  0.6344  0.3312  0.5815
  117MOL    C5114203   1.016   2.638   4.541 -0.1784 -0.1115  0.1233
  117MOL    H5214204   1.004   2.708   4.331  0.9816 -2.0079 -1.3447
  117MOL    H5314205   1.118   2.572   4.360  0.6062  0.5061  0.1783
  117MOL    H5414206   1.094   2.600   4.607 -1.9528 -0.4616  2.0671
  117MOL    H5514207   0.981   2.729   4.589  0.0389  0.6250 -1.0857
  117MOL    C5614208   0.896   2.538   4.541  0.3872  0.3230  0.0551
  117MOL    C5714209   0.854   2.492   4.684 -0.2796 -0.0984 -0.4934
  117MOL    H5814210   0.812   2.597   4.504  1.6299  1.4985 -0.9204
  117MOL    H5914211   0.916   2.450   4.480 -0.1154  1.1101 -1.2714
  117MOL    H6014212   0.926   2.420   4.724  0.5569  1.3346  0.6535
  117MOL    H6114213   0.861   2.582   4.745 -3.3984 -0.9903  1.2516
  117MOL    C6214214   0.717   2.417   4.690  0.8640 -0.2633  0.7202
  117MOL    C6314215   0.661   2.405   4.834  0.3896 -0.1563  0.1900
  117MOL    H6414216   0.652   2.472   4.621  4.0779  2.1518 -0.5096
  117MOL    H6514217   0.739   2.319   4.647 -1.0700 -0.9900  1.3072
  117MOL    H6614218   0.576   2.338   4.817  1.6748 -1.2314 -2.2925
  117MOL    H6714219   0.728   2.356   4.904  1.9272 -0.0435 -1.1693
  117MOL    C6814220   0.621   2.532   4.903 -0.2343 -0.5047  0.4722
  117MOL    C6914221   0.519   2.518   5.017  0.0844 -0.4679  0.4263
  117MOL    H7014222   0.715   2.573   4.940  0.2527 -0.1714 -1.0923
  117MOL    H7114223   0.580   2.602   4.830  1.4289  2.0653  1.9268
  117MOL    H7214224   0.560   2.438   5.078 -0.4312 -1.3343 -0.3450
  117MOL    H7314225   0.513   2.615   5.067  2.7669  0.7659 -1.4970
  117MOL    C7414226   0.380   2.483   4.957  0.1690 -0.2676  0.8062
  117MOL    C7514227   0.270   2.465   5.061 -0.3157  0.1813 -0.2422
  117MOL    H7614228   0.347   2.570   4.900 -0.5774  0.8919  2.9435
  117MOL    H7714229   0.384   2.399   4.887 -1.6660  0.9330 -0.7890
  117MOL    H7814230   0.241   2.557   5.112 -2.4434 -0.8665  0.4906
  117MOL    H7914231   0.185   2.427   5.005  0.1061 -3.5206  1.4755
  117MOL    C8014232   0.314   2.373   5.178 -0.5927 -0.0414 -0.0362
  117MOL    C8114233   0.204   2.304   5.257 -0.0968 -0.1712  0.7229
  117MOL    H8214234   0.378   2.297   5.133 -1.3748 -1.5863  1.4389
  117MOL    H8314235   0.378   2.423   5.251 -0.6501 -0.8015  0.5304
  117MOL    H8414236   0.163   2.230   5.189 -1.9671  1.6806 -0.2079
  117MOL    H8514237   0.233   2.248   5.346 -0.7881  0.5390  1.3971
  117MOL    C8614238   0.092   2.398   5.308  0.3658 -0.3121  0.4752
  117MOL    C8714239   0.141   2.511   5.404  0.5306  0.0324 -0.7117
  117MOL    H8814240   0.055   2.449   5.219  0.1839  1.5224  1.5735
  117MOL    H8914241   0.004   2.348   5.349 -1.0228  1.3132 -0.4264
  117MOL    H9014242   0.184   2.474   5.497 -0.2788 -2.5997 -1.3608
  117MOL    H9114243   0.224   2.566   5.361  0.1776  0.6581 -0.6033
  117MOL    C9214244   0.034   2.614   5.453 -0.9495 -0.2463  0.2832
  117MOL    C9314245   0.068   2.724   5.548 -0.1958  0.6844  0.3711
  117MOL    H9414246   7.689   2.655   5.359 -0.1867 -0.1784  0.0099
  117MOL    H9514247   7.643   2.557   5.495 -1.6036  0.2522 -0.3234
  117MOL    H9614248   0.109   2.678   5.638  1.2958  0.3635 -0.4502
  117MOL    H9714249   0.145   2.786   5.502 -0.8557  0.9456 -0.4011
  117MOL    C9814250   7.641   2.821   5.576  0.3611 -0.2073 -0.1384
  117MOL    C9914251   7.651   2.922   5.693  0.5207  0.3998  0.4505
  117MOL   H10014252   7.644   2.874   5.481  0.3211  2.2731  1.2048
  117MOL   H10114253   7.544   2.773   5.586  0.8930 -1.3277 -0.2045
  117MOL   H10214254   7.644   2.875   5.791 -2.3406  1.5031  0.8458
  117MOL   H10314255   0.056   2.972   5.684 -0.2083  1.6178 -0.8019
  117MOL   C10414256   7.529   3.022   5.690  0.1173  0.4797 -0.1680
  117MOL   C10514257   7.394   2.960   5.756  0.5173 -0.0704  0.6671
  117MOL   H10614258   7.558   3.118   5.731 -1.4384  0.9556 -0.1434
  117MOL   H10714259   7.507   3.044   5.586 -1.5814 -0.7774 -0.0984
  117MOL   H10814260   7.317   3.010   5.697  0.6053  2.6728  2.7704
  117MOL   H10914261   7.395   2.851   5.753  1.2752 -0.0447 -0.9640
  117MOL   C11014262   7.366   3.019   5.898 -0.8602 -0.3139 -0.1568
  117MOL   C11114263   7.226   2.989   5.950 -0.4520  0.1382 -0.4808
  117MOL   H11214264   7.441   2.985   5.969 -0.2324  0.0437 -0.6373
  117MOL   H11314265   7.368   3.128   5.900 -0.5582 -0.3314  0.5274
  117MOL   H11414266   7.152   3.016   5.874 -1.0164  1.5786  0.5711
  117MOL   H11514267   7.229   2.882   5.971 -2.4863  0.4430  1.5588
  117MOL   C11614268   7.194   3.044   6.092 -0.5727 -0.8520  0.4847
  117MOL   C11714269   7.060   3.006   6.143 -0.0637  0.1752 -0.1636
  117MOL   H11814270   7.262   3.032   6.176 -0.6619  2.4955  1.0762
  117MOL   H11914271   7.182   3.149   6.068  3.0609 -0.3925  0.4826
  117MOL   H12014272   7.046   3.056   6.239 -3.5431  1.0409 -1.0181
  117MOL   H12114273   6.980   3.027   6.071  0.9747  2.6260 -0.6674
  117MOL   H12214274   7.053   2.900   6.169 -0.2961  0.0034 -0.9149
  118MOL     C114275   3.261   3.910   0.449 -0.4851  0.1672 -0.0082
  118MOL     C214276   3.337   3.795   0.375 -0.7974 -0.1695  0.2952
  118MOL     H314277   3.336   3.986   0.474  0.0621  0.0088 -1.1418
  118MOL     H414278   3.210   3.870   0.536  0.5026 -2.3211 -0.5262
  118MOL     H514279   3.408   3.756   0.449  0.8978 -1.2415 -1.8611
  118MOL     H614280   3.286   3.705   0.342  2.3707 -1.6207 -0.9058
  118MOL     H714281   3.179   3.963   0.400  0.1628  2.7287  1.5264
  118MOL     C814282   3.445   3.836   0.271  0.1422 -0.4977 -0.0454
  118MOL     C914283   3.385   3.874   0.138  0.1251 -0.4902 -0.2591
  118MOL    H1014284   3.491   3.929   0.304 -1.4627  0.2691  0.0744
  118MOL    H1114285   3.520   3.759   0.253 -0.5822 -1.2873  0.2423
  118MOL    H1214286   3.297   3.938   0.149 -1.3766 -2.4464 -0.4289
  118MOL    H1314287   3.463   3.926   0.083  0.1852  0.2703  0.5518
  118MOL    C1414288   3.358   3.748   0.060  0.4075 -0.3343  0.1434
  118MOL    C1514289   3.313   3.772   7.609  0.1710 -0.7337 -0.0140
  118MOL    H1614290   3.447   3.686   0.051  2.8047  2.6992  1.9055
  118MOL    H1714291   3.290   3.681   0.113 -0.0548  0.2086  0.2313
  118MOL    H1814292   3.217   3.824   7.603  0.3409 -0.3988  0.1458
  118MOL    H1914293   3.390   3.832   7.560 -0.1373 -0.1154  0.2444
  118MOL    C2014294   3.309   3.644   7.519 -0.3857  0.4664 -0.2742
  118MOL    C2114295   3.273   3.680   7.373 -0.2421  0.0992  0.2066
  118MOL    H2214296   3.401   3.589   7.538 -1.0580  0.2495  2.5234
  118MOL    H2314297   3.238   3.575   7.564  0.5860 -0.0072  0.5543
  118MOL    H2414298   3.169   3.709   7.364 -0.3511 -0.3207  0.1336
  118MOL    H2514299   3.336   3.765   7.345 -0.7909  0.5044  0.1886
  118MOL    C2614300   3.287   3.561   7.284 -0.2776  0.0497  0.0053
  118MOL    C2714301   3.169   3.462   7.308  0.7503  0.1794 -0.5466
  118MOL    H2814302   3.289   3.588   7.178 -0.4897 -1.4418 -0.4031
  118MOL    H2914303   3.384   3.512   7.297 -0.0062  0.6449  0.2452
  118MOL    H3014304   3.178   3.421   7.409 -0.2670 -0.5053 -0.7288
  118MOL    H3114305   3.070   3.506   7.298 -0.3210 -1.2929  2.7376
  118MOL    C3214306   3.182   3.339   7.213 -0.2766  0.6155  0.2687
  118MOL    C3314307   3.054   3.255   7.235 -0.4849 -0.1776  0.6358
  118MOL    H3414308   3.193   3.370   7.108  0.4891  0.8745  0.4166
  118MOL    H3514309   3.273   3.284   7.236 -1.8721 -1.9075  0.6150
  118MOL    H3614310   3.041   3.248   7.343  1.3134 -0.7609  0.8285
  118MOL    H3714311   2.967   3.306   7.192 -0.9222 -0.9822  0.5623
  118MOL    C3814312   3.074   3.121   7.174  0.4694 -0.2182 -0.5553
  118MOL    C3914313   2.987   3.018   7.246 -0.0752 -0.1614 -0.4452
  118MOL    H4014314   3.050   3.119   7.067 -0.6582  1.8721 -0.3628
  118MOL    H4114315   3.181   3.098   7.181 -0.0343 -2.6196 -0.5238
  118MOL    H4214316   2.982   3.027   7.355 -2.2840 -0.2560 -0.5067
  118MOL    H4314317   2.881   3.044   7.244 -0.0601 -0.1263 -0.7570
  118MOL    C4414318   2.997   2.877   7.199 -0.7272 -0.1244  1.6306
  118MOL    C4514319   2.930   2.775   7.280  0.2989  0.5814  0.5685
  118MOL    H4614320   2.964   2.867   7.095  0.7925  1.3020  1.0015
  118MOL    H4714321   3.103   2.853   7.191 -1.5863 -3.5362 -1.2550
  118MOL    H4814322   2.830   2.812   7.303  0.2678  0.2030  1.0425
  118MOL    H4914323   2.907   2.693   7.213 -1.4030  0.2466  1.5387
  118MOL    C5014324   2.999   2.728   7.414  0.4649  1.1233 -0.3166
  118MOL    C5114325   2.975   2.803   7.537  0.4041  0.5449  0.3757
  118MOL    H5214326   2.981   2.621   7.421 -3.0475  1.6241 -0.5488
  118MOL    H5314327   3.106   2.741   7.402  0.8109 -2.0967 -1.1692
  118MOL    H5414328   2.987   2.911   7.529  0.5970  0.2837 -3.6653
  118MOL    H5514329   2.868   2.797   7.558  0.1842  0.2231 -0.8230
  118MOL    C5614330   3.068   2.764   7.657  0.3881 -0.6473 -0.2991
  118MOL    C5714331   3.066   2.870   0.076  0.0624 -0.5785  0.2817
  118MOL    H5814332   3.036   2.668   0.006  3.3946 -0.5403  2.5267
  118MOL    H5914333   3.171   2.762   7.621  0.1693 -0.1332 -0.9567
  118MOL    H6014334   3.102   2.968   0.044 -0.9633  0.3296  1.8616
  118MOL    H6114335   2.963   2.881   0.109 -0.9604 -2.5657 -2.0407
  118MOL    C6214336   3.155   2.829   0.189 -0.8136  0.3079 -0.4313
  118MOL    C6314337   3.174   2.939   0.293  0.2060  0.0663  0.2037
  118MOL    H6414338   3.104   2.745   0.236 -2.0004  1.2611 -0.0050
  118MOL    H6514339   3.254   2.792   0.159 -1.0467 -2.1125  1.6492
  118MOL    H6614340   3.224   3.023   0.244  0.7975 -0.5100 -0.1879
  118MOL    H6714341   3.073   2.973   0.315 -1.8600 -5.0025 -0.8154
  118MOL    C6814342   3.248   2.903   0.421 -0.7661  0.1402 -0.1642
  118MOL    C6914343   3.299   3.016   0.513 -0.2537  0.5861  0.2332
  118MOL    H7014344   3.187   2.837   0.482  0.7794 -0.4680  0.7441
  118MOL    H7114345   3.339   2.849   0.395 -0.2328  0.1874  1.5393
  118MOL    H7214346   3.363   3.085   0.459 -0.3580  0.2990 -0.2690
  118MOL    H7314347   3.208   3.073   0.532 -1.9120 -1.5550 -1.0215
  118MOL    C7414348   3.368   2.982   0.645 -1.2459  0.0057  0.2935
  118MOL    C7514349   3.371   3.102   0.735  0.1594 -0.0655 -0.6835
  118MOL    H7614350   3.320   2.895   0.691  1.0528 -0.3742  2.0772
  118MOL    H7714351   3.464   2.952   0.603 -0.2659  2.2271  0.8781
  118MOL    H7814352   3.423   3.181   0.681 -1.3401  1.6684  0.3213
  118MOL    H7914353   3.272   3.145   0.753  0.3675  0.3058 -0.4057
  118MOL    C8014354   3.447   3.081   0.869  0.2026 -0.2799  0.0870
  118MOL    C8114355   3.481   3.209   0.937  0.1496 -0.3717  0.8387
  118MOL    H8214356   3.389   3.016   0.934  0.2756  1.2677  1.7306
  118MOL    H8314357   3.539   3.030   0.841 -0.6515 -2.7195  1.4757
  118MOL    H8414358   3.549   3.270   0.878  2.7098 -4.3436 -0.5532
  118MOL    H8514359   3.387   3.264   0.945 -0.0541 -0.2058 -2.0953
  118MOL    C8614360   3.539   3.191   1.080  0.2277  0.4502 -0.3907
  118MOL    C8714361   3.575   3.324   1.155 -0.8382 -0.3944 -0.1938
  118MOL    H8814362   3.462   3.139   1.136  0.7460 -0.6761 -0.7251
  118MOL    H8914363   3.616   3.114   1.078 -1.1847 -1.0205  0.8836
  118MOL    H9014364   3.644   3.380   1.092 -1.5740 -1.2988 -1.8371
  118MOL    H9114365   3.490   3.389   1.173 -0.7589 -0.0083 -1.1984
  118MOL    C9214366   3.646   3.299   1.289 -0.6321  0.2296 -0.5419
  118MOL    C9314367   3.670   3.419   1.380  0.1438  0.3040 -0.4946
  118MOL    H9414368   3.588   3.221   1.338  0.9151  0.1361  1.2088
  118MOL    H9514369   3.739   3.251   1.259 -1.4161 -1.1852 -0.7423
  118MOL    H9614370   3.702   3.492   1.306 -1.7841  1.1725 -0.5046
  118MOL    H9714371   3.583   3.458   1.433  0.3270 -0.3771  0.3184
  118MOL    C9814372   3.785   3.392   1.477 -0.1162  0.5893  0.3135
  118MOL    C9914373   3.814   3.502   1.579  0.4229  0.5603 -0.8952
  118MOL   H10014374   3.762   3.304   1.537  0.9802  0.6399  0.8333
  118MOL   H10114375   3.871   3.363   1.416 -0.3267 -0.6789  0.5976
  118MOL   H10214376   3.721   3.545   1.615  0.3861 -0.3640  0.1248
  118MOL   H10314377   3.869   3.464   1.665  0.1634 -0.0208 -0.9798
  118MOL   C10414378   3.874   3.625   1.511  1.0184 -0.0129  0.0669
  118MOL   C10514379   3.952   3.714   1.604  0.0672  0.0333 -0.2978
  118MOL   H10614380   3.941   3.624   1.425 -1.2826  3.0066 -1.8924
  118MOL   H10714381   3.789   3.685   1.477  0.9034 -0.6447 -0.7775
  118MOL   H10814382   3.903   3.743   1.697 -0.4810 -0.8836 -0.2939
  118MOL   H10914383   4.024   3.641   1.642 -0.3174  1.5446  3.5568
  118MOL   C11014384   4.021   3.840   1.549  0.3604  0.3048 -0.6137
  118MOL   C11114385   4.074   3.937   1.657  0.1138 -0.1455  0.5498
  118MOL   H11214386   4.105   3.808   1.488 -0.1983  1.3731 -1.9671
  118MOL   H11314387   3.951   3.896   1.487  1.6710  1.5299 -1.0078
  118MOL   H11414388   3.992   3.956   1.727 -0.3753  0.6562 -0.2157
  118MOL   H11514389   4.155   3.896   1.717 -0.2824 -2.9866 -0.7720
  118MOL   C11614390   4.114   4.071   1.601  0.0775 -0.9021  0.1310
  118MOL   C11714391   4.130   4.187   1.705 -1.0339 -0.2779  0.3191
  118MOL   H11814392   4.208   4.067   1.546 -0.6835 -0.3997 -1.2421
  118MOL   H11914393   4.035   4.099   1.530 -0.1278  2.7762  1.6717
  118MOL   H12014394   4.051   4.183   1.780  0.4100 -2.9126  1.7595
  118MOL   H12114395   4.226   4.179   1.757 -0.7999 -0.9706 -0.2248
  118MOL   H12214396   4.126   4.287   1.661 -0.0564 -0.0468  0.7303
  119MOL     C114397   3.302   3.740   4.189 -0.1642 -0.2191 -0.6073
  119MOL     C214398   3.280   3.869   4.111  0.3177 -0.0715 -0.1399
  119MOL     H314399   3.360   3.675   4.123 -1.1774 -1.5088 -0.2373
  119MOL     H414400   3.207   3.688   4.200 -0.3517  0.1593 -0.4270
  119MOL     H514401   3.368   3.930   4.087 -0.4577  0.9755 -0.3409
  119MOL     H614402   3.241   3.829   4.017  1.5739 -0.1735 -0.6307
  119MOL     H714403   3.353   3.748   4.285 -1.9744 -0.9692  0.4282
  119MOL     C814404   3.168   3.940   4.189  0.2588  0.8796 -0.5093
  119MOL     C914405   3.128   4.077   4.127 -0.2340  0.4555  0.2536
  119MOL    H1014406   3.077   3.880   4.195  0.7371  0.2407  0.5180
  119MOL    H1114407   3.188   3.961   4.294 -1.2323 -0.5134  0.0795
  119MOL    H1214408   3.219   4.121   4.086  0.0055 -0.9530 -0.7520
  119MOL    H1314409   3.075   4.058   4.034  1.5782  0.6001 -0.8366
  119MOL    C1414410   3.062   4.174   4.219  0.3632  0.1685  1.0510
  119MOL    C1514411   3.035   4.321   4.162  0.1169  0.2268  0.0264
  119MOL    H1614412   2.968   4.128   4.247  0.9256 -1.5626  0.1748
  119MOL    H1714413   3.135   4.186   4.299  2.8442  0.7373 -1.2142
  119MOL    H1814414   3.116   4.355   4.098 -0.1806  2.4403  0.7990
  119MOL    H1914415   2.951   4.323   4.092 -0.9102  0.8414  1.2519
  119MOL    C2014416   3.018   4.427   4.273 -0.3953  0.1954 -0.2684
  119MOL    C2114417   3.037   4.573   4.222  0.4049 -0.2650 -0.3209
  119MOL    H2214418   2.924   4.415   4.326 -0.4922  1.1891 -0.1976
  119MOL    H2314419   3.092   4.411   4.352  0.2135 -2.3649 -1.2940
  119MOL    H2414420   3.143   4.588   4.200  0.3479  0.0643 -0.3678
  119MOL    H2514421   2.988   4.596   4.128 -0.4951 -1.2475 -0.1026
  119MOL    C2614422   3.003   4.670   4.340  0.5120  0.3539 -0.4411
  119MOL    C2714423   3.028   4.818   4.300  0.3728 -0.9977 -0.2092
  119MOL    H2814424   2.900   4.649   4.371  0.8556  0.4752  0.7965
  119MOL    H2914425   3.062   4.644   4.428 -0.3117 -1.5383 -0.4215
  119MOL    H3014426   3.135   4.821   4.278  0.2447  2.8694 -0.5821
  119MOL    H3114427   2.980   4.850   4.207  1.8156 -0.9687 -0.9579
  119MOL    C3214428   2.970   4.912   4.411  0.6759 -0.0728  0.6716
  119MOL    C3314429   2.839   4.972   4.369  0.6229  0.4504 -0.1324
  119MOL    H3414430   2.956   4.861   4.506 -0.3749  0.7322  0.9429
  119MOL    H3514431   3.056   4.978   4.424  2.2804 -1.8892 -0.2677
  119MOL    H3614432   2.845   5.006   4.266  1.3779  0.1184 -0.2032
  119MOL    H3714433   2.753   4.905   4.373  0.0952  1.1635  0.6302
  119MOL    C3814434   2.813   5.089   4.460 -0.0220 -0.3760  0.3614
  119MOL    C3914435   2.737   5.216   4.398  0.5173  0.1622  0.4268
  119MOL    H4014436   2.766   5.063   4.555  0.0509 -0.8306  0.2761
  119MOL    H4114437   2.903   5.139   4.494 -0.5702  1.3375 -0.6357
  119MOL    H4214438   2.742   5.299   4.468  0.0170  0.4852  0.0795
  119MOL    H4314439   2.785   5.261   4.311 -1.3380  0.2292 -0.5782
  119MOL    C4414440   2.591   5.186   4.371  0.6056 -0.0208 -0.3890
  119MOL    C4514441   2.551   5.177   4.221 -1.1605  0.5688 -0.2390
  119MOL    H4614442   2.569   5.093   4.423  0.3080 -0.7174 -1.7479
  119MOL    H4714443   2.530   5.266   4.413  0.6143  0.7598 -1.8501
  119MOL    H4814444   2.534   5.274   4.176 -1.1077  0.0845 -1.3140
  119MOL    H4914445   2.627   5.122   4.166 -0.6620 -0.9065  1.8534
  119MOL    C5014446   2.414   5.104   4.203 -0.3767  0.0159 -0.4009
  119MOL    C5114447   2.379   5.068   4.056 -0.5366  0.7771 -0.5015
  119MOL    H5214448   2.413   5.014   4.265 -1.7910  0.2351 -0.0772
  119MOL    H5314449   2.332   5.165   4.241 -0.9338 -0.5797 -0.6403
  119MOL    H5414450   2.352   5.157   3.999 -0.7641  1.1702  0.2188
  119MOL    H5514451   2.472   5.028   4.016 -1.0922  0.5101 -1.5256
  119MOL    C5614452   2.266   4.968   4.044 -0.1035  0.2235 -0.4186
  119MOL    C5714453   2.216   4.954   3.895  0.3755 -0.3862  0.5228
  119MOL    H5814454   2.314   4.872   4.064  0.5433  0.5843 -0.2384
  119MOL    H5914455   2.177   4.992   4.101  1.3987 -1.0958  2.5723
  119MOL    H6014456   2.208   5.051   3.846 -0.4862 -0.7355 -0.0481
  119MOL    H6114457   2.301   4.909   3.844 -1.1496 -2.0628 -0.6104
  119MOL    C6214458   2.079   4.889   3.871 -0.2515  0.6011 -0.4314
  119MOL    C6314459   2.055   4.879   3.715 -0.6102  0.5036  0.3758
  119MOL    H6414460   2.076   4.786   3.907  0.9888 -0.2599 -2.7092
  119MOL    H6514461   2.001   4.937   3.929  0.5894  0.5562  0.7507
  119MOL    H6614462   2.055   4.969   3.654 -2.1656 -0.4179 -1.0079
  119MOL    H6714463   2.126   4.812   3.666 -1.1072 -0.2210  0.6325
  119MOL    C6814464   1.927   4.811   3.685  0.0056 -0.8364 -0.0861
  119MOL    C6914465   1.922   4.659   3.699  0.0946  0.3469 -0.4330
  119MOL    H7014466   1.841   4.861   3.729  0.0897 -1.9473  1.3924
  119MOL    H7114467   1.896   4.815   3.581 -1.6512  0.9894  0.4412
  119MOL    H7214468   2.011   4.617   3.652  0.2427  1.2703 -0.9810
  119MOL    H7314469   1.926   4.643   3.807  0.1100  2.3887 -0.1135
  119MOL    C7414470   1.785   4.596   3.655  0.7706 -0.6638  0.3115
  119MOL    C7514471   1.738   4.466   3.710  0.4001 -0.4008 -0.0860
  119MOL    H7614472   1.705   4.664   3.684  0.8362 -1.2278  1.8707
  119MOL    H7714473   1.798   4.588   3.547 -0.7669 -0.5348  0.1191
  119MOL    H7814474   1.808   4.391   3.673 -0.6492 -2.1595  1.3587
  119MOL    H7914475   1.733   4.463   3.819  1.2581  0.0257 -0.0317
  119MOL    C8014476   1.602   4.434   3.647  0.2244 -0.4265  0.0915
  119MOL    C8114477   1.556   4.287   3.667  0.8240  0.0710  0.3715
  119MOL    H8214478   1.524   4.501   3.682  0.4869 -0.4220  0.6731
  119MOL    H8314479   1.614   4.453   3.540 -1.3281 -0.5393 -0.1112
  119MOL    H8414480   1.494   4.253   3.584  1.4949  1.2966 -0.6308
  119MOL    H8514481   1.647   4.227   3.678 -0.0398 -1.7042 -1.7225
  119MOL    C8614482   1.473   4.277   3.790 -0.4154 -0.0760  0.0997
  119MOL    C8714483   1.418   4.137   3.818 -0.4174  0.2730  0.5259
  119MOL    H8814484   1.539   4.313   3.869 -0.5523  0.0856  0.1412
  119MOL    H8914485   1.384   4.340   3.784 -0.8037 -0.5229  1.0040
  119MOL    H9014486   1.359   4.140   3.910  0.8789 -0.0723  1.3829
  119MOL    H9114487   1.341   4.104   3.747 -2.3829 -0.2635  2.8452
  119MOL    C9214488   1.527   4.025   3.813  0.0162 -0.3875 -0.4063
  119MOL    C9314489   1.456   3.895   3.871 -0.2783 -0.3062 -0.2030
  119MOL    H9414490   1.561   4.010   3.710 -0.2437 -0.2122 -0.5171
  119MOL    H9514491   1.620   4.058   3.860  0.1927 -2.2645  0.6140
  119MOL    H9614492   1.406   3.917   3.965 -0.1033  1.6713 -0.5477
  119MOL    H9714493   1.377   3.867   3.801  0.4943  0.8738 -1.5635
  119MOL    C9814494   1.556   3.780   3.879  0.2985  0.2177 -0.0124
  119MOL    C9914495   1.678   3.791   3.972  0.0881 -0.1473  0.3025
  119MOL   H10014496   1.493   3.696   3.909 -0.0615 -0.5408 -2.8153
  119MOL   H10114497   1.587   3.748   3.780  1.1745  3.3219 -0.8001
  119MOL   H10214498   1.744   3.875   3.954  0.0852  0.2035  1.8314
  119MOL   H10314499   1.644   3.814   4.073  0.9280 -0.2708  0.6171
  119MOL   C10414500   1.748   3.656   3.972 -0.2253 -0.7553 -0.2189
  119MOL   C10514501   1.860   3.650   4.078 -0.3027 -0.5589 -1.0872
  119MOL   H10614502   1.667   3.584   3.988  0.0284 -1.1046 -0.5163
  119MOL   H10714503   1.796   3.652   3.875 -0.9740  3.6488 -0.8734
  119MOL   H10814504   1.920   3.740   4.071  0.2569 -0.9119 -0.8279
  119MOL   H10914505   1.815   3.657   4.178 -0.8172 -1.2347 -1.2697
  119MOL   C11014506   1.949   3.526   4.064  0.3628  0.3805  0.0970
  119MOL   C11114507   1.861   3.405   4.097 -0.0767 -0.8034 -0.1790
  119MOL   H11214508   2.001   3.515   3.969 -0.0220  0.6102 -0.1400
  119MOL   H11314509   2.026   3.533   4.142  1.0924  1.0546 -0.6799
  119MOL   H11414510   1.805   3.417   4.190 -0.7963 -3.9733 -0.1565
  119MOL   H11514511   1.775   3.397   4.030  0.3043 -3.1352 -0.4006
  119MOL   C11614512   1.946   3.283   4.101  0.0925 -0.2772 -0.4865
  119MOL   C11714513   1.864   3.163   4.148  0.1636  0.1444  0.3981
  119MOL   H11814514   1.991   3.259   4.005 -0.1181  0.7630 -0.8464
  119MOL   H11914515   2.033   3.308   4.162  0.1273 -0.2880 -0.5312
  119MOL   H12014516   1.814   3.183   4.243 -0.1642  0.2444  0.2045
  119MOL   H12114517   1.794   3.131   4.072  0.2330  0.3474  0.2492
  119MOL   H12214518   1.942   3.089   4.168  0.1030  0.4695  1.9149
  120MOL     C114519   5.460   7.284   1.124  0.1081 -0.2671  0.0666
  120MOL     C214520   5.405   7.407   1.053  0.7062  0.3647  0.4029
  120MOL     H314521   5.472   7.301   1.231  1.9737  1.3981 -0.3686
  120MOL     H414522   5.555   7.251   1.082  0.8960 -0.0860  1.6625
  120MOL     H514523   5.483   7.483   1.043 -0.8004  1.9208  0.3498
  120MOL     H614524   5.371   7.386   0.952  0.7423  0.2579  0.4124
  120MOL     H714525   5.391   7.201   1.111  1.8935 -1.5191 -1.8889
  120MOL     C814526   5.273   7.444   1.132 -0.4232  0.2923 -0.7081
  120MOL     C914527   5.184   7.549   1.058  0.2576 -0.6918  0.0778
  120MOL    H1014528   5.216   7.351   1.137  0.9857 -0.5558 -0.2545
  120MOL    H1114529   5.289   7.471   1.236 -0.1231  0.9702 -0.9302
  120MOL    H1214530   5.143   7.504   0.967  0.8347 -0.3864 -0.3374
  120MOL    H1314531   5.098   7.562   1.124  1.2748 -1.4059  1.5551
  120MOL    C1414532   5.253   7.681   1.024 -0.1350  0.1960  0.2140
  120MOL    C1514533   5.280   0.072   1.152 -0.2627 -0.4436 -0.0800
  120MOL    H1614534   5.346   7.668   0.969 -0.8153  1.3725 -1.2383
  120MOL    H1714535   5.185   0.042   0.957  1.5939  3.7141  1.1095
  120MOL    H1814536   5.188   0.076   1.210 -1.3338 -1.7838 -1.6204
  120MOL    H1914537   5.357   0.029   1.216 -0.1177  0.6950  0.5187
  120MOL    C2014538   5.313   0.221   1.120 -0.1612 -0.2064  0.2728
  120MOL    C2114539   5.307   0.320   1.244  0.2713  0.9310  0.9714
  120MOL    H2214540   5.419   0.218   1.092 -0.5255  0.3812 -1.2468
  120MOL    H2314541   5.255   0.256   1.034  0.0515 -2.7935 -0.9882
  120MOL    H2414542   5.351   0.262   1.325 -1.3465 -2.1941 -0.2957
  120MOL    H2514543   5.367   0.411   1.240  1.0409  0.4522  1.5885
  120MOL    C2614544   5.155   0.361   1.272 -0.5346 -0.1386  0.1049
  120MOL    C2714545   5.139   0.444   1.408  0.6785  0.2968 -0.9801
  120MOL    H2814546   5.118   0.411   1.183 -1.4386 -0.4138  0.3197
  120MOL    H2914547   5.098   0.270   1.293 -0.2222 -0.6066 -1.0471
  120MOL    H3014548   5.132   0.386   1.500  0.3199  1.1850 -0.4396
  120MOL    H3114549   5.228   0.505   1.423 -0.0333  1.6590 -2.1658
  120MOL    C3214550   5.021   0.542   1.395 -0.4391 -0.0639 -0.2523
  120MOL    C3314551   4.982   0.610   1.529 -0.9057 -0.4286 -0.0619
  120MOL    H3414552   5.057   0.614   1.321 -0.9290 -1.1174 -1.5421
  120MOL    H3514553   4.930   0.495   1.359 -0.2738 -1.9375  1.7024
  120MOL    H3614554   4.959   0.548   1.616 -0.2397  1.3846  1.4356
  120MOL    H3714555   5.072   0.665   1.555  0.0684 -0.8713 -2.4166
  120MOL    C3814556   4.875   0.719   1.500 -0.9313  0.8579 -0.9670
  120MOL    C3914557   4.740   0.658   1.469  0.2864 -0.1907  0.0641
  120MOL    H4014558   4.870   0.781   1.590  0.9534 -1.5578  0.8894
  120MOL    H4114559   4.898   0.785   1.416 -1.3188 -0.2527 -1.9637
  120MOL    H4214560   4.740   0.605   1.374 -2.3149  1.1701 -0.7490
  120MOL    H4314561   4.737   0.583   1.548 -0.5816  0.4589  0.6626
  120MOL    C4414562   4.614   0.748   1.476  0.3340  0.0195  0.2425
  120MOL    C4514563   4.492   0.669   1.431  0.1134 -0.0971 -0.3671
  120MOL    H4614564   4.599   0.786   1.577  2.9385  2.3045 -0.1581
  120MOL    H4714565   4.630   0.840   1.420  1.0391  1.1753  2.2680
  120MOL    H4814566   4.468   0.590   1.503  0.8370 -0.3858 -0.4345
  120MOL    H4914567   4.416   0.743   1.454 -0.7885 -1.4956  1.3161
  120MOL    C5014568   4.474   0.616   1.291 -0.1772  0.1710 -0.8377
  120MOL    C5114569   4.328   0.560   1.295  0.4527 -0.5908  0.3665
  120MOL    H5214570   4.480   0.702   1.225  3.3389  1.0071  0.4414
  120MOL    H5314571   4.546   0.537   1.267 -0.8518 -1.1008  1.1836
  120MOL    H5414572   4.296   0.535   1.396 -2.1705  2.3122  0.3482
  120MOL    H5514573   4.264   0.646   1.272  0.3227 -0.5296  0.9424
  120MOL    C5614574   4.295   0.450   1.191 -0.3660  0.8689 -0.0041
  120MOL    C5714575   4.147   0.406   1.199 -0.1175 -0.7600 -0.1919
  120MOL    H5814576   4.310   0.483   1.088  1.4164  1.4898  0.4395
  120MOL    H5914577   4.364   0.367   1.204 -1.3690 -0.2601 -1.6691
  120MOL    H6014578   4.129   0.361   1.297 -1.7076 -0.8730 -0.5186
  120MOL    H6114579   4.079   0.491   1.196 -0.0685 -0.6694  1.0349
  120MOL    C6214580   4.115   0.315   1.083 -0.6114  0.1704  0.6429
  120MOL    C6314581   3.967   0.271   1.091  0.5899 -0.2074 -1.0157
  120MOL    H6414582   4.125   0.375   0.992 -1.0661 -2.1979 -1.0073
  120MOL    H6514583   4.184   0.232   1.076  0.9756  1.4985  0.2026
  120MOL    H6614584   3.955   0.224   1.189  1.5545 -0.2789 -0.9288
  120MOL    H6714585   3.911   0.363   1.105  1.7907  0.2212  1.2405
  120MOL    C6814586   3.919   0.187   0.976 -0.2183  0.4144  0.2973
  120MOL    C6914587   3.768   0.150   0.973 -0.1771 -0.5775 -0.2900
  120MOL    H7014588   3.949   0.240   0.885 -0.5770  1.8248  0.9889
  120MOL    H7114589   3.986   0.101   0.971 -2.8092 -1.6163 -0.5210
  120MOL    H7214590   3.758   0.067   0.904 -1.5858 -1.3880  0.8724
  120MOL    H7314591   3.735   0.100   1.064 -0.6296 -0.2996 -0.3006
  120MOL    C7414592   3.677   0.266   0.941  0.2546 -0.7788 -0.0457
  120MOL    C7514593   3.527   0.230   0.918  0.5644  0.4964 -0.0273
  120MOL    H7614594   3.692   0.342   1.017  1.8292 -1.1048 -0.0183
  120MOL    H7714595   3.716   0.304   0.847  0.8853  2.5544  1.4953
  120MOL    H7814596   3.511   0.140   0.858 -1.4726  0.8684 -0.0564
  120MOL    H7914597   3.493   0.191   1.014 -0.0351  0.5704 -0.2100
  120MOL    C8014598   3.450   0.362   0.886 -0.7609  0.0591  0.1406
  120MOL    C8114599   3.307   0.337   0.823  0.3223 -0.6373  0.3100
  120MOL    H8214600   3.445   0.417   0.980 -0.9678 -1.6551  1.1442
  120MOL    H8314601   3.517   0.421   0.823  0.2187 -0.7916  0.3686
  120MOL    H8414602   3.299   0.244   0.768  3.4686  0.2248 -1.7760
  120MOL    H8514603   3.234   0.314   0.900 -1.9272  1.4742 -1.1207
  120MOL    C8614604   3.259   0.449   0.726  0.0765 -0.3428 -0.0225
  120MOL    C8714605   3.108   0.458   0.718  0.1979 -0.3974  1.6556
  120MOL    H8814606   3.299   0.548   0.752 -1.0906  0.4847 -1.3122
  120MOL    H8914607   3.311   0.439   0.630  1.7781 -0.9031  0.9263
  120MOL    H9014608   3.072   0.358   0.698 -0.4243  0.0442  0.5193
  120MOL    H9114609   3.074   0.501   0.812 -0.6975  2.6371  0.0320
  120MOL    C9214610   3.055   0.554   0.610  0.4175 -0.1805 -0.2413
  120MOL    C9314611   2.910   0.531   0.576  0.0754 -0.2029  0.0537
  120MOL    H9414612   3.064   0.659   0.638  0.6076  0.0938 -1.2979
  120MOL    H9514613   3.116   0.541   0.520  0.6843  1.3969 -0.3079
  120MOL    H9614614   2.881   0.615   0.512  2.5929  0.2768 -0.5162
  120MOL    H9714615   2.891   0.442   0.517 -1.8382  1.4403 -1.9103
  120MOL    C9814616   2.811   0.524   0.697 -0.3677 -0.1288 -0.0388
  120MOL    C9914617   2.669   0.477   0.659 -0.7659 -0.1384 -0.1319
  120MOL   H10014618   2.844   0.444   0.764 -2.3096 -1.6910 -0.8898
  120MOL   H10114619   2.809   0.618   0.752 -2.6332  1.2757 -2.4362
  120MOL   H10214620   2.646   0.536   0.571  1.9310 -1.9630 -2.1400
  120MOL   H10314621   2.672   0.371   0.635 -1.4763 -0.1668 -0.0954
  120MOL   C10414622   2.569   0.498   0.771  0.0241  0.0669 -0.6995
  120MOL   C10514623   2.611   0.429   0.908  0.2508 -0.1422  0.1715
  120MOL   H10614624   2.557   0.603   0.798  0.5491  0.2677 -1.2370
  120MOL   H10714625   2.468   0.469   0.741  0.1185  0.5790 -1.5138
  120MOL   H10814626   2.673   0.342   0.887  1.0810  0.0949  1.6258
  120MOL   H10914627   2.684   0.484   0.968  2.1481  0.6711 -2.7667
  120MOL   C11014628   2.490   0.379   0.995 -0.0025  0.4804  0.5134
  120MOL   C11114629   2.405   0.490   1.071 -0.6931  0.0652 -0.3803
  120MOL   H11214630   2.421   0.314   0.940 -0.7710  0.7573  1.1405
  120MOL   H11314631   2.523   0.307   1.070  1.7880  0.0905 -0.6125
  120MOL   H11414632   2.460   0.529   1.156 -1.3568 -0.4073  0.2814
  120MOL   H11514633   2.393   0.574   1.003  1.8937  0.4899 -0.3586
  120MOL   C11614634   2.272   0.434   1.116 -0.2782  0.8224 -0.1411
  120MOL   C11714635   2.200   0.544   1.197  0.3091 -0.1141  0.1553
  120MOL   H11814636   2.214   0.374   1.047  0.2806  0.2404 -0.1118
  120MOL   H11914637   2.286   0.351   1.186  2.2980  0.3311 -1.1740
  120MOL   H12014638   2.265   0.576   1.279  0.0169  0.0631  0.3200
  120MOL   H12114639   2.181   0.622   1.123 -1.1500  2.8944  3.5694
  120MOL   H12214640   2.100   0.512   1.227 -0.1005 -0.1056 -1.1681
  121MOL     C114641   3.392   2.555   7.667 -0.6238  0.3533 -0.1567
  121MOL     C214642   3.491   2.434   7.639 -0.1432 -0.2375 -0.2331
  121MOL     H314643   3.287   2.536   7.644 -0.9874 -2.0294  3.1155
  121MOL     H414644   3.423   2.645   7.613 -0.6633 -0.4084 -1.4817
  121MOL     H514645   3.517   2.421   7.534 -1.6314  1.5826 -0.8414
  121MOL     H614646   3.581   2.473   7.686  0.0216  1.2016 -1.7030
  121MOL     H714647   3.397   2.581   0.081 -1.1731  0.9911 -0.2885
  121MOL     C814648   3.445   2.291   7.683 -0.3379 -0.3584  0.2306
  121MOL     C914649   3.564   2.192   7.675  0.3164 -0.3126 -0.0281
  121MOL    H1014650   3.408   2.298   0.093  0.3517 -1.8671  0.5922
  121MOL    H1114651   3.357   2.258   7.628 -0.3631 -2.3519  1.4310
  121MOL    H1214652   3.583   2.187   7.568 -2.6393  1.7980 -0.6979
  121MOL    H1314653   3.658   2.225   0.026 -0.6268  2.0268  0.2986
  121MOL    C1414654   3.529   2.050   0.035 -0.6844 -0.4420  0.7219
  121MOL    C1514655   3.636   1.939   0.004  0.0488 -0.5046  0.2017
  121MOL    H1614656   3.522   2.052   0.143  0.5972 -2.1665  0.8593
  121MOL    H1714657   3.437   2.021   7.677 -0.5545  1.1524 -0.4708
  121MOL    H1814658   3.658   1.924   7.590  0.8373 -1.4264  0.4819
  121MOL    H1914659   3.726   1.986   0.044 -0.2053  0.5191 -0.4224
  121MOL    C2014660   3.597   1.809   0.083  0.3772 -0.1892 -0.2258
  121MOL    C2114661   3.722   1.715   0.088  0.7223 -0.4711  0.2687
  121MOL    H2214662   3.550   1.838   0.178  1.1364  1.6408 -0.3985
  121MOL    H2314663   3.527   1.751   0.022 -0.3109  0.9958 -0.5815
  121MOL    H2414664   3.756   1.700   7.677  0.3559 -1.2974  0.2636
  121MOL    H2514665   3.787   1.770   0.155  0.0782  1.0615 -0.3494
  121MOL    C2614666   3.686   1.583   0.159  0.4226  0.0849 -0.1559
  121MOL    C2714667   3.815   1.496   0.163  0.9556 -0.0542 -0.2126
  121MOL    H2814668   3.673   1.612   0.263 -1.1181 -0.6334 -0.1432
  121MOL    H2914669   3.594   1.543   0.116  0.7151  0.0339 -0.7425
  121MOL    H3014670   3.843   1.481   0.059 -3.6491 -0.2338 -1.5628
  121MOL    H3114671   3.893   1.554   0.212 -0.5482  1.4642  0.4353
  121MOL    C3214672   3.781   1.371   0.244 -0.3179  0.0407 -0.4291
  121MOL    C3314673   3.899   1.276   0.245  0.3576  0.1284 -0.4525
  121MOL    H3414674   3.730   1.379   0.340 -1.3078  1.1442 -1.0410
  121MOL    H3514675   3.706   1.318   0.185 -2.1746 -0.3118  2.1553
  121MOL    H3614676   3.922   1.257   0.141 -0.1026  1.0444 -0.7283
  121MOL    H3714677   3.977   1.330   0.298 -1.1204 -0.1624  2.1190
  121MOL    C3814678   3.865   1.145   0.325 -0.1909  0.3930  0.0092
  121MOL    C3914679   3.931   1.015   0.279  0.2185  0.5264 -0.0717
  121MOL    H4014680   3.889   1.148   0.431 -0.5467 -0.8351  0.1291
  121MOL    H4114681   3.757   1.128   0.322  0.2908 -2.9031 -0.8442
  121MOL    H4214682   3.895   0.927   0.333  0.5116  0.1900 -0.4278
  121MOL    H4314683   3.908   1.008   0.173  0.8095 -1.6876 -0.0774
  121MOL    C4414684   4.082   1.001   0.306 -0.0902  0.5570  0.5600
  121MOL    C4514685   4.143   0.871   0.251  0.2008  0.1366  0.0757
  121MOL    H4614686   4.128   1.091   0.266  0.5270  0.0061  0.0309
  121MOL    H4714687   4.091   1.005   0.415 -1.2942  0.0879  0.6773
  121MOL    H4814688   4.079   0.787   0.279 -1.6670  1.1313 -1.0881
  121MOL    H4914689   4.122   0.873   0.144 -1.0280 -1.3886  0.2676
  121MOL    C5014690   4.292   0.848   0.291 -0.5179  0.2720 -0.6233
  121MOL    C5114691   4.401   0.936   0.217  0.1211 -0.2487 -0.0530
  121MOL    H5214692   4.304   0.836   0.399  2.2549  2.4169 -0.6593
  121MOL    H5314693   4.311   0.752   0.244 -0.7441 -0.5547  0.9266
  121MOL    H5414694   4.366   0.951   0.115 -0.2441 -0.0879  0.0961
  121MOL    H5514695   4.422   1.032   0.266  2.1762 -1.4893  1.5782
  121MOL    C5614696   4.534   0.851   0.213  0.3319  0.8331 -0.2352
  121MOL    C5714697   4.658   0.932   0.179  0.8757 -0.8759  0.1674
  121MOL    H5814698   4.552   0.805   0.310  1.3650 -1.6472 -1.5695
  121MOL    H5914699   4.522   0.769   0.143  1.1464 -2.4782  3.3370
  121MOL    H6014700   4.637   0.978   0.082  1.1415 -1.7893 -0.3281
  121MOL    H6114701   4.654   1.014   0.251 -2.1132 -0.9431  0.1491
  121MOL    C6214702   4.800   0.863   0.173 -0.1632  0.3358 -0.7301
  121MOL    C6314703   4.858   0.812   0.043 -0.6857 -0.0082  0.9568
  121MOL    H6414704   4.869   0.938   0.211 -1.1618  0.8839  0.0308
  121MOL    H6514705   4.801   0.782   0.246 -0.4176  0.6937 -0.3325
  121MOL    H6614706   4.802   0.734   7.683  0.4397  0.0006 -0.2860
  121MOL    H6714707   4.854   0.895   7.664  0.7838 -0.3450  0.4486
  121MOL    C6814708   5.003   0.773   0.044  0.1076  0.3234  0.1900
  121MOL    C6914709   5.047   0.748   7.590  0.2160 -0.1017 -0.2835
  121MOL    H7014710   5.069   0.848   0.088  0.1276  0.3607  0.0947
  121MOL    H7114711   5.015   0.692   0.116  0.2358  0.8757  0.7939
  121MOL    H7214712   4.987   0.670   7.543  0.0249  0.5509 -1.1370
  121MOL    H7314713   5.024   0.839   7.534  1.7059  0.0040 -0.7439
  121MOL    C7414714   5.193   0.719   7.585  0.4671 -0.1129 -0.2258
  121MOL    C7514715   5.242   0.724   7.437 -0.1169  0.1918  0.3801
  121MOL    H7614716   5.241   0.802   7.637  1.1093 -0.0152 -0.9674
  121MOL    H7714717   5.212   0.622   7.632  2.2275 -1.1225 -2.9129
  121MOL    H7814718   5.177   0.668   7.368 -0.8388  0.0715  1.1478
  121MOL    H7914719   5.248   0.822   7.389  0.3830 -1.2477 -2.6183
  121MOL    C8014720   5.387   0.677   7.416  0.6902 -0.0185  1.0679
  121MOL    C8114721   5.433   0.665   7.269  0.6556  0.3126 -0.2820
  121MOL    H8214722   5.458   0.736   7.474 -1.1480  2.0661  1.2563
  121MOL    H8314723   5.380   0.574   7.454 -0.3441 -0.2319  0.3244
  121MOL    H8414724   5.365   0.589   7.231  0.2221 -0.1441  1.3598
  121MOL    H8514725   5.404   0.756   7.216 -0.1149  0.8741  1.0720
  121MOL    C8614726   5.578   0.620   7.257 -0.4646  0.4126  0.3303
  121MOL    C8714727   5.622   0.584   7.115 -0.1750 -0.6283 -0.0087
  121MOL    H8814728   5.633   0.703   7.302  1.2115 -1.1742  1.2986
  121MOL    H8914729   5.590   0.536   7.326  0.0364 -0.3226 -0.6354
  121MOL    H9014730   5.627   0.668   7.047 -0.6553  0.2439  1.0261
  121MOL    H9114731   5.726   0.550   7.120  0.8654  2.6368  1.5460
  121MOL    C9214732   5.529   0.475   7.055 -0.1223 -0.7799  0.0376
  121MOL    C9314733   5.554   0.448   6.902  0.0329 -0.4197 -0.0267
  121MOL    H9414734   5.545   0.387   7.117 -0.3393 -0.1090  1.0816
  121MOL    H9514735   5.423   0.502   7.064  0.3324  1.0792 -0.0485
  121MOL    H9614736   5.541   0.537   6.840 -1.9963 -1.4095 -1.0662
  121MOL    H9714737   5.658   0.415   6.900 -0.3152 -1.5528  0.5246
  121MOL    C9814738   5.441   0.354   6.845 -0.5689 -0.1046  0.2607
  121MOL    C9914739   5.463   0.303   6.706 -0.4352  0.4471 -0.3159
  121MOL   H10014740   5.410   0.290   6.927 -1.1994  1.5426  1.3391
  121MOL   H10114741   5.355   0.420   6.838 -1.6687 -1.5530  0.0791
  121MOL   H10214742   5.475   0.390   6.641  0.8527  0.0128 -0.6718
  121MOL   H10314743   5.556   0.250   6.689  0.6363  1.2756  2.5831
  121MOL   C10414744   5.343   0.206   6.680  0.5052  0.2053  0.3448
  121MOL   C10514745   5.341   0.156   6.539  0.1602 -0.4796 -0.5646
  121MOL   H10614746   5.360   0.122   6.746  1.0071 -1.5359 -1.9246
  121MOL   H10714747   5.250   0.252   6.715 -0.5793 -1.3897 -0.3557
  121MOL   H10814748   5.329   0.241   6.472 -1.5680  1.4255  2.0663
  121MOL   H10914749   5.433   0.100   6.525 -0.5409 -1.5763 -0.9296
  121MOL   C11014750   5.221   0.065   6.511  0.0728  0.5173  0.2228
  121MOL   C11114751   5.224   7.689   6.375  1.2447  0.3061 -0.5854
  121MOL   H11214752   5.235   7.680   6.586 -0.2088  0.4165  0.1752
  121MOL   H11314753   5.125   0.115   6.528 -0.9966 -1.4423  0.0528
  121MOL   H11414754   5.218   0.073   6.297  1.5029 -2.0640 -2.9931
  121MOL   H11514755   5.318   7.634   6.360 -0.3914 -2.9349  0.6264
  121MOL   C11614756   5.110   7.583   6.358  0.3948  0.5245 -0.2596
  121MOL   C11714757   5.092   7.513   6.226 -0.3642  0.2336  0.7429
  121MOL   H11814758   5.131   7.512   6.438  2.6035  4.4132  2.8099
  121MOL   H11914759   5.013   7.624   6.387 -1.2046 -3.0484 -0.3800
  121MOL   H12014760   5.008   7.443   6.223 -0.9203  0.9182 -0.0279
  121MOL   H12114761   5.069   7.574   6.138  2.5370 -1.2541 -1.1132
  121MOL   H12214762   5.176   7.452   6.195 -0.9896  1.4282 -3.7246
  122MOL     C114763   4.088   6.515   2.206  0.7412 -0.5998 -0.3072
  122MOL     C214764   3.967   6.537   2.115  0.1275  0.2355  0.2692
  122MOL     H314765   4.172   6.457   2.168  1.3263  0.7722 -1.1730
  122MOL     H414766   4.058   6.463   2.297  1.8294 -2.4030 -0.9557
  122MOL     H514767   3.997   6.578   2.019  0.2666  1.1853  0.7144
  122MOL     H614768   3.956   6.431   2.090 -2.0387  0.4676  0.1970
  122MOL     H714769   4.149   6.599   2.239  0.2993 -0.8697  1.2412
  122MOL     C814770   3.828   6.597   2.156  0.2067  0.2115 -0.3394
  122MOL     C914771   3.825   6.755   2.162  0.6392  0.3341 -0.6579
  122MOL    H1014772   3.743   6.561   2.098 -1.0908  1.0492  0.9923
  122MOL    H1114773   3.809   6.565   2.258  1.3698  0.1939 -0.1249
  122MOL    H1214774   3.903   6.777   2.236 -1.1633 -0.8340  1.6586
  122MOL    H1314775   3.852   6.796   2.065  0.6991 -2.7004 -1.9974
  122MOL    C1414776   3.702   6.820   2.232 -0.3798 -0.1529  0.2398
  122MOL    C1514777   3.708   6.975   2.218  0.1782  0.0277 -1.1450
  122MOL    H1614778   3.618   6.792   2.167  0.2384 -0.7103 -0.3293
  122MOL    H1714779   3.686   6.775   2.330  2.0907 -1.2620  0.1596
  122MOL    H1814780   3.798   6.997   2.276  0.1026 -1.0479 -0.6049
  122MOL    H1914781   3.726   7.005   2.114  0.7380 -1.9650 -1.6628
  122MOL    C2014782   3.580   7.035   2.275 -0.4935 -0.0563  0.4580
  122MOL    C2114783   3.589   7.187   2.290 -0.0005  0.5530 -0.1160
  122MOL    H2214784   3.499   7.017   2.204 -2.4827 -0.5818  2.8089
  122MOL    H2314785   3.552   6.989   2.370  0.7231 -0.7374  0.4956
  122MOL    H2414786   3.682   7.209   2.342  0.2316  1.7684 -1.0393
  122MOL    H2514787   3.604   7.243   2.198  0.3158 -0.5159 -0.7161
  122MOL    C2614788   3.480   7.243   2.371  0.4152  0.3012 -0.0619
  122MOL    C2714789   3.484   7.389   2.392  0.2051  0.0167  0.1874
  122MOL    H2814790   3.387   7.213   2.322 -0.0650 -0.6070  1.3963
  122MOL    H2914791   3.474   7.192   2.467 -2.6735 -1.4538 -1.1174
  122MOL    H3014792   3.569   7.418   2.455  0.3804 -1.0633  0.4553
  122MOL    H3114793   3.500   7.438   2.295 -1.7458  1.5474  0.6145
  122MOL    C3214794   3.348   7.438   2.456 -0.0899 -0.2560 -0.5531
  122MOL    C3314795   3.344   7.591   2.458 -1.0021  0.1591 -0.1682
  122MOL    H3414796   3.268   7.401   2.392  1.5353 -1.0170 -2.1884
  122MOL    H3514797   3.344   7.405   2.560  0.6631 -1.1313 -0.7946
  122MOL    H3614798   3.420   7.624   2.529 -0.5271 -2.5372  0.6277
  122MOL    H3714799   3.366   7.634   2.360 -1.2833 -0.1674 -0.3770
  122MOL    C3814800   3.212   7.647   2.514 -0.8231  0.3839  0.7670
  122MOL    C3914801   3.218   0.109   2.530 -0.2771 -0.2678 -0.0484
  122MOL    H4014802   3.135   7.611   2.445 -0.5010  3.3802 -1.2677
  122MOL    H4114803   3.187   7.590   2.603  1.3922  1.5899  2.2023
  122MOL    H4214804   3.294   0.133   2.605 -0.0683  2.4806 -1.0863
  122MOL    H4314805   3.254   0.163   2.442 -0.7861 -1.2836 -0.8866
  122MOL    C4414806   3.086   0.182   2.580  0.2349 -1.0061 -0.6919
  122MOL    C4514807   3.028   0.113   2.707 -0.0872 -0.1164  0.7852
  122MOL    H4614808   3.103   0.286   2.605 -0.6960 -0.5792 -1.8010
  122MOL    H4714809   3.012   0.174   2.500  0.5902  2.1575 -1.3930
  122MOL    H4814810   3.027   0.005   2.696 -2.7899 -0.1210  0.9327
  122MOL    H4914811   3.090   0.131   2.795 -1.0590  1.6481  1.1415
  122MOL    C5014812   2.891   0.157   2.753  0.2766  0.4432  0.3330
  122MOL    C5114813   2.858   0.071   2.874 -0.6481  0.5028 -1.7429
  122MOL    H5214814   2.893   0.263   2.777  2.8301  0.6760 -0.8129
  122MOL    H5314815   2.821   0.135   2.672  0.9425 -0.7041  0.0693
  122MOL    H5414816   2.881   7.657   2.861 -0.5672  0.4178 -0.9264
  122MOL    H5514817   2.926   0.094   2.956  0.2662  1.6592 -2.8178
  122MOL    C5614818   2.719   0.082   2.930  0.2533  0.0452 -0.1383
  122MOL    C5714819   2.706   7.680   3.061 -0.1531 -0.3866  0.7246
  122MOL    H5814820   2.695   0.187   2.950  1.1910 -0.0803  1.7006
  122MOL    H5914821   2.650   0.038   2.857 -0.4616 -0.3725  0.7777
  122MOL    H6014822   2.727   7.574   3.043  0.7130 -0.1721  0.4703
  122MOL    H6114823   2.766   0.023   3.145  0.3236 -1.3038  0.7726
  122MOL    C6214824   2.553   7.676   3.102 -0.3753 -0.5853 -0.2779
  122MOL    C6314825   2.506   0.125   3.151  0.0357  0.6951 -0.8454
  122MOL    H6414826   2.491   7.648   3.017  0.9341 -3.1592 -0.4411
  122MOL    H6514827   2.536   7.594   3.172  0.8384 -1.5419 -1.0802
  122MOL    H6614828   2.566   0.146   3.239  1.8471  1.2644 -2.1636
  122MOL    H6714829   2.509   0.205   3.076  0.0808  0.0695 -1.5193
  122MOL    C6814830   2.354   0.118   3.186  0.4251  0.5507  1.1572
  122MOL    C6914831   2.290   0.256   3.197  0.5022 -0.6980 -0.1990
  122MOL    H7014832   2.303   0.052   3.116  1.6309  2.1148 -1.2620
  122MOL    H7114833   2.335   0.066   3.280 -1.2086 -0.3752  0.3326
  122MOL    H7214834   2.354   0.313   3.265  1.2766 -0.0496 -1.4287
  122MOL    H7314835   2.294   0.311   3.102 -1.5688  3.0112  1.7419
  122MOL    C7414836   2.149   0.257   3.247 -0.8898  0.2846  0.3169
  122MOL    C7514837   2.052   0.224   3.142 -0.0183  0.0480  0.2238
  122MOL    H7614838   2.131   0.204   3.340  1.6827 -1.5706 -0.1772
  122MOL    H7714839   2.125   0.359   3.276  4.1030  1.8293 -0.4398
  122MOL    H7814840   2.075   0.287   3.056 -0.7930 -1.6480 -1.2695
  122MOL    H7914841   2.071   0.121   3.110 -1.2012  0.2992 -1.3971
  122MOL    C8014842   1.911   0.270   3.185  0.5607  0.5541  0.2543
  122MOL    C8114843   1.805   0.265   3.080  0.1605 -0.6666  0.1809
  122MOL    H8214844   1.879   0.211   3.271 -4.4293  0.8746 -1.2211
  122MOL    H8314845   1.911   0.368   3.233 -1.6997  0.5362  0.3759
  122MOL    H8414846   1.831   0.323   2.992 -0.9077 -0.7515 -0.1992
  122MOL    H8514847   1.793   0.163   3.042 -1.4602 -0.2116 -0.5798
  122MOL    C8614848   1.662   0.319   3.122 -0.0126  0.0877 -0.0990
  122MOL    C8714849   1.556   0.329   3.020  0.3463 -0.2429 -0.4926
  122MOL    H8814850   1.627   0.249   3.198 -1.9286  0.9460 -0.1708
  122MOL    H8914851   1.673   0.413   3.177 -3.1416  0.7685 -0.5538
  122MOL    H9014852   1.599   0.386   2.937 -1.8034  2.9794  0.4892
  122MOL    H9114853   1.543   0.232   2.972 -0.8039  1.3674 -3.6030
  122MOL    C9214854   1.414   0.384   3.047  0.4920  1.0214 -0.0701
  122MOL    C9314855   1.335   0.397   2.907 -0.7789  0.0497 -0.1481
  122MOL    H9414856   1.356   0.318   3.111 -0.8157  1.4487 -0.7964
  122MOL    H9514857   1.412   0.485   3.089 -0.5333  1.2652 -0.6861
  122MOL    H9614858   1.393   0.470   2.851  0.6847 -2.2263 -1.6760
  122MOL    H9714859   1.336   0.300   2.858  2.1661 -0.0762  0.0801
  122MOL    C9814860   1.189   0.442   2.919 -0.3709  0.2414 -0.1000
  122MOL    C9914861   1.128   0.464   2.781 -0.0691 -0.5817 -0.3470
  122MOL   H10014862   1.121   0.377   2.976 -2.4308  1.6692 -0.8768
  122MOL   H10114863   1.199   0.543   2.957  1.2390  0.3219 -0.7155
  122MOL   H10214864   1.187   0.530   2.717  1.0209 -0.7950  0.4179
  122MOL   H10314865   1.133   0.368   2.729 -0.3813 -0.6518 -0.2499
  122MOL   C10414866   0.985   0.531   2.801  0.3414 -0.4081  0.1055
  122MOL   C10514867   0.897   0.532   2.674  0.5479  0.9111  0.3888
  122MOL   H10614868   0.932   0.483   2.883 -1.0075  0.1489 -0.4331
  122MOL   H10714869   0.995   0.629   2.847 -0.9797  0.2242 -0.9198
  122MOL   H10814870   0.918   0.616   2.609 -0.5833  0.7347 -0.2128
  122MOL   H10914871   0.900   0.438   2.619 -1.4169  1.3269 -0.4756
  122MOL   C11014872   0.749   0.553   2.698  0.4280 -0.3407 -0.1109
  122MOL   C11114873   0.676   0.568   2.558 -0.0276 -0.5640  0.3531
  122MOL   H11214874   0.703   0.471   2.752  0.9669 -0.9225 -0.5350
  122MOL   H11314875   0.740   0.641   2.761 -0.2836 -0.4005 -0.1292
  122MOL   H11414876   0.730   0.646   2.504 -0.6745 -0.0737  0.4187
  122MOL   H11514877   0.681   0.478   2.496 -1.4345  0.1386 -0.8309
  122MOL   C11614878   0.530   0.615   2.577 -0.3088 -0.6356  0.4637
  122MOL   C11714879   0.467   0.685   2.453  0.0591 -0.1088  0.9067
  122MOL   H11814880   0.478   0.525   2.608 -2.3558 -0.2817 -1.8369
  122MOL   H11914881   0.527   0.686   2.660  1.1569  0.8087 -0.6727
  122MOL   H12014882   0.489   0.622   2.367 -0.4668  1.4772 -0.4164
  122MOL   H12114883   0.358   0.683   2.464  0.1166 -0.8908  1.4018
  122MOL   H12214884   0.504   0.783   2.424  3.0720 -1.4698 -0.1004
  123MOL     C114885   3.091   3.363   1.441 -0.1700 -0.1976 -0.3354
  123MOL     C214886   2.944   3.351   1.383 -0.0136  0.2339  0.1621
  123MOL     H314887   3.134   3.449   1.390 -1.5074  2.7829  3.3900
  123MOL     H414888   3.145   3.270   1.421 -2.2734 -1.3505 -0.8160
  123MOL     H514889   2.880   3.435   1.409  1.2032  2.4444 -3.5768
  123MOL     H614890   2.956   3.353   1.274  1.1573  0.7935  0.2892
  123MOL     H714891   3.091   3.382   1.548 -1.0282 -2.3948  0.0714
  123MOL     C814892   2.876   3.211   1.423  0.7815 -0.1060  0.1096
  123MOL     C914893   2.758   3.173   1.340  0.4578 -0.5290 -0.0969
  123MOL    H1014894   2.957   3.138   1.421  1.2629  0.4061  0.7644
  123MOL    H1114895   2.844   3.214   1.527 -1.0088 -0.2982 -0.4163
  123MOL    H1214896   2.684   3.252   1.330  0.9813  0.5410  3.7734
  123MOL    H1314897   2.782   3.159   1.235 -2.6593 -1.1027 -0.7631
  123MOL    C1414898   2.682   3.050   1.390  0.3128 -0.7646 -0.2687
  123MOL    C1514899   2.749   2.914   1.400 -0.0451  0.6431 -0.0140
  123MOL    H1614900   2.645   3.064   1.491  1.6519 -0.0116  0.1222
  123MOL    H1714901   2.605   3.037   1.314 -0.9000 -0.8937  0.9729
  123MOL    H1814902   2.801   2.883   1.310  0.5642  0.6346  0.3379
  123MOL    H1914903   2.827   2.943   1.472 -1.7943  0.4231  2.0100
  123MOL    C2014904   2.657   2.795   1.443  0.3317  1.0455 -0.0257
  123MOL    C2114905   2.731   2.661   1.486 -0.3527 -0.2175  0.5595
  123MOL    H2214906   2.587   2.823   1.522 -1.0289 -1.3886 -0.3370
  123MOL    H2314907   2.590   2.767   1.362  0.4907 -1.6589  0.7346
  123MOL    H2414908   2.785   2.627   1.397  1.1529 -0.6164  1.5976
  123MOL    H2514909   2.801   2.676   1.568 -0.3021  0.9614  0.3033
  123MOL    C2614910   2.633   2.551   1.525 -0.1122  0.0386  0.7675
  123MOL    C2714911   2.701   2.408   1.543 -0.1347 -0.2388  0.0657
  123MOL    H2814912   2.581   2.587   1.614 -0.4747  1.6904 -0.0843
  123MOL    H2914913   2.552   2.538   1.454  0.2935 -1.1637  0.5218
  123MOL    H3014914   2.748   2.383   1.447  0.6717  0.8949  0.1530
  123MOL    H3114915   2.778   2.422   1.619 -0.4179  0.4026  0.2391
  123MOL    C3214916   2.595   2.302   1.586  0.3714 -0.9245 -0.3975
  123MOL    C3314917   2.667   2.180   1.652  0.2912 -0.0086  0.2906
  123MOL    H3414918   2.522   2.339   1.658  0.8115  2.0441 -1.4081
  123MOL    H3514919   2.536   2.271   1.499 -0.6136 -0.9541  0.2801
  123MOL    H3614920   2.726   2.207   1.740  2.1269 -0.8194 -0.6508
  123MOL    H3714921   2.594   2.112   1.695 -2.9436  2.6290 -0.8045
  123MOL    C3814922   2.760   2.096   1.564 -0.1228 -1.3488 -0.0290
  123MOL    C3914923   2.909   2.112   1.612 -0.9420  0.9062 -0.2839
  123MOL    H4014924   2.723   1.995   1.576 -0.1920 -1.4514 -1.0858
  123MOL    H4114925   2.739   2.120   1.460  0.3062 -3.4987 -0.6329
  123MOL    H4214926   2.939   2.216   1.616 -0.6501  0.8037  0.3041
  123MOL    H4314927   2.905   2.072   1.714  1.4959  1.4712  0.0679
  123MOL    C4414928   2.998   2.018   1.521  0.4807  0.2370 -0.1242
  123MOL    C4514929   3.136   1.996   1.594  0.3777 -0.3013 -0.4903
  123MOL    H4614930   2.953   1.920   1.508 -1.5590  1.1835 -0.5153
  123MOL    H4714931   3.021   2.067   1.426  2.3657 -0.5233 -0.0731
  123MOL    H4814932   3.193   2.084   1.623  0.5675  0.1323 -2.1558
  123MOL    H4914933   3.104   1.956   1.691 -1.0491  1.4032 -0.2367
  123MOL    C5014934   3.221   1.900   1.505 -0.2056 -0.0577 -0.2732
  123MOL    C5114935   3.362   1.892   1.555 -0.0827 -0.6092 -0.2299
  123MOL    H5214936   3.171   1.804   1.502 -0.6530  0.0270  2.8480
  123MOL    H5314937   3.221   1.954   1.410 -0.4843  0.3013 -0.0699
  123MOL    H5414938   3.392   1.979   1.614  1.1799 -1.4155  0.3518
  123MOL    H5514939   3.381   1.808   1.623  3.0469 -0.3523 -0.7126
  123MOL    C5614940   3.466   1.850   1.454  0.5479  0.7643  0.4660
  123MOL    C5714941   3.610   1.835   1.506 -0.4999  0.4291  0.1513
  123MOL    H5814942   3.448   1.747   1.423  0.4776  1.3536 -1.5230
  123MOL    H5914943   3.458   1.911   1.363  0.0263 -0.9326 -0.6419
  123MOL    H6014944   3.653   1.932   1.532  2.1205 -0.3296 -1.1167
  123MOL    H6114945   3.611   1.772   1.595  0.9511 -1.3793 -1.1118
  123MOL    C6214946   3.692   1.785   1.389  0.5755  0.2347 -0.7347
  123MOL    C6314947   3.845   1.804   1.429 -0.3018  0.1724  0.0227
  123MOL    H6414948   3.664   1.682   1.370  0.0142  0.6659 -2.2985
  123MOL    H6514949   3.678   1.833   1.292  0.8717 -0.8664 -1.3208
  123MOL    H6614950   3.869   1.910   1.437  0.6101  0.0953 -1.6324
  123MOL    H6714951   3.859   1.771   1.533 -0.1903  0.7152  0.1819
  123MOL    C6814952   3.940   1.739   1.338 -1.3483 -0.0817 -0.2548
  123MOL    C6914953   4.088   1.751   1.386 -0.9502  0.1680  0.5047
  123MOL    H7014954   3.915   1.642   1.295  0.4809 -1.0976  0.9468
  123MOL    H7114955   3.938   1.798   1.246  1.1157  0.3361 -0.0675
  123MOL    H7214956   4.109   1.858   1.388 -0.0089  0.0484 -1.2968
  123MOL    H7314957   4.099   1.708   1.485  0.4577 -0.8312 -0.0647
  123MOL    C7414958   4.201   1.685   1.295 -0.2756  1.0787 -0.4578
  123MOL    C7514959   4.347   1.721   1.338  0.0954 -0.3853  0.1247
  123MOL    H7614960   4.185   1.577   1.301 -1.3933  0.9757 -4.0559
  123MOL    H7714961   4.191   1.719   1.192 -2.3722  2.3551  0.1294
  123MOL    H7814962   4.352   1.830   1.335  0.0213 -0.4453 -2.7302
  123MOL    H7914963   4.375   1.688   1.439  0.2249  0.1272  0.2618
  123MOL    C8014964   4.460   1.670   1.238 -0.4188 -0.2144 -0.3350
  123MOL    C8114965   4.605   1.701   1.282 -0.1283  0.2041 -0.4704
  123MOL    H8214966   4.449   1.563   1.222 -0.0288 -0.4247  0.7167
  123MOL    H8314967   4.454   1.724   1.144 -1.6257  1.9946  0.9575
  123MOL    H8414968   4.624   1.806   1.258 -1.4586  0.2685 -1.3396
  123MOL    H8514969   4.618   1.683   1.389 -1.1002 -0.0061 -0.3776
  123MOL    C8614970   4.705   1.622   1.194 -0.7925 -0.3285  0.0194
  123MOL    C8714971   4.850   1.635   1.255  0.1936 -0.1100  0.9935
  123MOL    H8814972   4.675   1.518   1.202  0.5459 -0.8639 -1.6011
  123MOL    H8914973   4.682   1.654   1.093 -1.5433  3.1251  1.1990
  123MOL    H9014974   4.872   1.739   1.277  2.3267 -0.3805  0.2854
  123MOL    H9114975   4.852   1.600   1.358 -0.0112 -0.0376  1.0209
  123MOL    C9214976   4.957   1.540   1.185  0.2168 -0.3731 -0.7113
  123MOL    C9314977   5.094   1.569   1.234  0.1245 -0.0080  0.0251
  123MOL    H9414978   4.919   1.437   1.191  0.1136 -0.2569  0.7888
  123MOL    H9514979   4.958   1.569   1.080  2.8334  0.3009 -0.5179
  123MOL    H9614980   5.124   1.674   1.230  0.6773 -0.2183 -1.8769
  123MOL    H9714981   5.096   1.534   1.337 -1.1991  2.0378  0.7755
  123MOL    C9814982   5.186   1.479   1.155  0.3576 -0.3706  0.6959
  123MOL    C9914983   5.339   1.499   1.188  0.1719 -0.2775  0.0937
  123MOL   H10014984   5.155   1.376   1.168 -0.2736 -0.1100  1.2639
  123MOL   H10114985   5.175   1.507   1.050 -0.3252  0.6745  1.0339
  123MOL   H10214986   5.347   1.503   1.296 -0.6545  2.0747  0.0990
  123MOL   H10314987   5.396   1.411   1.158  0.3086  0.2749 -1.3178
  123MOL   C10414988   5.406   1.625   1.123 -0.1902 -0.2911 -0.4291
  123MOL   C10514989   5.559   1.630   1.152 -0.6534 -0.9005 -0.5432
  123MOL   H10614990   5.389   1.605   1.017  1.4617  1.2367 -0.9981
  123MOL   H10714991   5.349   1.716   1.141 -1.1567 -1.0390  0.4400
  123MOL   H10814992   5.588   1.651   1.255 -2.8061  0.1628 -0.1181
  123MOL   H10914993   5.602   1.532   1.131  0.8552 -0.9461  2.5877
  123MOL   C11014994   5.622   1.737   1.064  0.7033 -0.2065 -0.3506
  123MOL   C11114995   5.768   1.719   1.050  0.3154 -0.1645 -0.4872
  123MOL   H11214996   5.573   1.736   0.967  1.6169 -1.0562 -0.8112
  123MOL   H11314997   5.607   1.839   1.098 -1.6563 -0.2893 -1.0853
  123MOL   H11414998   5.781   1.616   1.017  1.3764 -0.7519  1.6558
  123MOL   H11514999   5.810   1.783   0.972  1.6918  1.7177  1.7494
  123MOL   C11615000   5.855   1.747   1.179 -0.1515 -0.3119 -0.0685
  123MOL   C11715001   5.997   1.705   1.153  0.2950 -0.4131 -0.2325
  123MOL   H11815002   5.855   1.852   1.206  1.7895 -0.0298 -1.0292
  123MOL   H11915003   5.824   1.697   1.271 -0.5150 -0.5682 -0.3281
  123MOL   H12015004   6.049   1.758   1.072  0.0912  0.3002  0.0938
  123MOL   H12115005   6.064   1.701   1.239  0.6899 -3.1487 -0.6443
  123MOL   H12215006   5.988   1.601   1.124 -2.3235  0.4374 -2.7237
  124MOL     C115007   3.032   4.203   1.828  0.8415 -0.1904  0.7731
  124MOL     C215008   3.169   4.250   1.779 -0.0680  0.0086 -0.0175
  124MOL     H315009   3.021   4.211   1.936 -0.4219  0.5255  0.5966
  124MOL     H415010   2.993   4.108   1.790  0.7977  0.6368 -1.3020
  124MOL     H515011   3.188   4.349   1.819  1.5039 -0.5301  0.6162
  124MOL     H615012   3.255   4.190   1.809 -0.7793 -0.8814  0.2848
  124MOL     H715013   2.964   4.280   1.791  0.8490  0.2027  1.5700
  124MOL     C815014   3.171   4.262   1.626 -0.0497  0.5400  0.9964
  124MOL     C915015   3.307   4.301   1.561  0.3422  0.2757 -1.0528
  124MOL    H1015016   3.146   4.163   1.587 -0.3532  0.0525  2.3938
  124MOL    H1115017   3.092   4.323   1.582 -0.1452 -0.1925  0.1327
  124MOL    H1215018   3.339   4.403   1.584 -1.3444 -0.0780  3.4082
  124MOL    H1315019   3.384   4.233   1.597 -0.0220 -0.6097 -1.9310
  124MOL    C1415020   3.314   4.302   1.403  0.0399  0.0988  0.6620
  124MOL    C1515021   3.287   4.168   1.324  0.4784 -0.2327 -0.4957
  124MOL    H1615022   3.254   4.388   1.373 -1.4634 -0.7233  1.3301
  124MOL    H1715023   3.417   4.327   1.375  0.4104  0.1571  2.0638
  124MOL    H1815024   3.367   4.096   1.343 -0.0097  0.3574  4.3188
  124MOL    H1915025   3.197   4.120   1.361 -0.4693  0.1069 -2.2940
  124MOL    C2015026   3.260   4.189   1.177 -0.2688 -0.4141  0.4632
  124MOL    C2115027   3.241   4.067   1.092  0.8577  0.3984 -0.1275
  124MOL    H2215028   3.165   4.243   1.173  0.0472  0.0686 -0.8046
  124MOL    H2315029   3.330   4.256   1.127 -2.8287  2.5303  0.6612
  124MOL    H2415030   3.339   4.020   1.094  1.1700  0.9725 -1.1437
  124MOL    H2515031   3.160   4.001   1.124 -0.1759  0.8494 -1.7386
  124MOL    C2615032   3.205   4.102   0.943  0.2472  0.0330 -0.0989
  124MOL    C2715033   3.153   3.985   0.853  0.1375 -0.2977 -0.4250
  124MOL    H2815034   3.129   4.179   0.929  0.6209  0.4377  0.1026
  124MOL    H2915035   3.295   4.148   0.904 -0.3676  1.5726  0.2335
  124MOL    H3015036   3.188   3.999   0.751  0.6269 -2.3906 -0.5702
  124MOL    H3115037   3.188   3.891   0.896  2.6378  0.8738  0.2366
  124MOL    C3215038   2.997   3.989   0.845  0.6931 -0.7716  0.5555
  124MOL    C3315039   2.949   3.887   0.735  0.0436 -0.1090 -0.6804
  124MOL    H3415040   2.963   3.953   0.942  2.8942 -0.7022  1.3767
  124MOL    H3515041   2.953   4.088   0.828  0.2501 -0.6846  2.1605
  124MOL    H3615042   3.007   3.915   0.647  0.4733  0.3118 -0.2651
  124MOL    H3715043   2.998   3.795   0.766  0.5725  0.6474  0.8095
  124MOL    C3815044   2.795   3.890   0.706 -0.8156 -0.5198  0.1786
  124MOL    C3915045   2.761   3.828   0.572 -0.8127 -0.1665 -0.1399
  124MOL    H4015046   2.737   3.847   0.787 -1.9045 -0.8373 -0.7481
  124MOL    H4115047   2.766   3.994   0.695 -1.1106 -0.8173 -2.2191
  124MOL    H4215048   2.843   3.837   0.500 -1.6938 -1.3415 -1.3333
  124MOL    H4315049   2.761   3.719   0.576 -1.7391 -0.0978  2.3712
  124MOL    C4415050   2.630   3.885   0.513 -0.4649  0.5754 -0.1241
  124MOL    C4515051   2.591   3.795   0.385  0.3638  0.0683 -0.8790
  124MOL    H4615052   2.556   3.871   0.592  0.9062  1.2087  1.3052
  124MOL    H4715053   2.635   3.991   0.492  2.4863  0.6053  0.4612
  124MOL    H4815054   2.674   3.733   0.350  0.2063 -0.4731 -0.2909
  124MOL    H4915055   2.504   3.731   0.397  0.6547 -0.3964 -1.2464
  124MOL    C5015056   2.553   3.887   0.261 -0.5207  0.4422 -0.3656
  124MOL    C5115057   2.507   3.788   0.154 -0.5559 -0.1239  0.8797
  124MOL    H5215058   2.484   3.965   0.293  0.1971  0.6447  0.7252
  124MOL    H5315059   2.644   3.939   0.231  1.0743 -2.3277 -0.4971
  124MOL    H5415060   2.586   3.716   0.130 -1.5206 -0.0091 -3.0583
  124MOL    H5515061   2.427   3.725   0.192 -1.9375  0.8320 -0.3680
  124MOL    C5615062   2.480   3.856   0.026 -0.1436 -0.5981  0.7780
  124MOL    C5715063   2.433   3.753   7.613  0.1143  0.0176 -0.0167
  124MOL    H5815064   2.403   3.928   0.053  2.5152  2.2327  1.0819
  124MOL    H5915065   2.568   3.903   7.674  0.7104 -2.0511  0.8838
  124MOL    H6015066   2.507   3.673   7.613  0.0412 -0.0639  1.2741
  124MOL    H6115067   2.335   3.718   7.647  0.4404  0.1563  1.0849
  124MOL    C6215068   2.405   3.816   7.474  0.2177  0.1403  0.2613
  124MOL    C6315069   2.346   3.714   7.370  0.3304 -0.0164 -0.5390
  124MOL    H6415070   2.336   3.900   7.486  2.3719  1.9784  0.0906
  124MOL    H6515071   2.497   3.856   7.431  1.1402 -1.3342  0.8453
  124MOL    H6615072   2.390   3.732   7.271  1.1310  0.3168 -0.1241
  124MOL    H6715073   2.388   3.618   7.399 -0.9133 -0.4636 -0.2198
  124MOL    C6815074   2.189   3.715   7.355  1.0716  0.9324 -0.3970
  124MOL    C6915075   2.135   3.825   7.261  0.4754  0.1897 -0.4726
  124MOL    H7015076   2.148   3.618   7.327  2.6701 -0.0913  0.7589
  124MOL    H7115077   2.151   3.738   7.454 -0.5085 -1.0744 -0.4986
  124MOL    H7215078   2.166   3.919   7.307 -0.5928 -0.0265  0.7052
  124MOL    H7315079   2.181   3.838   7.163 -0.9491  1.1159 -1.0413
  124MOL    C7415080   1.982   3.823   7.248  0.3532 -0.8402  0.3075
  124MOL    C7515081   1.919   3.926   7.161  0.1912 -0.3269  0.2451
  124MOL    H7615082   1.967   3.725   7.204 -0.2631 -0.7584  0.3401
  124MOL    H7715083   1.947   3.819   7.351  1.9673  1.5380  0.9817
  124MOL    H7815084   1.937   4.021   7.212  2.4657 -0.3619 -0.4206
  124MOL    H7915085   1.956   3.926   7.058 -1.1251 -2.5301 -0.2651
  124MOL    C8015086   1.768   3.910   7.161 -0.2528 -0.5520  0.0173
  124MOL    C8115087   1.692   4.033   7.101  0.4462 -0.3360  0.2011
  124MOL    H8215088   1.740   3.817   7.113 -1.0354  0.0332 -0.6682
  124MOL    H8315089   1.734   3.900   7.264  0.7419 -1.3572  0.2706
  124MOL    H8415090   1.715   4.056   6.997 -0.3972 -1.1848 -0.1764
  124MOL    H8515091   1.583   4.022   7.103  0.3332  0.8282  1.6044
  124MOL    C8615092   1.704   4.158   7.186 -0.3791 -0.1091 -0.2101
  124MOL    C8715093   1.597   4.270   7.161 -0.4533  0.0987  0.7559
  124MOL    H8815094   1.691   4.126   7.289  1.0871  1.0612  0.3562
  124MOL    H8915095   1.807   4.192   7.172 -0.9148  2.2794  1.2398
  124MOL    H9015096   1.620   4.315   7.065  3.3469  0.5948  1.8198
  124MOL    H9115097   1.497   4.226   7.162 -0.9024  1.0171 -1.0745
  124MOL    C9215098   1.602   4.381   7.264  0.3274  1.1013  0.2197
  124MOL    C9315099   1.736   4.465   7.263  0.7695  0.0471 -0.1013
  124MOL    H9415100   1.528   4.456   7.236  0.3131  0.0762 -2.5609
  124MOL    H9515101   1.586   4.346   7.366  3.0354  1.3545  0.7858
  124MOL    H9615102   1.824   4.417   7.307  2.2556  0.6791 -2.2993
  124MOL    H9715103   1.774   4.473   7.162 -0.1148 -0.9297 -0.5216
  124MOL    C9815104   1.708   4.605   7.324 -0.0605  0.1447  1.1624
  124MOL    C9915105   1.842   4.683   7.344  0.9702 -0.1609 -0.1966
  124MOL   H10015106   1.642   4.676   7.276 -0.9635 -1.9408 -0.7576
  124MOL   H10115107   1.671   4.593   7.426  1.9248  1.5240  2.0959
  124MOL   H10215108   1.913   4.632   7.410  0.7472  1.3350  1.2136
  124MOL   H10315109   1.886   4.711   7.248 -0.5988 -0.7799 -1.1193
  124MOL   C10415110   1.817   4.809   7.428  0.6571  0.0207 -0.1449
  124MOL   C10515111   1.937   4.902   7.439 -0.6992  0.3163 -0.2441
  124MOL   H10615112   1.742   4.871   7.378 -0.3071 -1.6406 -0.7968
  124MOL   H10715113   1.780   4.781   7.527  4.0932  0.7095  1.3992
  124MOL   H10815114   2.033   4.854   7.459 -1.4970 -1.0370  0.4343
  124MOL   H10915115   1.950   4.928   7.334 -0.0950  1.2660  0.0640
  124MOL   C11015116   1.920   5.029   7.526  0.2306  0.0989  0.6352
  124MOL   C11115117   2.053   5.112   7.526 -0.2959  0.5959 -0.2707
  124MOL   H11215118   1.838   5.085   7.481  2.1696  2.2844 -0.2683
  124MOL   H11315119   1.886   5.008   7.628 -2.2062 -0.0722 -0.1944
  124MOL   H11415120   2.133   5.071   7.587 -1.8873 -1.0269  0.7870
  124MOL   H11515121   2.082   5.113   7.421 -0.7481 -0.0443 -0.4091
  124MOL   C11615122   2.034   5.253   7.576 -0.4203 -0.0405 -0.4684
  124MOL   C11715123   2.021   5.256   0.035  0.5211  0.1131  0.2711
  124MOL   H11815124   2.112   5.318   7.539  0.0190  0.9030  2.0299
  124MOL   H11915125   1.946   5.292   7.524 -0.1095  3.7547  1.6983
  124MOL   H12015126   2.015   5.356   0.079 -1.4218  1.1629 -2.2274
  124MOL   H12115127   1.930   5.203   0.062 -1.9070  2.5045 -2.8183
  124MOL   H12215128   2.101   5.205   0.088  1.2672  0.6244 -0.3643
  125MOL     C115129   6.855   1.925   0.714 -0.5684  0.9041  0.5722
  125MOL     C215130   6.749   1.896   0.603 -0.8642  0.2845  0.2939
  125MOL     H315131   6.926   1.996   0.673  0.5504 -0.3208  0.3842
  125MOL     H415132   6.911   1.841   0.756 -2.9786 -0.0327  2.0255
  125MOL     H515133   6.678   1.822   0.640  1.1170 -2.7602 -1.7525
  125MOL     H615134   6.699   1.992   0.594 -0.1907  0.6640  0.5438
  125MOL     H715135   6.813   1.974   0.803 -2.5751  0.7641 -0.2750
  125MOL     C815136   6.823   1.855   0.473  0.5797  0.1218 -0.1992
  125MOL     C915137   6.725   1.817   0.361  0.4934  0.5572  0.0732
  125MOL    H1015138   6.886   1.938   0.440 -1.4033  1.5773 -0.4362
  125MOL    H1115139   6.892   1.771   0.485  0.7779  0.3086 -0.0200
  125MOL    H1215140   6.666   1.735   0.402 -0.1297  1.4617  1.0242
  125MOL    H1315141   6.644   1.890   0.352  0.7393  0.6603 -1.4303
  125MOL    C1415142   6.790   1.797   0.223 -0.4549  0.3517 -0.1700
  125MOL    C1515143   6.682   1.770   0.126  1.0595  0.3379  0.2393
  125MOL    H1615144   6.842   1.886   0.188 -1.7728  1.3441  0.3372
  125MOL    H1715145   6.873   1.727   0.228 -0.6792  0.0018 -1.2684
  125MOL    H1815146   6.650   1.666   0.135 -0.7904  0.7483 -1.0716
  125MOL    H1915147   6.591   1.827   0.146  0.9826  0.0720  0.6312
  125MOL    C2015148   6.724   1.779   7.668  0.4115  0.7447  0.1241
  125MOL    C2115149   6.638   1.681   7.575 -0.2682  0.0129  0.2309
  125MOL    H2215150   6.704   1.882   7.639 -2.2328  0.1130 -0.4102
  125MOL    H2315151   6.828   1.748   7.664 -0.4346 -2.2256  0.1081
  125MOL    H2415152   6.683   1.582   7.576 -1.2709 -0.4497  0.0420
  125MOL    H2515153   6.534   1.672   7.606 -0.8162 -2.0816 -2.0889
  125MOL    C2615154   6.615   1.738   7.436  0.4076  0.0033 -0.7383
  125MOL    C2715155   6.535   1.649   7.339 -0.2220 -0.5092 -0.1362
  125MOL    H2815156   6.569   1.837   7.442  0.3828 -0.0680  0.3575
  125MOL    H2915157   6.713   1.760   7.395  1.0575  1.8610  1.7018
  125MOL    H3015158   6.443   1.613   7.385  0.3518  0.4455  1.8488
  125MOL    H3115159   6.506   1.713   7.256 -2.9925 -1.5982 -0.0711
  125MOL    C3215160   6.607   1.523   7.288  0.1982 -0.7733 -0.3916
  125MOL    C3315161   6.544   1.470   7.160  0.0246  0.9746  0.2470
  125MOL    H3415162   6.712   1.537   7.261  0.2282 -0.9069 -0.3443
  125MOL    H3515163   6.606   1.451   7.369  0.1755 -0.4169 -0.0715
  125MOL    H3615164   6.437   1.483   7.178 -0.3854 -1.0059 -0.6739
  125MOL    H3715165   6.582   1.540   7.085  2.9408 -0.5105  0.2683
  125MOL    C3815166   6.587   1.320   7.139 -0.2175  0.4273  0.2964
  125MOL    C3915167   6.542   1.269   7.008 -0.3615  0.7123 -0.3859
  125MOL    H4015168   6.693   1.310   7.163 -0.1458 -0.5556 -0.4201
  125MOL    H4115169   6.534   1.267   7.218 -1.6673 -0.4708 -1.2419
  125MOL    H4215170   6.436   1.295   6.996 -0.2700  1.7926  0.9465
  125MOL    H4315171   6.575   1.335   6.928  1.4780 -1.3499 -1.3344
  125MOL    C4415172   6.582   1.130   6.970  1.1916  0.9531  0.6855
  125MOL    C4515173   6.477   1.056   6.887 -0.3651 -0.3914 -0.2128
  125MOL    H4615174   6.678   1.145   6.921  1.5845  0.7888  1.4045
  125MOL    H4715175   6.609   1.075   7.060 -2.1519 -1.9691  0.0547
  125MOL    H4815176   6.380   1.048   6.935 -0.7535 -3.0913 -1.3931
  125MOL    H4915177   6.451   1.115   6.799  0.4875  1.6155  0.8271
  125MOL    C5015178   6.527   0.917   6.836 -0.0010 -0.4211 -0.0812
  125MOL    C5115179   6.415   0.839   6.757 -0.3518  0.0408  0.5748
  125MOL    H5215180   6.605   0.943   6.764 -0.9880  3.6380  0.1984
  125MOL    H5315181   6.558   0.859   6.923 -0.6058  0.2893  0.6152
  125MOL    H5415182   6.326   0.809   6.812  0.0286  0.9598  1.6965
  125MOL    H5515183   6.384   0.893   6.667  2.3199 -0.9282 -1.0109
  125MOL    C5615184   6.475   0.705   6.696  0.4383 -0.0132 -0.5551
  125MOL    C5715185   6.385   0.631   6.599 -0.1217 -0.4004 -0.3692
  125MOL    H5815186   6.566   0.742   6.651  0.6986  1.9963  1.4892
  125MOL    H5915187   6.488   0.636   6.780 -0.3604  0.2732 -0.1918
  125MOL    H6015188   6.290   0.604   6.645  1.7516 -2.9817  2.1824
  125MOL    H6115189   6.352   0.701   6.521 -0.8540 -0.0855  0.2200
  125MOL    C6215190   6.436   0.503   6.522  0.3154 -0.5079  0.1479
  125MOL    C6315191   6.332   0.453   6.415 -0.2268 -0.6357  0.0328
  125MOL    H6415192   6.531   0.518   6.472  0.6446 -1.8460  0.3622
  125MOL    H6515193   6.472   0.426   6.590 -1.9344  0.6067  2.7292
  125MOL    H6615194   6.253   0.398   6.467 -0.1965 -0.2585  0.4870
  125MOL    H6715195   6.293   0.530   6.350 -1.0429  0.0239  1.2898
  125MOL    C6815196   6.401   0.355   6.320  0.5875  0.8405  0.5362
  125MOL    C6915197   6.316   0.325   6.195  0.8883  0.2807  0.2151
  125MOL    H7015198   6.496   0.399   6.289  0.2351 -0.1062 -2.0238
  125MOL    H7115199   6.425   0.265   6.377  0.2034  0.4228  0.0446
  125MOL    H7215200   6.223   0.275   6.219  1.0096 -0.0044  0.0938
  125MOL    H7315201   6.292   0.413   6.136  1.0777  0.9295  1.0897
  125MOL    C7415202   6.392   0.230   6.105  0.3164  0.1879 -0.1595
  125MOL    C7515203   6.310   0.176   5.988 -0.4730  0.1147  0.3135
  125MOL    H7615204   6.476   0.291   6.070 -0.3558  0.1207 -1.9275
  125MOL    H7715205   6.445   0.154   6.162  3.1938  2.7388  0.7335
  125MOL    H7815206   6.231   0.111   6.026 -0.7354  0.0319 -0.3739
  125MOL    H7915207   6.266   0.269   5.954  0.1509 -0.1716 -1.3494
  125MOL    C8015208   6.370   0.108   5.867  0.0180  0.4695 -0.0628
  125MOL    C8115209   6.259   0.059   5.771  0.7934  0.3745 -0.6207
  125MOL    H8215210   6.432   0.183   5.817  0.7591  0.4595  0.8194
  125MOL    H8315211   6.441   0.027   5.885  0.0878  0.3109 -1.0115
  125MOL    H8415212   6.212   7.662   5.813 -1.0538  2.2789  1.5088
  125MOL    H8515213   6.182   0.136   5.768  0.1111 -0.2779 -0.0788
  125MOL    C8615214   6.314   0.030   5.631  0.0362  0.3854 -0.4856
  125MOL    C8715215   6.200   0.002   5.531 -0.3261  0.1593 -0.2631
  125MOL    H8815216   6.367   0.120   5.600  2.6491 -0.7341  0.5402
  125MOL    H8915217   6.389   7.643   5.628  0.4728  0.6501  1.9571
  125MOL    H9015218   6.160   7.593   5.534  0.9579 -0.3856 -0.9711
  125MOL    H9115219   6.112   0.061   5.558  0.1221  0.1064  1.4088
  125MOL    C9215220   6.238   0.023   5.385  0.2675  0.6279  0.3303
  125MOL    C9315221   6.295   0.165   5.358 -0.0807 -0.8379  0.0629
  125MOL    H9415222   6.309   7.640   5.349 -0.2609  0.3632 -0.1611
  125MOL    H9515223   6.147   0.003   5.328  0.4737  0.5057  0.0457
  125MOL    H9615224   6.249   0.241   5.421  0.6368  0.3684 -0.8599
  125MOL    H9715225   6.397   0.170   5.398 -0.5736  1.2917  1.1200
  125MOL    C9815226   6.301   0.205   5.208  0.1038  0.1902 -0.6046
  125MOL    C9915227   6.346   0.349   5.187 -0.3882  0.2070  0.3587
  125MOL   H10015228   6.384   0.139   5.184 -0.2177 -1.6671  3.0047
  125MOL   H10115229   6.219   0.184   5.138 -0.6219  0.8584  0.0386
  125MOL   H10215230   6.269   0.416   5.226  0.0809  0.4705  0.8469
  125MOL   H10315231   6.429   0.385   5.249 -0.0409 -0.8141  0.4873
  125MOL   C10415232   6.361   0.402   5.044  0.0694 -0.3033  1.2530
  125MOL   C10515233   6.481   0.337   4.980 -0.0918 -0.5178 -0.3105
  125MOL   H10615234   6.271   0.375   4.988  0.9168  0.2761 -0.3973
  125MOL   H10715235   6.351   0.510   5.035  0.0821 -0.2588  1.7697
  125MOL   H10815236   6.566   0.344   5.047 -0.8098  0.3196  0.5243
  125MOL   H10915237   6.450   0.237   4.948  0.3812 -1.0106  0.7721
  125MOL   C11015238   6.528   0.394   4.847  0.3838  0.4095  0.1501
  125MOL   C11115239   6.656   0.326   4.797  0.7773  0.3045  0.1988
  125MOL   H11215240   6.450   0.394   4.771 -0.2912 -0.3854  0.8318
  125MOL   H11315241   6.543   0.502   4.853 -0.4939  0.6451 -1.4904
  125MOL   H11415242   6.639   0.220   4.777  0.2436 -0.0784  2.4777
  125MOL   H11515243   6.692   0.371   4.705  4.3607  0.0267  1.3993
  125MOL   C11615244   6.776   0.328   4.893 -0.1370 -0.5431 -1.0099
  125MOL   C11715245   6.899   0.260   4.832 -0.3527 -0.1558 -0.0495
  125MOL   H11815246   6.795   0.428   4.932 -1.9272 -0.3213 -0.6378
  125MOL   H11915247   6.765   0.265   4.982  1.8702 -0.6503 -0.8241
  125MOL   H12015248   6.867   0.164   4.793  0.3485  1.1511 -4.0788
  125MOL   H12115249   6.938   0.317   4.747 -0.7359  0.5841  0.2598
  125MOL   H12215250   6.984   0.263   4.900  0.6409  4.8433 -1.2587
  126MOL     C115251   6.108   3.586   7.212  0.0436 -0.3330  0.5647
  126MOL     C215252   6.172   3.624   7.343 -0.8930 -0.2102 -0.7048
  126MOL     H315253   6.157   3.637   7.129  0.3738 -2.8699 -0.8546
  126MOL     H415254   6.007   3.619   7.189  0.0610 -1.2034 -0.8870
  126MOL     H515255   6.277   3.595   7.339 -0.0539  2.7101 -1.1979
  126MOL     H615256   6.180   3.732   7.350  1.3048 -0.4336  0.5610
  126MOL     H715257   6.095   3.479   7.192 -0.6517 -0.0762 -0.3948
  126MOL     C815258   6.109   3.541   7.463 -0.5525 -0.4963  0.3169
  126MOL     C915259   6.180   3.540   7.598  0.5011 -0.2252  0.6454
  126MOL    H1015260   6.005   3.574   7.473 -0.5189 -0.4201  0.4156
  126MOL    H1115261   6.109   3.443   7.416 -1.0984 -0.1804 -0.3525
  126MOL    H1215262   6.280   3.499   7.592 -0.3689 -2.2830 -0.0808
  126MOL    H1315263   6.200   3.643   7.630  0.0679 -0.4864  1.7730
  126MOL    C1415264   6.096   3.461   0.003 -0.1943  0.3305  0.4240
  126MOL    C1515265   6.166   3.468   0.135  0.3148  0.1757  0.4015
  126MOL    H1615266   5.993   3.493   0.017  0.6497  3.4146 -0.0479
  126MOL    H1715267   6.088   3.358   7.659  1.4149  0.2809  0.1632
  126MOL    H1815268   6.272   3.492   0.125  0.5015 -1.1180 -0.7318
  126MOL    H1915269   6.125   3.548   0.198  0.5337 -0.2421  1.0668
  126MOL    C2015270   6.173   3.331   0.205  0.2922 -0.0061  0.1060
  126MOL    C2115271   6.224   3.355   0.344  0.9033 -0.5051 -0.2813
  126MOL    H2215272   6.067   3.307   0.211 -0.2797  2.6249  1.0642
  126MOL    H2315273   6.236   3.256   0.157  1.2277  0.3249  0.8178
  126MOL    H2415274   6.333   3.363   0.335  0.6153  3.6503 -0.8150
  126MOL    H2515275   6.190   3.449   0.387  0.4705 -0.0589 -1.5812
  126MOL    C2615276   6.190   3.234   0.433 -0.1195 -0.4889  0.6078
  126MOL    C2715277   6.232   3.251   0.579 -0.2246 -0.3737  0.8809
  126MOL    H2815278   6.081   3.233   0.437 -0.1099 -1.9145  0.7903
  126MOL    H2915279   6.228   3.138   0.398 -1.7262 -0.9341  0.0363
  126MOL    H3015280   6.338   3.274   0.564 -0.2019 -1.4397 -0.7176
  126MOL    H3115281   6.171   3.333   0.616 -1.4568 -1.8413  2.1388
  126MOL    C3215282   6.202   3.128   0.667 -0.8518  0.7083 -0.7881
  126MOL    C3315283   6.203   3.142   0.813 -0.0903 -0.6666 -0.3365
  126MOL    H3415284   6.105   3.091   0.633 -1.0761  0.1390  0.4472
  126MOL    H3515285   6.283   3.063   0.636  0.0597  1.9640 -1.0903
  126MOL    H3615286   6.297   3.193   0.833  1.0300 -2.5065 -0.7679
  126MOL    H3715287   6.120   3.209   0.838 -0.2565 -0.2089 -2.0220
  126MOL    C3815288   6.194   3.006   0.879  0.0205 -0.2305 -0.1481
  126MOL    C3915289   6.167   3.020   1.031 -0.4856  0.1372  0.0832
  126MOL    H4015290   6.114   2.944   0.838 -1.6090  3.2012 -2.3032
  126MOL    H4115291   6.284   2.948   0.861 -0.6578 -1.4814  0.4168
  126MOL    H4215292   6.080   3.086   1.036 -1.1356 -0.5895 -1.3973
  126MOL    H4315293   6.134   2.923   1.070  1.9959 -0.9026 -0.3521
  126MOL    C4415294   6.278   3.067   1.118  0.2490 -0.1754 -0.0293
  126MOL    C4515295   6.247   3.092   1.265  0.2409 -0.1232  0.1890
  126MOL    H4615296   6.364   3.001   1.104  0.1155 -0.4769  0.5290
  126MOL    H4715297   6.297   3.165   1.074 -3.9591  1.7137  2.0586
  126MOL    H4815298   6.160   3.157   1.268  0.2400 -0.0301 -1.4593
  126MOL    H4915299   6.225   2.998   1.315 -1.3470  0.6461  0.9798
  126MOL    C5015300   6.372   3.153   1.341  0.3436  0.1350  0.7731
  126MOL    C5115301   6.490   3.053   1.351 -1.1930 -0.0804 -0.8223
  126MOL    H5215302   6.398   3.248   1.294  1.7840 -0.8262 -0.4172
  126MOL    H5315303   6.337   3.163   1.443 -1.0530 -1.7343  0.5124
  126MOL    H5415304   6.461   2.954   1.386 -1.3921  0.3471  0.2223
  126MOL    H5515305   6.522   3.042   1.247  2.9471  1.7457  0.1487
  126MOL    C5615306   6.613   3.096   1.433  0.2239  0.5122 -0.6888
  126MOL    C5715307   6.745   3.040   1.367 -0.2534  0.0160  0.5751
  126MOL    H5815308   6.612   3.205   1.432  1.8701  0.5523  0.5856
  126MOL    H5915309   6.605   3.072   1.539  0.0156  2.9064 -0.1279
  126MOL    H6015310   6.708   2.938   1.362  0.8983 -0.4075  0.7401
  126MOL    H6115311   6.763   3.081   1.268  1.1271  1.1446  1.2818
  126MOL    C6215312   6.869   3.039   1.452  0.6767  0.4982  0.6134
  126MOL    C6315313   6.987   2.977   1.374  0.0921  0.7322 -0.3038
  126MOL    H6415314   6.902   3.140   1.475  0.7879  1.1078 -2.0853
  126MOL    H6515315   6.857   3.001   1.554 -0.1061  0.2929  0.4482
  126MOL    H6615316   7.001   3.050   1.295  0.8850  1.4424  0.4899
  126MOL    H6715317   7.083   2.979   1.426 -1.0201  0.0458  1.8319
  126MOL    C6815318   6.948   2.841   1.313  0.0820  0.0630 -0.1118
  126MOL    C6915319   6.931   2.726   1.403  0.2289 -0.0532  0.1315
  126MOL    H7015320   6.862   2.857   1.249  1.3285  0.5089 -1.7151
  126MOL    H7115321   7.025   2.811   1.241  1.8164  2.0959  0.8331
  126MOL    H7215322   7.015   2.708   1.470 -0.1118  0.7882  0.7981
  126MOL    H7315323   6.847   2.737   1.472  0.6941  1.5353  0.4694
  126MOL    C7415324   6.905   2.595   1.320 -0.0839  0.2789 -0.2991
  126MOL    C7515325   6.899   2.481   1.410  0.4964  0.8074 -0.0196
  126MOL    H7615326   6.823   2.600   1.249  0.0375  0.2033 -0.4456
  126MOL    H7715327   6.994   2.573   1.262  0.8755  1.8636  0.5295
  126MOL    H7815328   6.911   2.389   1.353  0.7532  0.1579  1.0671
  126MOL    H7915329   6.979   2.478   1.485 -1.2900 -1.7044  1.8824
  126MOL    C8015330   6.759   2.459   1.483 -0.3154  0.1177  0.6979
  126MOL    C8115331   6.760   2.325   1.561  0.0273  0.0691 -0.1516
  126MOL    H8215332   6.734   2.552   1.534 -0.8427  0.3061  0.1031
  126MOL    H8315333   6.682   2.457   1.406  0.1927  0.9450  0.1546
  126MOL    H8415334   6.745   2.250   1.483  3.1673 -1.2891  0.4561
  126MOL    H8515335   6.853   2.297   1.611  0.6928 -0.6175 -1.7613
  126MOL    C8615336   6.651   2.318   1.665 -0.1713 -0.8057  0.4699
  126MOL    C8715337   6.667   2.194   1.749  0.0505  0.1235  0.4105
  126MOL    H8815338   6.667   2.411   1.719 -2.3560 -1.0417  1.6095
  126MOL    H8915339   6.561   2.329   1.604  1.2915 -1.0544 -1.7920
  126MOL    H9015340   6.637   2.106   1.693 -2.7512 -0.1402  2.2049
  126MOL    H9115341   6.771   2.183   1.783 -0.5518 -0.9781  1.9877
  126MOL    C9215342   6.583   2.203   1.874  0.0941 -0.2355 -0.1682
  126MOL    C9315343   6.604   2.320   1.967  0.0903 -0.3418 -0.4936
  126MOL    H9415344   6.484   2.193   1.829  0.2326 -1.1342 -0.2889
  126MOL    H9515345   6.605   2.108   1.922  3.8651  1.2571  1.2289
  126MOL    H9615346   6.702   2.313   2.013 -0.2297 -1.8668 -0.0346
  126MOL    H9715347   6.597   2.415   1.913  2.1780 -0.7243 -1.4867
  126MOL    C9815348   6.500   2.336   2.083 -1.3368 -1.1211  1.1073
  126MOL    C9915349   6.544   2.433   2.187 -0.4746 -0.4616  0.4455
  126MOL   H10015350   6.413   2.383   2.036 -0.4208  0.1348  0.6416
  126MOL   H10115351   6.454   2.247   2.126 -2.1008 -1.1554  0.2378
  126MOL   H10215352   6.596   2.513   2.135 -2.3679 -0.0509 -0.8550
  126MOL   H10315353   6.467   2.482   2.248 -0.2511  2.7260 -1.7156
  126MOL   C10415354   6.642   2.368   2.287 -0.1758 -0.3823  0.1938
  126MOL   C10515355   6.560   2.292   2.393  0.3298  0.0015 -0.3113
  126MOL   H10615356   6.725   2.319   2.236 -0.4129  0.1520 -0.7269
  126MOL   H10715357   6.680   2.458   2.337 -0.4739  1.4208 -2.7128
  126MOL   H10815358   6.527   2.361   2.470 -0.4847 -0.5786 -0.1249
  126MOL   H10915359   6.468   2.252   2.348  0.6738 -1.1950  0.0437
  126MOL   C11015360   6.647   2.196   2.477  0.6800 -0.4134 -0.2917
  126MOL   C11115361   6.693   2.071   2.412  0.2048  0.3568  0.2081
  126MOL   H11215362   6.740   2.245   2.505  0.7997 -0.6838 -0.2166
  126MOL   H11315363   6.593   2.159   2.564  3.7409 -0.8893  1.4941
  126MOL   H11415364   6.744   2.093   2.318  1.7308 -0.6899  0.7817
  126MOL   H11515365   6.757   2.021   2.484  0.9554 -0.1201 -0.7770
  126MOL   C11615366   6.578   1.973   2.369  0.0691 -0.2579 -0.0404
  126MOL   C11715367   6.635   1.837   2.313 -0.3471 -0.6956 -0.0900
  126MOL   H11815368   6.514   1.953   2.455 -0.8085  0.7503 -0.4498
  126MOL   H11915369   6.512   2.018   2.294 -0.4435 -1.5652 -0.3914
  126MOL   H12015370   6.706   1.858   2.233 -0.4806 -1.0699 -0.3090
  126MOL   H12115371   6.701   1.787   2.383 -1.4707  0.7866  2.0953
  126MOL   H12215372   6.563   1.763   2.278 -2.2770  1.5676 -1.0654
  127MOL     C115373   4.714   5.044   0.673  0.0332 -0.0978 -0.8730
  127MOL     C215374   4.588   5.132   0.695 -0.1240 -0.1981 -0.5338
  127MOL     H315375   4.702   4.937   0.688 -0.8722 -0.0525 -1.2104
  127MOL     H415376   4.796   5.069   0.740  0.9135 -0.3415 -1.8530
  127MOL     H515377   4.539   5.105   0.789  1.0163 -1.2123 -0.2137
  127MOL     H615378   4.609   5.239   0.692  0.6308 -0.3091  0.2931
  127MOL     H715379   4.756   5.060   0.574  2.6017 -2.0462 -0.1482
  127MOL     C815380   4.480   5.123   0.584  0.1708  0.3920  0.8992
  127MOL     C915381   4.391   4.996   0.574  0.3608  0.5682  0.7795
  127MOL    H1015382   4.404   5.197   0.612  0.4833  0.2085  2.3044
  127MOL    H1115383   4.527   5.158   0.493  0.9768  0.5328  1.3669
  127MOL    H1215384   4.430   4.928   0.497  0.1104  1.0155  0.2578
  127MOL    H1315385   4.400   4.937   0.665  0.9498 -0.1263  0.2880
  127MOL    C1415386   4.232   5.008   0.541  0.3677  0.1592 -1.4223
  127MOL    C1515387   4.212   5.090   0.411 -0.3992 -0.1382  0.0579
  127MOL    H1615388   4.176   4.915   0.531 -0.3492  0.3249  0.9223
  127MOL    H1715389   4.178   5.060   0.619  1.4950 -2.3073  1.0815
  127MOL    H1815390   4.228   5.197   0.429  3.3815 -0.2024 -2.5422
  127MOL    H1915391   4.292   5.062   0.343 -1.4600 -1.7599 -0.5291
  127MOL    C2015392   4.068   5.076   0.361 -0.2813  0.3525  0.1774
  127MOL    C2115393   4.039   5.180   0.252 -0.4210 -0.2059  0.3692
  127MOL    H2215394   4.044   4.977   0.321  0.6305  0.4209 -0.5803
  127MOL    H2315395   3.992   5.085   0.438  0.2397  0.6126  0.6661
  127MOL    H2415396   4.049   5.284   0.284 -1.1204  0.3603 -1.1452
  127MOL    H2515397   4.116   5.167   0.176 -2.3756 -0.4704 -1.6368
  127MOL    C2615398   3.901   5.154   0.194 -0.1774 -0.1810  0.0164
  127MOL    C2715399   3.858   5.230   0.076 -0.1034  0.4554  0.0073
  127MOL    H2815400   3.908   5.050   0.161  2.4577 -0.1209  0.2374
  127MOL    H2915401   3.825   5.147   0.272 -0.5501 -0.2799 -0.3593
  127MOL    H3015402   3.924   5.215   7.683  0.3776  1.6318  0.1578
  127MOL    H3115403   3.769   5.177   0.042  0.2670 -0.1898  0.0553
  127MOL    C3215404   3.826   5.380   0.094 -0.6595 -0.3302 -0.1009
  127MOL    C3315405   3.759   5.437   7.663 -0.4110 -0.2740  0.3439
  127MOL    H3415406   3.776   5.406   0.187 -1.5035 -2.6008  0.1150
  127MOL    H3515407   3.924   5.426   0.103 -1.4348  1.6487 -1.3741
  127MOL    H3615408   3.830   5.436   7.580  1.1887  0.2216  1.6646
  127MOL    H3715409   3.668   5.381   7.642 -1.9428  2.4603 -0.5917
  127MOL    C3815410   3.719   5.581   0.005 -0.0346  0.6798 -0.0621
  127MOL    C3915411   3.648   5.650   7.576 -0.8274 -0.8358  0.0335
  127MOL    H4015412   3.653   5.582   0.092  1.3983  1.1953  1.0325
  127MOL    H4115413   3.810   5.635   0.032  0.5414 -0.0444 -0.5368
  127MOL    H4215414   3.700   5.622   7.484  0.0441 -1.6496  0.7534
  127MOL    H4315415   3.547   5.609   7.569 -0.8249 -0.5291 -2.0482
  127MOL    C4415416   3.629   5.804   7.590 -0.1410  0.1117 -0.4595
  127MOL    C4515417   3.571   5.868   7.461 -0.2655 -0.2661  0.9011
  127MOL    H4615418   3.557   5.815   7.670  0.1591  1.2572 -0.3344
  127MOL    H4715419   3.722   5.856   7.614  0.0096 -0.8376  1.0805
  127MOL    H4815420   3.641   5.856   7.378  0.6398  3.5233  1.0489
  127MOL    H4915421   3.486   5.815   7.417 -0.3176  1.0852 -0.6912
  127MOL    C5015422   3.528   6.007   7.480 -0.3009 -0.1696  0.1014
  127MOL    C5115423   3.458   6.064   7.367  0.4181 -0.5657  0.1917
  127MOL    H5215424   3.461   6.014   7.566  0.8566  3.4285  0.7962
  127MOL    H5315425   3.619   6.062   7.501 -1.1555  0.8960  1.0579
  127MOL    H5415426   3.526   6.056   7.283  0.0351 -0.7454 -0.1042
  127MOL    H5515427   3.379   5.991   7.350  0.8483 -0.9895  0.0142
  127MOL    C5615428   3.410   6.209   7.378 -0.0967 -0.3133 -0.2452
  127MOL    C5715429   3.339   6.253   7.254  0.2886 -0.0331 -0.7237
  127MOL    H5815430   3.336   6.223   7.457  1.4801  2.2617  0.8511
  127MOL    H5915431   3.503   6.263   7.395  0.2845 -0.4639 -1.7539
  127MOL    H6015432   3.390   6.222   7.163  1.8606 -0.2236  0.2012
  127MOL    H6115433   3.236   6.218   7.261  0.6921 -0.8669  1.4874
  127MOL    C6215434   3.345   6.404   7.245 -0.4833  0.3800  0.0014
  127MOL    C6315435   3.243   6.465   7.142  0.4940  0.1447  0.1309
  127MOL    H6415436   3.331   6.454   7.341  1.7196  1.4510 -0.2070
  127MOL    H6515437   3.448   6.427   7.216 -0.4339 -0.3997 -0.4413
  127MOL    H6615438   3.240   6.396   7.057  1.5166  0.0155  0.1941
  127MOL    H6715439   3.142   6.479   7.180 -0.4604 -1.5908 -1.6762
  127MOL    C6815440   3.291   6.602   7.097 -0.2779  0.2202 -0.1815
  127MOL    C6915441   3.219   6.652   6.963  0.7922  0.3390 -0.0687
  127MOL    H7015442   3.265   6.665   7.182 -2.7801 -1.0606  0.0669
  127MOL    H7115443   3.399   6.598   7.089 -0.3890 -1.8506 -1.0992
  127MOL    H7215444   3.254   6.583   6.886  2.8780  0.8801  0.3752
  127MOL    H7315445   3.112   6.643   6.982  0.5351 -1.8386 -2.3052
  127MOL    C7415446   3.254   6.799   6.929 -0.0545  0.3048 -0.2510
  127MOL    C7515447   3.175   6.867   6.814 -0.2470  0.5706 -0.5100
  127MOL    H7615448   3.238   6.866   7.013  3.4561  1.4912 -0.4636
  127MOL    H7715449   3.362   6.805   6.916 -0.2054  1.1251 -1.2339
  127MOL    H7815450   3.210   6.809   6.729  0.1920  0.3761 -0.1960
  127MOL    H7915451   3.068   6.847   6.813 -0.4336  1.5673 -1.8805
  127MOL    C8015452   3.206   7.009   6.790 -0.5103  0.0608 -0.0532
  127MOL    C8115453   3.136   7.059   6.665 -0.0292 -0.0656 -0.6677
  127MOL    H8215454   3.175   7.063   6.879 -1.0720 -0.3548  0.0011
  127MOL    H8315455   3.313   7.009   6.769 -0.7306 -1.4480 -1.2447
  127MOL    H8415456   3.030   7.032   6.668  0.2028 -0.7907  1.4980
  127MOL    H8515457   3.131   7.167   6.678 -3.9701 -0.1673 -0.6319
  127MOL    C8615458   3.207   7.023   6.528  0.1042 -0.5183  0.0211
  127MOL    C8715459   3.133   7.083   6.417  0.0150 -0.5845 -0.0397
  127MOL    H8815460   3.312   7.046   6.541 -0.2104  0.0346  1.6600
  127MOL    H8915461   3.198   6.917   6.505  0.6843 -0.6066  0.1961
  127MOL    H9015462   3.037   7.031   6.419 -0.2388 -0.0863  0.5609
  127MOL    H9115463   3.105   7.187   6.429 -1.4292 -0.9981  0.2754
  127MOL    C9215464   3.182   7.057   6.279 -0.4173  0.4641 -0.1838
  127MOL    C9315465   3.080   7.112   6.175 -0.3360 -0.1166 -0.4267
  127MOL    H9415466   3.279   7.106   6.268 -0.5532  0.5865 -0.8882
  127MOL    H9515467   3.205   6.952   6.260 -0.2296  0.2894  0.9752
  127MOL    H9615468   2.994   7.046   6.187  0.5071 -1.1267  0.1133
  127MOL    H9715469   3.044   7.211   6.204  0.6854 -0.7218  3.2516
  127MOL    C9815470   3.133   7.128   6.033 -0.3735  0.1134  0.2030
  127MOL    C9915471   3.168   6.989   5.981  0.6338  0.5896  0.1055
  127MOL   H10015472   3.067   7.189   5.971  0.3127  0.5421 -0.1105
  127MOL   H10115473   3.221   7.191   6.037 -1.6822  2.0906 -0.9752
  127MOL   H10215474   3.270   6.973   6.013  0.3147 -3.3337 -0.5428
  127MOL   H10315475   3.106   6.911   6.027 -1.4567  0.7350 -2.3090
  127MOL   C10415476   3.179   6.974   5.825 -0.1452  0.7208 -0.4630
  127MOL   C10515477   3.192   6.832   5.777  0.5283  0.5640  0.0788
  127MOL   H10615478   3.094   7.018   5.774 -1.8273 -1.6005  0.2626
  127MOL   H10715479   3.264   7.034   5.792 -0.5475  0.7927 -1.3707
  127MOL   H10815480   3.282   6.793   5.824  0.4257  1.5065  1.0872
  127MOL   H10915481   3.110   6.780   5.827 -0.4309  0.6781 -1.3712
  127MOL   C11015482   3.183   6.808   5.623  0.3864  0.4027  0.6289
  127MOL   C11115483   3.176   6.653   5.599 -0.0818 -0.0162  0.0532
  127MOL   H11215484   3.098   6.864   5.585  0.7826  0.0263 -0.8346
  127MOL   H11315485   3.265   6.857   5.569  0.3306  0.4221  0.5610
  127MOL   H11415486   3.099   6.610   5.662 -1.1576  1.9077  0.0860
  127MOL   H11515487   3.146   6.631   5.496 -0.6517  1.2915 -0.0681
  127MOL   C11615488   3.290   6.569   5.641  0.2183 -0.2408 -0.2602
  127MOL   C11715489   3.263   6.422   5.619  0.4841 -0.0155 -0.0472
  127MOL   H11815490   3.379   6.598   5.585  0.5367 -0.2827  0.2166
  127MOL   H11915491   3.313   6.580   5.747  0.9340 -2.6968 -0.1242
  127MOL   H12015492   3.240   6.414   5.513 -0.8384  1.0102  0.1512
  127MOL   H12115493   3.354   6.370   5.649  0.9178  1.0063  0.4333
  127MOL   H12215494   3.184   6.382   5.682  2.1064 -0.3864  1.7924
  128MOL     C115495   5.144   2.573   5.877 -0.9842 -0.0230 -0.2066
  128MOL     C215496   5.211   2.609   6.018 -0.2979  1.0415 -0.6254
  128MOL     H315497   5.053   2.516   5.896 -0.6485 -1.1438 -1.8427
  128MOL     H415498   5.211   2.499   5.832 -0.0982  1.1178 -0.7704
  128MOL     H515499   5.161   2.704   6.037  0.1727  0.7768  2.0744
  128MOL     H615500   5.189   2.543   6.102  1.7088 -1.6562 -2.1405
  128MOL     H715501   5.139   2.652   5.802  2.1106 -0.7569 -1.2749
  128MOL     C815502   5.362   2.623   6.004  1.2458 -0.1462 -0.5383
  128MOL     C915503   5.423   2.685   6.137 -0.9597  0.4421  0.2088
  128MOL    H1015504   5.401   2.523   5.984  0.0663 -0.1755 -2.8837
  128MOL    H1115505   5.394   2.678   5.915 -1.5750  0.2025 -1.3884
  128MOL    H1215506   5.389   2.789   6.142 -1.2763  0.4460 -1.7521
  128MOL    H1315507   5.386   2.632   6.225  0.8232  1.0093  1.3327
  128MOL    C1415508   5.582   2.695   6.143  0.9852  0.3876 -0.1497
  128MOL    C1515509   5.629   2.785   6.259  0.7169 -0.3006  0.0684
  128MOL    H1615510   5.613   2.591   6.150  0.6943  0.2485 -0.8272
  128MOL    H1715511   5.617   2.730   6.046  1.0719  1.7564  0.3663
  128MOL    H1815512   5.588   2.884   6.239 -1.3535 -1.1006  0.2225
  128MOL    H1915513   5.583   2.754   6.353  0.0991  1.5950  0.4128
  128MOL    C2015514   5.780   2.794   6.271  0.1361 -0.0080 -0.3184
  128MOL    C2115515   5.844   2.875   6.159  1.0040 -0.5071  0.6815
  128MOL    H2215516   5.809   2.853   6.358  0.5408 -0.6658 -0.0006
  128MOL    H2315517   5.827   2.696   6.264  1.0968  0.2154  2.2577
  128MOL    H2415518   5.813   2.849   6.058 -1.2134 -3.6214  2.0663
  128MOL    H2515519   5.823   2.981   6.174  0.2499 -0.4730 -0.5257
  128MOL    C2615520   6.000   2.871   6.167  0.5088 -0.1847 -0.5295
  128MOL    C2715521   6.072   2.956   6.068  0.1885 -0.1544 -0.7074
  128MOL    H2815522   6.031   2.904   6.266 -1.7678  0.5502 -0.0416
  128MOL    H2915523   6.039   2.770   6.155  0.4216  0.0233 -2.8813
  128MOL    H3015524   6.041   2.921   5.969  0.2404  1.4732 -1.3232
  128MOL    H3115525   6.046   3.062   6.067  0.9153  0.0318  0.1618
  128MOL    C3215526   6.215   2.915   6.052  0.1133  0.8038  0.2631
  128MOL    C3315527   6.292   3.001   5.950 -0.1387  0.7931 -0.8681
  128MOL    H3415528   6.267   2.925   6.147  2.4958 -0.8721 -0.8313
  128MOL    H3515529   6.211   2.811   6.018  0.6952  0.7475  0.3620
  128MOL    H3615530   6.225   3.010   5.864 -0.7668 -0.5880 -0.5397
  128MOL    H3715531   6.307   3.102   5.989  2.3396 -0.0577  0.5229
  128MOL    C3815532   6.419   2.936   5.895  0.0562  0.1968  0.0031
  128MOL    C3915533   6.473   3.007   5.773  0.6750  0.4520  0.0132
  128MOL    H4015534   6.500   2.947   5.967  1.0061  0.4565 -1.0986
  128MOL    H4115535   6.415   2.827   5.887  0.9548  0.1405  0.3082
  128MOL    H4215536   6.405   3.014   5.688  0.3555  0.5778  0.2810
  128MOL    H4315537   6.485   3.110   5.803 -1.2972  1.1316 -1.3956
  128MOL    C4415538   6.607   2.950   5.717  0.0251 -0.7708  0.4959
  128MOL    C4515539   6.633   3.019   5.585 -0.2388 -0.3165  0.6679
  128MOL    H4615540   6.688   2.970   5.786  1.2687  1.2459 -1.4663
  128MOL    H4715541   6.595   2.844   5.697 -0.0830 -0.2377 -2.6527
  128MOL    H4815542   6.552   3.000   5.514 -0.4705 -0.9193  1.0857
  128MOL    H4915543   6.643   3.125   5.604 -1.1450 -0.1984  0.4849
  128MOL    C5015544   6.758   2.965   5.520  0.5211 -0.7741 -0.0322
  128MOL    C5115545   6.790   3.046   5.400 -0.1753 -0.7696 -1.0573
  128MOL    H5215546   6.842   2.976   5.588  0.0090  0.2476  0.4359
  128MOL    H5315547   6.745   2.859   5.495 -0.0497 -1.2182  2.0943
  128MOL    H5415548   6.708   3.025   5.330 -1.1734 -0.3560 -0.0362
  128MOL    H5515549   6.788   3.151   5.426 -1.4131 -1.6468  2.7172
  128MOL    C5615550   6.914   2.991   5.336 -0.2912  0.5655  0.0237
  128MOL    C5715551   6.945   3.070   5.206 -0.1289  0.9235  0.2504
  128MOL    H5815552   7.000   2.978   5.401 -2.1100 -2.1198  2.0366
  128MOL    H5915553   6.904   2.887   5.304 -0.1623  0.8794 -1.0276
  128MOL    H6015554   6.851   3.095   5.159 -1.1124  0.2284  1.7949
  128MOL    H6115555   6.982   3.169   5.233  1.1362  0.7129 -0.6492
  128MOL    C6215556   7.053   3.016   5.113 -0.1012 -0.4229  0.1389
  128MOL    C6315557   7.074   3.098   4.983  0.0287  0.3866  0.4282
  128MOL    H6415558   7.153   3.009   5.157  0.3231  0.4989 -0.6539
  128MOL    H6515559   7.018   2.917   5.083  3.4857 -1.4581 -0.9462
  128MOL    H6615560   6.980   3.104   4.928  0.8619  0.7996 -0.9897
  128MOL    H6715561   7.113   3.195   5.011  1.1673  0.9254 -2.7384
  128MOL    C6815562   7.173   3.024   4.884 -0.4877  0.6688 -0.4904
  128MOL    C6915563   7.198   3.114   4.761  0.2113  0.0618 -0.0507
  128MOL    H7015564   7.268   3.006   4.933 -0.6237  1.0232 -0.0900
  128MOL    H7115565   7.120   2.935   4.849 -1.1675  0.9969 -0.3215
  128MOL    H7215566   7.108   3.122   4.700  0.8386  0.4479 -0.9448
  128MOL    H7315567   7.223   3.211   4.806 -0.0477  0.4730 -0.7793
  128MOL    C7415568   7.321   3.071   4.674  0.9000 -0.6357  0.2980
  128MOL    C7515569   7.364   3.152   4.555  0.4744  0.4043  0.2576
  128MOL    H7615570   7.411   3.071   4.735  1.5232  0.5835 -0.5997
  128MOL    H7715571   7.317   2.966   4.643 -0.9279 -0.1432 -1.2270
  128MOL    H7815572   7.418   3.242   4.582  2.6320 -1.3990  2.1886
  128MOL    H7915573   7.439   3.084   4.514  0.9270 -2.0621  4.8593
  128MOL    C8015574   7.257   3.165   4.439  0.2286  0.3216 -0.0491
  128MOL    C8115575   7.310   3.226   4.303  0.3081  0.2895 -0.3236
  128MOL    H8215576   7.213   3.070   4.410 -0.1032  0.8932 -1.4874
  128MOL    H8315577   7.180   3.230   4.481  0.4627 -0.0307  0.9481
  128MOL    H8415578   7.332   3.331   4.323  4.2144 -0.6341  0.7093
  128MOL    H8515579   7.405   3.176   4.283 -0.1049 -1.4258  1.8214
  128MOL    C8615580   7.222   3.193   4.176 -0.7122 -0.3454  0.1637
  128MOL    C8715581   7.280   3.226   4.040 -0.3781 -0.7558  0.8920
  128MOL    H8815582   7.195   3.088   4.176  1.7512 -1.0066 -0.3008
  128MOL    H8915583   7.124   3.238   4.193 -1.2939 -1.4358 -0.2724
  128MOL    H9015584   7.303   3.332   4.040 -1.9237 -0.3987 -0.3777
  128MOL    H9115585   7.377   3.178   4.022  1.0511  2.1930  0.3599
  128MOL    C9215586   7.185   3.206   3.925 -0.1353  0.1363  0.2089
  128MOL    C9315587   7.247   3.245   3.795  0.9535 -0.2040 -0.3320
  128MOL    H9415588   7.165   3.099   3.928  2.3287 -0.3722 -0.3011
  128MOL    H9515589   7.100   3.271   3.948  0.2388 -0.2498  2.8049
  128MOL    H9615590   7.285   3.347   3.800 -0.1096  0.1453  0.7455
  128MOL    H9715591   7.332   3.180   3.776  1.1264  0.5659 -2.2783
  128MOL    C9815592   7.151   3.263   3.682  1.0306  0.0534 -0.3530
  128MOL    C9915593   7.202   3.313   3.548 -0.1668  0.5177 -0.4883
  128MOL   H10015594   7.104   3.165   3.672  1.5629 -0.0272 -2.1531
  128MOL   H10115595   7.066   3.327   3.705  0.8890 -0.8842  1.9222
  128MOL   H10215596   7.223   3.420   3.548 -1.6988  0.8551  0.9359
  128MOL   H10315597   7.298   3.273   3.518 -1.1871 -1.1373 -1.6069
  128MOL   C10415598   7.098   3.304   3.441 -0.6220  0.5495 -0.5674
  128MOL   C10515599   7.137   3.381   3.315  0.1912  0.0938 -0.0907
  128MOL   H10615600   7.104   3.199   3.412  0.6005  0.1740  0.9279
  128MOL   H10715601   6.998   3.318   3.481 -0.7780 -0.8809 -0.4402
  128MOL   H10815602   7.155   3.487   3.331  1.4293  0.0278 -0.9546
  128MOL   H10915603   7.228   3.333   3.279  1.1519  2.8180 -1.4654
  128MOL   C11015604   7.040   3.381   3.200 -0.1276  0.4995  0.1142
  128MOL   C11115605   7.081   3.480   3.085  1.0411 -0.7899 -0.2793
  128MOL   H11215606   7.019   3.283   3.158  0.1519 -0.0986  1.3616
  128MOL   H11315607   6.940   3.409   3.233  0.5476  0.6966  2.0853
  128MOL   H11415608   7.001   3.482   3.011  0.8853 -1.1307 -0.1218
  128MOL   H11515609   7.104   3.579   3.125 -0.9836  0.0066 -1.0302
  128MOL   C11615610   7.203   3.438   2.999 -0.0212  0.4475  0.2604
  128MOL   C11715611   7.198   3.502   2.855  0.0740 -0.4924  0.1094
  128MOL   H11815612   7.303   3.463   3.036 -0.1666 -0.0821  1.0207
  128MOL   H11915613   7.211   3.329   3.000  1.5236  0.5439  1.1892
  128MOL   H12015614   7.111   3.468   2.797  0.2466  0.2139 -0.5835
  128MOL   H12115615   7.191   3.610   2.874  0.8912 -0.4141 -0.0315
  128MOL   H12215616   7.284   3.476   2.792  1.2154  1.8920  0.6288
  129MOL     C115617   7.578   6.121   2.784  0.2560 -0.5694  0.0892
  129MOL     C215618   7.549   6.015   2.687 -0.2658 -0.2252 -0.1807
  129MOL     H315619   7.661   6.081   2.843  0.5203  2.1669  1.6229
  129MOL     H415620   7.497   6.122   2.857  0.7515 -4.2035  0.8148
  129MOL     H515621   7.474   6.051   2.617 -0.5478  0.2381  0.3509
  129MOL     H615622   7.637   5.978   2.633  0.2356 -0.8643  1.0496
  129MOL     H715623   7.609   6.219   2.749  0.1917 -0.8250 -0.7035
  129MOL     C815624   7.497   5.889   2.751  0.3564  0.0024  0.0638
  129MOL     C915625   7.428   5.801   2.647 -0.0787  0.2392 -0.5832
  129MOL    H1015626   7.575   5.825   2.791  1.3977  2.1585  1.6258
  129MOL    H1115627   7.419   5.898   2.828  2.0403 -1.2837  1.9684
  129MOL    H1215628   7.355   5.857   2.588  0.9318  0.6638 -1.4801
  129MOL    H1315629   7.496   5.782   2.563 -1.6670 -0.5403 -1.7090
  129MOL    C1415630   7.384   5.669   2.709  0.2596 -0.4747 -0.2867
  129MOL    C1515631   7.318   5.577   2.597 -0.6426  0.3200  0.1571
  129MOL    H1615632   7.474   5.624   2.750  0.9403  0.3941 -0.8242
  129MOL    H1715633   7.307   5.680   2.785  0.4538 -0.4515 -0.0957
  129MOL    H1815634   7.225   5.618   2.559 -1.6191 -0.7444  1.3768
  129MOL    H1915635   7.379   5.577   2.506 -0.5893 -3.2392  0.1339
  129MOL    C2015636   7.302   5.435   2.644 -0.2695 -0.0704 -0.3418
  129MOL    C2115637   7.228   5.352   2.541 -0.4351  0.4843  0.6314
  129MOL    H2215638   7.402   5.397   2.667 -0.2111 -0.3992 -1.1279
  129MOL    H2315639   7.260   5.429   2.744  0.6572 -2.3907 -0.0643
  129MOL    H2415640   7.124   5.381   2.530  0.1282  2.0942 -0.7443
  129MOL    H2515641   7.278   5.373   2.446  1.5452  0.2065  1.5767
  129MOL    C2615642   7.231   5.206   2.582  0.5997  0.8460  0.3628
  129MOL    C2715643   7.121   5.117   2.515 -0.9259 -0.1103  0.0635
  129MOL    H2815644   7.324   5.151   2.565  0.8726  1.0942  1.0349
  129MOL    H2915645   7.219   5.199   2.691  0.2679  1.8848  0.3980
  129MOL    H3015646   7.025   5.148   2.556 -1.1467 -1.4554  0.5554
  129MOL    H3115647   7.128   5.149   2.411 -1.5368  0.4485  0.1888
  129MOL    C3215648   7.141   4.969   2.538  0.8301  0.7229  0.3193
  129MOL    C3315649   7.039   4.899   2.446  0.3426 -0.0671 -0.2061
  129MOL    H3415650   7.243   4.939   2.512  0.5441 -0.5609  0.6995
  129MOL    H3515651   7.137   4.946   2.644 -0.3502 -0.2098  0.0728
  129MOL    H3615652   6.940   4.929   2.480 -0.3881 -0.3006 -2.0637
  129MOL    H3715653   7.058   4.917   2.341 -0.1908  0.3887 -0.2213
  129MOL    C3815654   7.044   4.750   2.474  0.1779  0.0975  0.4073
  129MOL    C3915655   6.930   4.667   2.407  0.4279  0.3488  0.2503
  129MOL    H4015656   7.134   4.713   2.425  1.1784  0.6163  1.8224
  129MOL    H4115657   7.048   4.734   2.582  2.4999  1.0668  0.4809
  129MOL    H4215658   6.841   4.662   2.469 -0.0840 -3.0524 -0.6306
  129MOL    H4315659   6.899   4.718   2.316 -0.7422  0.5243  0.7500
  129MOL    C4415660   6.975   4.517   2.383 -0.2240  0.3476  0.3404
  129MOL    C4515661   6.871   4.438   2.306  0.3184  0.0505  0.0741
  129MOL    H4615662   7.067   4.518   2.324 -0.6337 -0.3135 -0.3231
  129MOL    H4715663   6.992   4.468   2.478  0.6486  1.7760  0.9447
  129MOL    H4815664   6.772   4.446   2.351 -0.6842 -0.0510 -2.0841
  129MOL    H4915665   6.852   4.495   2.215  0.6820 -0.1329 -0.1183
  129MOL    C5015666   6.912   4.290   2.271 -0.1014  0.7549 -0.1056
  129MOL    C5115667   6.800   4.215   2.195 -0.5726 -0.0593  0.2596
  129MOL    H5215668   6.995   4.288   2.200  0.9507 -0.7437  1.1155
  129MOL    H5315669   6.954   4.241   2.359  3.5421  3.0865 -0.4178
  129MOL    H5415670   6.712   4.227   2.259 -0.4353  2.1552  0.0813
  129MOL    H5515671   6.774   4.276   2.109  0.2049  0.5510  0.4544
  129MOL    C5615672   6.826   4.061   2.175 -0.2492  1.1113 -0.3368
  129MOL    C5715673   6.717   3.986   2.102  0.3860 -0.8241  0.0020
  129MOL    H5815674   6.922   4.055   2.124 -0.5885  0.1086 -0.8733
  129MOL    H5915675   6.841   4.007   2.269 -0.7125  0.9516 -0.3530
  129MOL    H6015676   6.634   3.994   2.172 -0.3131 -0.4762 -0.8533
  129MOL    H6115677   6.694   4.029   2.004 -0.9479 -2.3509 -0.3724
  129MOL    C6215678   6.750   3.845   2.077  0.2428  0.3809  0.3132
  129MOL    C6315679   6.642   3.762   1.999 -0.4490 -0.0524  0.1057
  129MOL    H6415680   6.839   3.832   2.016 -0.2296  0.4581 -0.3966
  129MOL    H6515681   6.767   3.804   2.177  1.3748  1.2456  0.4753
  129MOL    H6615682   6.636   3.793   1.895 -1.9736 -0.1983  0.1379
  129MOL    H6715683   6.668   3.657   1.999 -1.3837 -0.2889 -0.8300
  129MOL    C6815684   6.497   3.778   2.051  0.4501 -0.1959  0.0604
  129MOL    C6915685   6.476   3.724   2.190  0.2417  0.8008 -0.2978
  129MOL    H7015686   6.472   3.884   2.050  0.2342 -0.2293  1.3114
  129MOL    H7115687   6.424   3.738   1.981  1.2230 -0.4236 -0.6217
  129MOL    H7215688   6.492   3.616   2.185 -1.7455  0.4927 -0.6241
  129MOL    H7315689   6.562   3.748   2.252 -0.3893  0.1019  0.8548
  129MOL    C7415690   6.336   3.759   2.251 -0.5849 -0.5030 -0.7439
  129MOL    C7515691   6.318   3.735   2.397 -0.0775 -0.0749 -0.8231
  129MOL    H7615692   6.315   3.866   2.241  4.4605  0.7522  1.0484
  129MOL    H7715693   6.253   3.703   2.208 -0.9555  0.8775 -1.8809
  129MOL    H7815694   6.322   3.626   2.410 -0.4055  0.1404  1.3779
  129MOL    H7915695   6.403   3.775   2.452 -1.8634 -1.9729  3.5602
  129MOL    C8015696   6.184   3.789   2.457 -0.0068  0.6762  0.1283
  129MOL    C8115697   6.174   3.789   2.612 -0.0849  0.1720 -0.8202
  129MOL    H8215698   6.158   3.886   2.416 -1.6605 -0.7940 -2.4434
  129MOL    H8315699   6.102   3.728   2.419 -2.1461  3.4463  0.1729
  129MOL    H8415700   6.211   3.700   2.662  1.0226  0.8757 -0.3353
  129MOL    H8515701   6.239   3.868   2.649 -1.9734  1.6294 -0.5437
  129MOL    C8615702   6.035   3.847   2.663  0.2614 -0.2755 -0.0001
  129MOL    C8715703   6.011   3.855   2.807  0.8265 -0.1592 -0.3757
  129MOL    H8815704   6.007   3.940   2.613  0.0391 -0.0311  0.5793
  129MOL    H8915705   5.971   3.767   2.626  0.0302  0.0831 -0.3863
  129MOL    H9015706   6.036   3.761   2.857  1.7175  0.0467 -0.4212
  129MOL    H9115707   6.086   3.923   2.848  0.4594  0.5427 -0.8756
  129MOL    C9215708   5.864   3.885   2.845 -0.0323  0.6035  0.7463
  129MOL    C9315709   5.841   3.846   2.991  0.0900  0.1382  0.1081
  129MOL    H9415710   5.836   3.988   2.826 -1.0999  0.1801 -0.0717
  129MOL    H9515711   5.797   3.825   2.783  2.5572 -1.5466 -0.0385
  129MOL    H9615712   5.849   3.741   3.019  1.6229  0.2893  0.2603
  129MOL    H9715713   5.925   3.885   3.048  1.6264 -0.5637 -1.5998
  129MOL    C9815714   5.714   3.914   3.052 -0.2948  0.0057  0.0438
  129MOL    C9915715   5.688   3.900   3.202 -0.3535 -0.5582  0.0683
  129MOL   H10015716   5.714   4.016   3.013  1.5948 -0.1968 -0.5642
  129MOL   H10115717   5.624   3.873   3.007 -0.4888  1.0630 -0.5487
  129MOL   H10215718   5.701   3.796   3.231  1.0146 -0.3024  0.4375
  129MOL   H10315719   5.768   3.952   3.255 -0.6594  1.1344 -1.0901
  129MOL   C10415720   5.559   3.950   3.255  0.3589  0.0624 -0.1500
  129MOL   C10515721   5.534   3.898   3.398  0.0411  0.2282 -0.5626
  129MOL   H10615722   5.545   4.057   3.238  2.3864  0.5310  1.0717
  129MOL   H10715723   5.479   3.899   3.202  0.4944  0.0180 -0.3112
  129MOL   H10815724   5.532   3.789   3.406  2.3389  0.3905  3.4261
  129MOL   H10915725   5.611   3.916   3.472 -1.0021 -0.6611  0.7582
  129MOL   C11015726   5.409   3.961   3.451 -0.2215  0.3514  0.1807
  129MOL   C11115727   5.371   3.913   3.592  0.4956 -0.2885 -0.6366
  129MOL   H11215728   5.402   4.070   3.451 -1.5794  0.2910 -1.4325
  129MOL   H11315729   5.333   3.932   3.378 -0.3645 -0.2775  0.5780
  129MOL   H11415730   5.360   3.805   3.577 -0.8721 -0.0803 -1.1497
  129MOL   H11515731   5.449   3.936   3.665  0.8199 -0.1790 -1.0144
  129MOL   C11615732   5.250   3.973   3.650 -0.9058 -0.2953 -0.6174
  129MOL   C11715733   5.192   3.908   3.770 -0.6911  0.1711 -0.6403
  129MOL   H11815734   5.264   4.079   3.671 -0.2501  0.0484 -2.6804
  129MOL   H11915735   5.170   3.974   3.576 -1.9329 -0.2469  0.4750
  129MOL   H12015736   5.248   3.917   3.863 -0.6071  0.6331 -0.7326
  129MOL   H12115737   5.097   3.960   3.785 -1.9209 -1.6612 -1.8135
  129MOL   H12215738   5.192   3.800   3.755  1.2247  0.1052 -0.3258
  130MOL     C115739   1.570   4.002   6.225 -0.1859 -0.4737  0.2199
  130MOL     C215740   1.676   4.089   6.160 -0.3150  0.6936  0.9270
  130MOL     H315741   1.562   3.908   6.169  1.3366 -1.1213  1.0596
  130MOL     H415742   1.471   4.045   6.216  0.1281  1.0593  3.6072
  130MOL     H515743   1.770   4.035   6.171 -0.0923  0.7301 -0.6812
  130MOL     H615744   1.659   4.085   6.053 -0.9325  0.5850  1.0279
  130MOL     H715745   1.596   3.983   6.329 -0.5970  0.8764  0.5757
  130MOL     C815746   1.682   4.233   6.221  0.1620 -0.1352  0.2305
  130MOL     C915747   1.773   4.325   6.136  0.5857  0.3827 -0.0727
  130MOL    H1015748   1.581   4.273   6.220 -0.1067 -0.8259 -0.3658
  130MOL    H1115749   1.724   4.222   6.321  1.7580 -2.6909 -0.6717
  130MOL    H1215750   1.862   4.281   6.091 -0.8795 -1.4707 -1.2480
  130MOL    H1315751   1.718   4.349   6.045 -1.6290 -0.9517  0.8546
  130MOL    C1415752   1.813   4.452   6.216  0.5649 -0.8997  0.2745
  130MOL    C1515753   1.864   4.561   6.117 -0.9250 -0.2109  0.1935
  130MOL    H1615754   1.734   4.488   6.282  0.4084 -0.8002  0.0359
  130MOL    H1715755   1.896   4.424   6.279  0.8263 -0.5438  0.0919
  130MOL    H1815756   1.928   4.521   6.039  0.5054  1.2875  0.5669
  130MOL    H1915757   1.776   4.600   6.066 -0.7877 -0.5971 -0.3478
  130MOL    C2015758   1.942   4.671   6.189 -0.3333 -0.5065 -0.4663
  130MOL    C2115759   1.975   4.785   6.093  0.3627  0.6852  0.3164
  130MOL    H2215760   1.884   4.710   6.272  0.3292 -0.6554  0.0742
  130MOL    H2315761   2.035   4.642   6.237 -0.0683  2.2082  0.7675
  130MOL    H2415762   2.050   4.746   6.024 -2.1779 -1.4111 -1.3516
  130MOL    H2515763   1.882   4.811   6.040 -0.7511 -0.6911  1.5604
  130MOL    C2615764   2.030   4.910   6.167 -0.0223  0.6599  0.2436
  130MOL    C2715765   2.082   5.027   6.081  0.1100  0.6759 -0.1071
  130MOL    H2815766   1.950   4.956   6.225  0.4371 -1.6515  2.8394
  130MOL    H2915767   2.100   4.885   6.247  0.5576 -2.1336 -1.0569
  130MOL    H3015768   2.180   5.001   6.043 -0.5269 -0.1336 -1.2253
  130MOL    H3115769   2.029   5.017   5.987 -2.1681  0.6856  1.1209
  130MOL    C3215770   2.075   5.161   6.141 -0.4757  0.0913 -0.1744
  130MOL    C3315771   2.059   5.265   6.032  0.2571  0.1620 -0.1643
  130MOL    H3415772   1.999   5.169   6.219  1.0130  1.4852  1.1879
  130MOL    H3515773   2.174   5.169   6.187  1.1044 -1.4596 -3.1888
  130MOL    H3615774   1.995   5.227   5.953 -0.0960  1.4244 -0.5032
  130MOL    H3715775   2.000   5.348   6.071  1.2378  1.9606 -2.3441
  130MOL    C3815776   2.189   5.320   5.978  0.3776 -0.6508  0.0821
  130MOL    C3915777   2.155   5.418   5.867 -0.8375  0.8088  0.0924
  130MOL    H4015778   2.251   5.374   6.049  0.5266 -0.4944 -0.1681
  130MOL    H4115779   2.251   5.242   5.933  1.9129  1.2996 -1.2191
  130MOL    H4215780   2.235   5.431   5.794  0.5091  1.6269  1.6990
  130MOL    H4315781   2.065   5.378   5.821 -0.3778 -0.4987  0.3179
  130MOL    C4415782   2.113   5.552   5.921 -0.1889  0.0262  0.1685
  130MOL    C4515783   2.222   5.648   5.974  0.1110 -0.0645  0.1800
  130MOL    H4615784   2.059   5.602   5.841  0.6383  0.6214 -0.0237
  130MOL    H4715785   2.042   5.545   6.004  2.3992 -0.4155  2.4254
  130MOL    H4815786   2.287   5.594   6.042  0.0244 -1.0150 -0.4832
  130MOL    H4915787   2.283   5.682   5.889  1.5126 -0.8746  0.8436
  130MOL    C5015788   2.162   5.773   6.046  0.3221  0.8306  0.5490
  130MOL    C5115789   2.258   5.860   6.121 -0.5041 -0.5577  0.0259
  130MOL    H5215790   2.101   5.836   5.981 -0.5289 -2.7491 -2.3004
  130MOL    H5315791   2.099   5.729   6.123  1.2018 -0.9346  0.2842
  130MOL    H5415792   2.315   5.800   6.192 -0.0758 -0.5635 -0.3186
  130MOL    H5515793   2.337   5.893   6.053  0.4159 -1.3551  0.6976
  130MOL    C5615794   2.204   5.987   6.182  0.6598  0.1016 -0.9545
  130MOL    C5715795   2.303   6.066   6.262  0.3504  0.6441  1.2541
  130MOL    H5815796   2.165   6.057   6.108 -1.1374  0.4973  0.3110
  130MOL    H5915797   2.121   5.958   6.247 -1.1780 -1.9654 -4.1206
  130MOL    H6015798   2.366   6.006   6.327  1.8939  2.4405  1.4598
  130MOL    H6115799   2.364   6.121   6.191 -0.4532  1.1437  0.9421
  130MOL    C6215800   2.234   6.175   6.352 -0.7851  0.7115  0.5474
  130MOL    C6315801   2.331   6.258   6.432  0.0081  0.6765 -0.0211
  130MOL    H6415802   2.161   6.236   6.300  1.0294  1.2992 -1.4136
  130MOL    H6515803   2.176   6.124   6.428  0.9701 -3.1513 -0.5520
  130MOL    H6615804   2.382   6.203   6.511 -0.2046  0.7223  0.1481
  130MOL    H6715805   2.406   6.300   6.364 -0.6656 -0.7416 -1.6591
  130MOL    C6815806   2.251   6.370   6.500 -0.3822  0.3590 -0.2277
  130MOL    C6915807   2.315   6.449   6.612 -0.2729 -0.0272  0.3166
  130MOL    H7015808   2.214   6.439   6.425  0.0370  2.5092  1.5182
  130MOL    H7115809   2.162   6.322   6.539  1.5647 -3.2408  0.0151
  130MOL    H7215810   2.242   6.512   6.663 -1.0771  1.0421 -2.0914
  130MOL    H7315811   2.365   6.382   6.682 -2.2084  0.2813  2.0673
  130MOL    C7415812   2.428   6.552   6.559  1.4363  0.2193 -0.0542
  130MOL    C7515813   2.520   6.602   6.668 -0.1983  0.0910 -0.1562
  130MOL    H7615814   2.491   6.496   6.490  4.1310  2.9320  0.0526
  130MOL    H7715815   2.379   6.634   6.507  0.1285  0.8166  2.0473
  130MOL    H7815816   2.466   6.654   6.747  1.2416 -0.0655  0.9531
  130MOL    H7915817   2.583   6.526   6.715 -0.7463  0.1627  0.7082
  130MOL    C8015818   2.606   6.721   6.619  0.1140 -0.0132  0.9071
  130MOL    C8115819   2.711   6.768   6.722  0.1628 -0.6288  0.3757
  130MOL    H8215820   2.644   6.686   6.524  0.2533 -1.2793  1.4259
  130MOL    H8315821   2.543   6.801   6.578  1.8914 -0.3056 -2.5885
  130MOL    H8415822   2.760   6.684   6.770  3.1123  1.0589  0.4231
  130MOL    H8515823   2.789   6.812   6.660 -0.4717 -1.6511 -1.1705
  130MOL    C8615824   2.646   6.861   6.823  0.1157  0.0398 -0.4135
  130MOL    C8715825   2.751   6.908   6.927  0.3228 -0.6422  1.0427
  130MOL    H8815826   2.601   6.946   6.770  1.4110  1.0177  0.0351
  130MOL    H8915827   2.566   6.815   6.881 -0.7960  1.4247 -0.5372
  130MOL    H9015828   2.835   6.955   6.876  0.3378 -1.1220  0.6244
  130MOL    H9115829   2.715   6.993   6.985  3.6698  1.3094  0.3434
  130MOL    C9215830   2.807   6.797   7.023  0.2638  0.0440 -0.3319
  130MOL    C9315831   2.856   6.848   7.154  0.6574 -0.2742  0.8506
  130MOL    H9415832   2.724   6.727   7.028  0.4066  0.0816  3.4579
  130MOL    H9515833   2.888   6.745   6.972  0.3061 -0.1197 -0.0936
  130MOL    H9615834   2.944   6.908   7.131  1.0652 -1.6978 -1.4250
  130MOL    H9715835   2.779   6.915   7.191  1.3589  0.8180  0.3371
  130MOL    C9815836   2.893   6.730   7.246 -0.8351  0.2887 -0.3105
  130MOL    C9915837   2.942   6.785   7.374 -0.1978 -0.3625 -0.5747
  130MOL   H10015838   2.815   6.654   7.254 -0.2052 -0.1878  1.5032
  130MOL   H10115839   2.975   6.673   7.204  0.1096  0.9269  0.6524
  130MOL   H10215840   3.007   6.869   7.352 -0.4181 -0.2644 -0.8440
  130MOL   H10315841   2.863   6.832   7.433  0.6525  2.3561 -1.5593
  130MOL   C10415842   3.018   6.682   7.453 -0.1809  0.1909 -0.0594
  130MOL   C10515843   3.054   6.721   7.597 -0.4776  0.3492 -0.3655
  130MOL   H10615844   2.946   6.600   7.456  0.6115 -0.5119  0.2108
  130MOL   H10715845   3.099   6.645   7.391 -0.1979  2.0220 -1.2054
  130MOL   H10815846   3.112   6.813   7.590 -0.8168  0.6141  0.2432
  130MOL   H10915847   2.955   6.751   7.634  0.7077  2.5401  1.1277
  130MOL   C11015848   3.134   6.618   7.686 -0.0132 -0.5655  0.0069
  130MOL   C11115849   3.168   6.686   0.127  0.1065  0.2741  0.2808
  130MOL   H11215850   3.079   6.525   0.010 -0.6058 -0.1861  0.2248
  130MOL   H11315851   3.221   6.576   7.637  0.3387 -0.1049  0.2358
  130MOL   H11415852   3.225   6.778   0.116 -0.9586  1.1858  2.1322
  130MOL   H11515853   3.066   6.704   0.162 -0.7385 -2.2922 -0.7323
  130MOL   C11615854   3.245   6.591   0.224  0.5213 -0.3670 -0.6366
  130MOL   C11715855   3.269   6.652   0.361  0.3464  0.3682  0.2650
  130MOL   H11815856   3.177   6.507   0.239 -1.2111  1.1279  0.1422
  130MOL   H11915857   3.332   6.550   0.173 -0.3450 -2.2495 -0.6163
  130MOL   H12015858   3.285   6.568   0.429 -0.1832 -1.4291 -1.7585
  130MOL   H12115859   3.364   6.704   0.368  0.6834 -0.4295  1.8650
  130MOL   H12215860   3.187   6.720   0.385 -0.5836 -0.5103 -0.3296
  131MOL     C115861   0.749   2.240   4.294 -0.3053 -0.0218 -0.2449
  131MOL     C215862   0.811   2.339   4.193 -0.4790 -0.2470 -0.7130
  131MOL     H315863   0.834   2.183   4.333  0.9366  1.0641 -1.2884
  131MOL     H415864   0.687   2.176   4.231  1.0396 -0.0730 -1.5686
  131MOL     H515865   0.864   2.413   4.252 -1.6150  0.4063 -0.4923
  131MOL     H615866   0.883   2.288   4.129 -2.3027 -1.7154 -1.6672
  131MOL     H715867   0.685   2.282   4.371  0.8070 -0.7206  1.0938
  131MOL     C815868   0.700   2.399   4.095  0.5034 -0.1618 -0.5704
  131MOL     C915869   0.739   2.529   4.033  0.0096  0.2382 -0.2597
  131MOL    H1015870   0.654   2.335   4.020  0.6063 -2.1923  1.0781
  131MOL    H1115871   0.621   2.425   4.166 -1.2950  0.4332 -2.7062
  131MOL    H1215872   0.653   2.590   4.004 -1.4134 -1.4777  0.2735
  131MOL    H1315873   0.798   2.587   4.103  0.2918 -0.6960  0.2666
  131MOL    C1415874   0.817   2.499   3.903 -0.3247  0.7096  0.8673
  131MOL    C1515875   0.835   2.631   3.823  0.3171  0.2330 -0.1974
  131MOL    H1615876   0.916   2.462   3.931  0.5052 -0.3571 -3.1842
  131MOL    H1715877   0.791   2.415   3.838 -0.0678 -0.6156  2.4339
  131MOL    H1815878   0.740   2.666   3.783  1.1297  0.4878 -1.9589
  131MOL    H1915879   0.874   2.722   3.868  1.3637  0.1391 -0.8996
  131MOL    C2015880   0.923   2.612   3.696 -0.0211  0.4424  1.0679
  131MOL    C2115881   0.913   2.727   3.598 -0.3482  0.5072 -0.7061
  131MOL    H2215882   1.024   2.605   3.735 -0.7997 -3.5853  2.4990
  131MOL    H2315883   0.893   2.525   3.638 -2.1450  3.1346 -2.0743
  131MOL    H2415884   0.886   2.688   3.500  1.4190  0.3777 -1.1528
  131MOL    H2515885   0.842   2.805   3.625  0.0771  0.7422 -0.2556
  131MOL    C2615886   1.050   2.790   3.577  0.0798  0.5879 -0.3141
  131MOL    C2715887   1.037   2.923   3.497 -0.0504 -0.1443  0.0271
  131MOL    H2815888   1.096   2.807   3.675  0.7539  1.2885 -0.7535
  131MOL    H2915889   1.115   2.724   3.519 -0.1434  0.6072 -0.5864
  131MOL    H3015890   0.963   2.911   3.418 -0.8422 -0.8394  0.8562
  131MOL    H3115891   0.991   2.989   3.571  0.4905 -0.8408  1.0054
  131MOL    C3215892   1.166   2.972   3.445 -0.2350 -0.8190 -0.2679
  131MOL    C3315893   1.162   3.100   3.362 -0.8464  0.4720  0.1397
  131MOL    H3415894   1.234   2.993   3.528 -1.5467  1.9378  0.2027
  131MOL    H3515895   1.213   2.897   3.382 -0.3337 -2.5947  1.7078
  131MOL    H3615896   1.095   3.080   3.279 -0.9726  0.4455  0.2476
  131MOL    H3715897   1.115   3.181   3.419 -0.4686  0.2654  0.7505
  131MOL    C3815898   1.296   3.158   3.320  0.0037  0.0444  0.2329
  131MOL    C3915899   1.278   3.272   3.212  0.3899 -0.1185 -0.1273
  131MOL    H4015900   1.336   3.197   3.413  0.1438 -1.4077  0.8033
  131MOL    H4115901   1.371   3.085   3.290 -1.1045 -0.6514 -0.9006
  131MOL    H4215902   1.280   3.220   3.116  0.1221 -0.5975  0.1276
  131MOL    H4315903   1.184   3.323   3.232  0.1944 -0.3171 -0.5282
  131MOL    C4415904   1.388   3.380   3.218  0.4770  0.9718 -0.2944
  131MOL    C4515905   1.350   3.493   3.116  0.1791  0.5024  0.4537
  131MOL    H4615906   1.390   3.420   3.320  0.6574 -1.2732  0.6014
  131MOL    H4715907   1.486   3.333   3.206 -0.9659 -2.3933  0.4934
  131MOL    H4815908   1.330   3.440   3.023 -0.7488  0.7994  0.4866
  131MOL    H4915909   1.256   3.532   3.154 -1.0791 -0.4830 -1.5920
  131MOL    C5015910   1.455   3.601   3.086 -0.3158  0.6234  0.8796
  131MOL    C5115911   1.397   3.709   2.993  0.2733  0.0970  0.2280
  131MOL    H5215912   1.495   3.655   3.172  2.6211  0.3943 -0.2805
  131MOL    H5315913   1.539   3.549   3.040 -3.1078 -3.3301 -0.0390
  131MOL    H5415914   1.340   3.667   2.910  0.4244  0.1400  0.1027
  131MOL    H5515915   1.318   3.751   3.055 -0.2263  0.7451 -0.8267
  131MOL    C5615916   1.483   3.818   2.953 -0.4271 -0.1887  0.0025
  131MOL    C5715917   1.402   3.917   2.859 -0.1613  0.8946  0.1451
  131MOL    H5815918   1.512   3.865   3.048 -0.5493  0.4836 -0.2894
  131MOL    H5915919   1.574   3.788   2.902  0.9320  3.3923  0.1349
  131MOL    H6015920   1.384   3.862   2.767 -2.1147  0.4409  0.7834
  131MOL    H6115921   1.315   3.951   2.915 -2.0864  0.4782 -2.5329
  131MOL    C6215922   1.487   4.044   2.812 -0.6142 -0.5959 -0.1327
  131MOL    C6315923   1.401   4.168   2.771 -0.3342  0.2974 -0.0303
  131MOL    H6415924   1.557   4.069   2.891 -1.2714  1.4029 -0.1676
  131MOL    H6515925   1.543   4.013   2.724 -1.1780 -2.6275  0.1762
  131MOL    H6615926   1.317   4.133   2.710 -0.7511  0.2389  0.5745
  131MOL    H6715927   1.351   4.199   2.863 -0.2573 -1.2006  0.5302
  131MOL    C6815928   1.486   4.282   2.714  0.4800  0.0566 -0.2804
  131MOL    C6915929   1.402   4.407   2.680 -0.7431 -0.3238 -0.6305
  131MOL    H7015930   1.552   4.305   2.797  2.2168  0.6511 -1.7676
  131MOL    H7115931   1.546   4.243   2.631 -0.2731 -1.6652 -0.0373
  131MOL    H7215932   1.368   4.450   2.774  0.7251  1.8954 -1.0775
  131MOL    H7315933   1.473   4.482   2.644  0.5330 -2.0819 -1.8524
  131MOL    C7415934   1.284   4.403   2.573  0.5008 -0.1710 -0.8960
  131MOL    C7515935   1.329   4.371   2.429 -0.2457  0.1757  0.4856
  131MOL    H7615936   1.213   4.327   2.606 -0.2173  1.7330  2.0777
  131MOL    H7715937   1.232   4.498   2.573 -0.3379 -0.6089  0.8170
  131MOL    H7815938   1.375   4.462   2.390 -1.0290  0.5396  0.4051
  131MOL    H7915939   1.414   4.303   2.437 -2.0532 -2.1677  0.2994
  131MOL    C8015940   1.215   4.331   2.333 -0.0152  0.1206  1.2091
  131MOL    C8115941   1.276   4.298   2.199 -0.5825  0.4655 -0.6613
  131MOL    H8215942   1.153   4.252   2.376  0.9910 -1.6308 -0.4790
  131MOL    H8315943   1.144   4.413   2.326 -1.4787 -1.2817 -0.9147
  131MOL    H8415944   1.288   4.385   2.136  2.0401 -0.5945 -1.6942
  131MOL    H8515945   1.373   4.249   2.212 -1.7233 -1.2634  1.9687
  131MOL    C8615946   1.177   4.220   2.112 -0.2206  0.0592 -0.0799
  131MOL    C8715947   1.246   4.118   2.018 -0.3516  0.1489 -0.0482
  131MOL    H8815948   1.106   4.160   2.169 -0.1842 -0.5526 -0.6633
  131MOL    H8915949   1.111   4.284   2.053 -0.3867  0.4627  0.5443
  131MOL    H9015950   1.313   4.191   1.972 -1.4158  1.7927  0.9544
  131MOL    H9115951   1.302   4.049   2.082 -1.6628 -0.2671  0.6640
  131MOL    C9215952   1.153   4.051   1.924  0.5940  0.2434 -0.0039
  131MOL    C9315953   1.239   3.977   1.807 -0.8770 -0.5665  0.4152
  131MOL    H9415954   1.100   3.976   1.984  2.8184  0.1532  1.9412
  131MOL    H9515955   1.074   4.113   1.882  0.2847  0.0926  0.3485
  131MOL    H9615956   1.312   3.911   1.855  1.5176  1.0492 -0.8780
  131MOL    H9715957   1.175   3.916   1.745  1.8588 -0.4515 -2.6264
  131MOL    C9815958   1.317   4.068   1.705  0.7877  0.3982  0.4154
  131MOL    C9915959   1.418   3.988   1.622 -0.2661  0.4420  0.4555
  131MOL   H10015960   1.247   4.118   1.637  1.1587  0.3447 -0.0107
  131MOL   H10115961   1.364   4.146   1.765  1.0967 -0.1225  0.8447
  131MOL   H10215962   1.495   3.933   1.676 -0.0537 -0.3482 -0.6331
  131MOL   H10315963   1.371   3.905   1.568  2.2291 -1.6356  1.3684
  131MOL   C10415964   1.487   4.078   1.514  0.0059  0.1600 -0.4932
  131MOL   C10515965   1.600   4.176   1.561  0.7429  0.1429  0.0153
  131MOL   H10615966   1.527   4.014   1.436  0.2572 -1.5827  1.0459
  131MOL   H10715967   1.407   4.124   1.456  0.8552 -0.3962 -2.1289
  131MOL   H10815968   1.601   4.270   1.506  1.4597  0.2718  0.2521
  131MOL   H10915969   1.572   4.204   1.663 -0.4050 -0.1819 -0.1977
  131MOL   C11015970   1.733   4.104   1.567 -0.2055 -0.1580  0.1461
  131MOL   C11115971   1.852   4.191   1.609  0.6214 -0.4464 -0.1759
  131MOL   H11215972   1.732   4.018   1.634  0.2721 -0.4642 -0.2398
  131MOL   H11315973   1.752   4.067   1.467  1.7251  1.1384  0.0018
  131MOL   H11415974   1.859   4.283   1.551 -2.8341 -1.4850 -2.3560
  131MOL   H11515975   1.839   4.233   1.708  2.0197 -2.5580  0.9499
  131MOL   C11615976   1.978   4.117   1.600  0.2825 -0.0197 -0.0194
  131MOL   C11715977   2.074   4.138   1.723 -0.0436  0.1915 -0.1475
  131MOL   H11815978   1.963   4.009   1.588  1.3352 -0.0271 -1.4231
  131MOL   H11915979   2.024   4.151   1.507 -0.0278  1.8673  0.4976
  131MOL   H12015980   2.034   4.109   1.819 -0.7679  2.4483  0.2583
  131MOL   H12115981   2.168   4.084   1.710 -2.0549 -3.2472 -1.1467
  131MOL   H12215982   2.104   4.243   1.720  1.3507 -0.1809  0.6485
  132MOL     C115983   6.480   1.588   0.778  0.2808  0.2575 -0.1646
  132MOL     C215984   6.582   1.636   0.879  0.3216  0.4142 -0.4054
  132MOL     H315985   6.464   1.483   0.801  1.3152 -0.0962 -0.9965
  132MOL     H415986   6.523   1.590   0.678  0.9440  1.0886  0.1265
  132MOL     H515987   6.585   1.742   0.855  1.2244  0.0979 -1.7008
  132MOL     H615988   6.540   1.644   0.979 -1.3033  1.4657 -1.1630
  132MOL     H715989   6.382   1.633   0.789  0.2849  0.4558 -0.9578
  132MOL     C815990   6.717   1.567   0.870  0.3505 -0.4716 -0.0354
  132MOL     C915991   6.823   1.593   0.982  0.5784 -0.7004 -0.2054
  132MOL    H1015992   6.685   1.464   0.855  1.5831 -0.7958 -0.5007
  132MOL    H1115993   6.755   1.590   0.770  1.8786  2.8101  1.2124
  132MOL    H1215994   6.834   1.699   1.006  2.7600 -0.7332 -0.8988
  132MOL    H1315995   6.788   1.541   1.071  1.7198 -2.0263 -0.4956
  132MOL    C1415996   6.954   1.534   0.933 -0.7800 -0.2800 -0.1391
  132MOL    C1515997   7.073   1.548   1.035 -0.1287  0.0771 -0.4012
  132MOL    H1615998   6.930   1.428   0.919 -2.2988 -0.1169  1.1267
  132MOL    H1715999   6.990   1.574   0.838 -0.1053  0.1408  0.2908
  132MOL    H1816000   7.164   1.518   0.984 -0.7221 -1.0508 -0.8078
  132MOL    H1916001   7.088   1.652   1.062 -1.5110  0.8004 -2.2905
  132MOL    C2016002   7.058   1.458   1.160 -0.1280 -0.2521  0.3217
  132MOL    C2116003   7.174   1.485   1.257 -0.0691 -0.1870 -1.1682
  132MOL    H2216004   6.966   1.489   1.210 -2.4792 -1.8573 -2.8303
  132MOL    H2316005   7.057   1.353   1.130 -1.4487 -0.0595 -0.3520
  132MOL    H2416006   7.269   1.464   1.208 -0.2144 -0.6213 -1.2733
  132MOL    H2516007   7.174   1.591   1.281  1.1236  0.1349 -2.5095
  132MOL    C2616008   7.150   1.394   1.387  0.0893 -0.5692  0.1349
  132MOL    C2716009   7.284   1.373   1.449  0.4744 -0.0411 -0.7632
  132MOL    H2816010   7.078   1.432   1.459  0.2321 -2.9971  1.5939
  132MOL    H2916011   7.112   1.298   1.355  0.4606 -0.1478 -1.6264
  132MOL    H3016012   7.350   1.327   1.375 -2.3608 -2.9029 -1.6813
  132MOL    H3116013   7.321   1.468   1.486 -0.3175  0.5572 -1.4653
  132MOL    C3216014   7.299   1.279   1.570 -0.3141  0.7339 -0.0591
  132MOL    C3316015   7.445   1.273   1.628  0.4541 -0.1404  0.3151
  132MOL    H3416016   7.230   1.296   1.653  0.9062 -0.8846  1.3355
  132MOL    H3516017   7.278   1.177   1.537  2.2081 -0.1498  0.9284
  132MOL    H3616018   7.457   1.182   1.686 -1.3462 -1.0138 -0.6379
  132MOL    H3716019   7.522   1.289   1.552  1.1481 -2.8880  0.4042
  132MOL    C3816020   7.469   1.389   1.730 -0.2070 -0.4354 -0.1769
  132MOL    C3916021   7.611   1.387   1.785  0.1623  0.4466  0.2423
  132MOL    H4016022   7.448   1.485   1.682 -0.8848 -0.6217 -0.2544
  132MOL    H4116023   7.391   1.385   1.806  1.0305  1.5368  1.2339
  132MOL    H4216024   7.607   1.428   1.885 -0.0769  0.6666  0.1439
  132MOL    H4316025   7.631   1.283   1.807 -4.3107 -0.4207  0.7003
  132MOL    C4416026   0.025   1.453   1.706  0.1827 -0.1110  0.2558
  132MOL    C4516027   0.169   1.461   1.760 -0.1347  0.3588 -0.0178
  132MOL    H4616028   0.028   1.415   1.604  0.5446 -0.3208  0.3435
  132MOL    H4716029   7.682   1.556   1.693  3.9148  1.2792  0.6607
  132MOL    H4816030   0.163   1.486   1.866  0.7342 -1.1264  0.4042
  132MOL    H4916031   0.188   1.353   1.765 -1.8547 -0.0595 -1.8640
  132MOL    C5016032   0.250   1.567   1.682 -0.0346 -0.1218  0.7236
  132MOL    C5116033   0.198   1.716   1.707  0.3767 -0.0924 -0.1129
  132MOL    H5216034   0.355   1.546   1.700 -0.1557 -2.3858 -1.1070
  132MOL    H5316035   0.242   1.553   1.575 -0.3421 -0.9550  0.8510
  132MOL    H5416036   0.201   1.776   1.616 -1.7854 -1.1466 -0.9087
  132MOL    H5516037   0.096   1.716   1.744  0.8350 -0.7279  1.1719
  132MOL    C5616038   0.284   1.798   1.805 -0.5380 -0.0293  0.9569
  132MOL    C5716039   0.254   1.949   1.820  0.3285 -0.7683  0.2717
  132MOL    H5816040   0.260   1.757   1.903  1.4213 -0.7276  1.1710
  132MOL    H5916041   0.388   1.774   1.782 -1.0381 -1.1092 -0.2351
  132MOL    H6016042   0.262   1.998   1.723 -0.1635 -1.6162 -0.2018
  132MOL    H6116043   0.150   1.964   1.851  0.2266  0.4915 -0.6482
  132MOL    C6216044   0.328   2.024   1.925 -0.1845 -0.6123  0.3753
  132MOL    C6316045   0.285   2.172   1.959 -0.3223  0.1503 -0.3732
  132MOL    H6416046   0.318   1.972   2.020  0.8281 -0.6371  0.4791
  132MOL    H6516047   0.435   2.015   1.906 -0.0119 -0.9770  1.4740
  132MOL    H6616048   0.260   2.221   1.865 -1.8652 -0.3215 -0.2326
  132MOL    H6716049   0.190   2.158   2.012 -0.0617  0.4393  0.1757
  132MOL    C6816050   0.398   2.245   2.044  0.1161 -0.5611  0.5114
  132MOL    C6916051   0.373   2.399   2.068  0.2712 -0.3474  0.3496
  132MOL    H7016052   0.426   2.202   2.139 -0.2315  1.5298  1.5935
  132MOL    H7116053   0.492   2.235   1.990  0.7897  2.8504  0.9696
  132MOL    H7216054   0.398   2.447   1.973 -1.0986  2.4078  1.3391
  132MOL    H7316055   0.266   2.418   2.077  0.3252  0.3810 -0.4894
  132MOL    C7416056   0.445   2.475   2.181 -0.1969 -0.0411  0.2052
  132MOL    C7516057   0.411   2.627   2.179 -0.1048  0.5556 -0.4690
  132MOL    H7616058   0.408   2.432   2.274 -0.2304  0.5912  0.4883
  132MOL    H7716059   0.553   2.461   2.178  0.0367  1.8671 -1.2343
  132MOL    H7816060   0.390   2.663   2.078 -1.0013 -2.1718 -1.3198
  132MOL    H7916061   0.318   2.640   2.234 -0.1995 -1.1289 -0.1970
  132MOL    C8016062   0.512   2.716   2.249 -0.0781  0.8162 -0.7138
  132MOL    C8116063   0.489   2.865   2.215  0.0533 -0.3921 -0.0915
  132MOL    H8216064   0.513   2.704   2.357  1.9065  1.7441 -0.5954
  132MOL    H8316065   0.611   2.680   2.221 -0.7277 -0.6272 -1.1990
  132MOL    H8416066   0.468   2.876   2.108 -0.5710 -1.3635 -0.0732
  132MOL    H8516067   0.399   2.902   2.263  0.3617  1.9796 -1.2690
  132MOL    C8616068   0.618   2.942   2.262  0.0912 -0.2060 -0.1151
  132MOL    C8716069   0.613   3.090   2.223  0.3924  0.3352 -0.5084
  132MOL    H8816070   0.641   2.934   2.368  2.1253 -1.4201 -0.6250
  132MOL    H8916071   0.703   2.893   2.215 -0.9914 -1.3612 -0.8999
  132MOL    H9016072   0.615   3.101   2.114  0.4503 -1.3477 -0.6901
  132MOL    H9116073   0.512   3.128   2.240  0.5364  0.2695  0.5378
  132MOL    C9216074   0.722   3.169   2.296 -0.0247  0.9351  0.0451
  132MOL    C9316075   0.719   3.311   2.249 -0.8132  0.3642 -1.3977
  132MOL    H9416076   0.692   3.175   2.401  3.4105 -1.5264  1.2408
  132MOL    H9516077   0.814   3.112   2.287  0.2802  1.1646  1.5667
  132MOL    H9616078   0.722   3.307   2.140  2.3403  1.3414 -1.3894
  132MOL    H9716079   0.622   3.359   2.263  0.3978  2.1543  1.2072
  132MOL    C9816080   0.845   3.394   2.295  0.1065 -0.0556  0.0483
  132MOL    C9916081   0.864   3.526   2.233  0.3098  0.0299 -0.3215
  132MOL   H10016082   0.855   3.413   2.402 -0.2341  1.0026 -0.0980
  132MOL   H10116083   0.927   3.332   2.260 -0.2547 -0.5540  0.0678
  132MOL   H10216084   0.875   3.515   2.125  3.4585  0.6929 -0.1336
  132MOL   H10316085   0.784   3.598   2.248  0.5010  0.4568 -1.3186
  132MOL   C10416086   0.997   3.591   2.276 -0.3960  0.1852  0.8498
  132MOL   C10516087   1.052   3.710   2.193  0.0387 -0.3224  0.5976
  132MOL   H10616088   0.977   3.626   2.377 -0.9715  2.9613 -0.1921
  132MOL   H10716089   1.070   3.510   2.281  0.5942  1.1700  3.1067
  132MOL   H10816090   1.043   3.687   2.087  1.1659 -0.5477  0.5418
  132MOL   H10916091   1.009   3.806   2.222  0.7702  0.4400 -0.7557
  132MOL   C11016092   1.201   3.730   2.223 -0.2320 -0.5886  0.0854
  132MOL   C11116093   1.242   3.834   2.326  0.1782  0.3398 -0.0773
  132MOL   H11216094   1.246   3.634   2.245 -0.1209 -0.3555  0.8780
  132MOL   H11316095   1.246   3.755   2.126  2.3599 -1.1056  1.1303
  132MOL   H11416096   1.178   3.918   2.299 -1.0552  0.5073  3.0841
  132MOL   H11516097   1.204   3.789   2.418 -0.9143 -3.5329 -2.3102
  132MOL   C11616098   1.394   3.847   2.328 -0.0755  0.1114  0.0378
  132MOL   C11716099   1.444   3.947   2.436  0.5233 -0.3133 -0.4128
  132MOL   H11816100   1.449   3.757   2.357 -0.4576  1.0826  3.9828
  132MOL   H11916101   1.422   3.880   2.228  0.5056  0.4766  0.3233
  132MOL   H12016102   1.406   4.047   2.417  0.5755 -0.3612 -0.7745
  132MOL   H12116103   1.410   3.912   2.533  1.7468  0.6620  0.3803
  132MOL   H12216104   1.553   3.955   2.429  0.5871  2.2599  2.3710
  133MOL     C116105   2.053   6.973   2.588  0.1307 -0.0370  0.3533
  133MOL     C216106   2.057   6.860   2.700  0.3162 -0.6553 -0.6482
  133MOL     H316107   2.146   6.961   2.533 -1.0071  2.1182 -2.1531
  133MOL     H416108   2.044   7.069   2.637 -0.0278 -0.5224  1.2956
  133MOL     H516109   2.135   6.890   2.769 -0.1858 -0.4570 -0.1687
  133MOL     H616110   1.972   6.875   2.766  1.3280 -1.1445  0.7927
  133MOL     H716111   1.958   6.975   2.534 -0.6827  0.6399  1.7901
  133MOL     C816112   2.056   6.723   2.645 -0.0578 -0.0908  0.2989
  133MOL     C916113   2.074   6.617   2.757  0.0684  0.0891 -1.0150
  133MOL    H1016114   1.965   6.705   2.588  0.3990  1.3420 -0.9083
  133MOL    H1116115   2.151   6.725   2.591  0.1658  1.3432  0.7174
  133MOL    H1216116   2.167   6.639   2.810  0.8094 -0.2596 -2.1611
  133MOL    H1316117   1.996   6.626   2.833  0.2602 -0.4898 -0.7461
  133MOL    C1416118   2.080   6.474   2.700 -0.4701  0.4004  0.0822
  133MOL    C1516119   2.062   6.370   2.809 -0.0704  0.7060  0.0797
  133MOL    H1616120   1.992   6.463   2.637 -0.6011 -1.6391  0.5766
  133MOL    H1716121   2.168   6.453   2.639  1.4834 -2.7070  3.7087
  133MOL    H1816122   2.118   6.393   2.900 -0.1023 -2.0724  0.8583
  133MOL    H1916123   1.967   6.358   2.862  0.2846 -3.9006 -0.0889
  133MOL    C2016124   2.116   6.236   2.744 -0.5078 -0.1934  0.0207
  133MOL    C2116125   2.080   6.109   2.825 -0.4150  0.1035  0.0131
  133MOL    H2216126   2.067   6.230   2.647 -1.1456 -2.4711  0.4602
  133MOL    H2316127   2.225   6.240   2.736 -0.4483  2.1580  1.5994
  133MOL    H2416128   2.112   6.133   2.927  0.7166  2.5581 -0.8665
  133MOL    H2516129   1.972   6.108   2.837 -0.3402  0.1974  0.7273
  133MOL    C2616130   2.134   5.975   2.763 -0.0346 -0.1855 -0.6914
  133MOL    C2716131   2.291   5.975   2.733 -0.0191  0.3588 -0.1968
  133MOL    H2816132   2.106   5.887   2.822 -1.5386  0.7348 -0.0147
  133MOL    H2916133   2.088   5.955   2.666  0.4913 -3.2167 -0.3735
  133MOL    H3016134   2.323   6.065   2.681  1.5690  1.4924  2.6412
  133MOL    H3116135   2.348   5.966   2.826 -0.6279  1.4591  0.2966
  133MOL    C3216136   2.329   5.852   2.640  0.2487  0.0989 -0.5788
  133MOL    C3316137   2.447   5.774   2.693 -0.9078 -0.2307 -0.7052
  133MOL    H3416138   2.242   5.792   2.615  0.7493 -1.4646  1.2841
  133MOL    H3516139   2.361   5.899   2.547 -1.7781 -0.1363 -1.4191
  133MOL    H3616140   2.522   5.847   2.725 -2.4723  2.2950 -2.5669
  133MOL    H3716141   2.416   5.724   2.784  0.2414  1.5313  0.6750
  133MOL    C3816142   2.501   5.674   2.589 -0.3645 -0.8774 -0.8041
  133MOL    C3916143   2.634   5.605   2.629 -0.5269 -0.1099 -0.1643
  133MOL    H4016144   2.422   5.602   2.566 -1.8733  0.7735 -0.9170
  133MOL    H4116145   2.508   5.729   2.495 -0.7950  1.2288  0.3782
  133MOL    H4216146   2.709   5.673   2.671 -1.1481  1.4650 -1.5329
  133MOL    H4316147   2.617   5.535   2.711  0.1108  0.3676  0.3799
  133MOL    C4416148   2.687   5.514   2.511  0.2296 -0.3461  0.2473
  133MOL    C4516149   2.762   5.601   2.402 -0.1213 -0.0431  0.2746
  133MOL    H4616150   2.768   5.446   2.538 -0.3636 -1.0645  0.2307
  133MOL    H4716151   2.607   5.463   2.458 -1.0544  2.9629 -1.1270
  133MOL    H4816152   2.698   5.677   2.357  0.7304  0.1559 -0.6058
  133MOL    H4916153   2.841   5.665   2.443  0.0312  0.0944 -0.2277
  133MOL    C5016154   2.832   5.507   2.300 -0.4491  0.1776  0.6187
  133MOL    C5116155   2.925   5.591   2.212 -0.0394 -0.0972  0.1407
  133MOL    H5216156   2.891   5.433   2.354  0.8060 -0.3930 -1.5139
  133MOL    H5316157   2.755   5.457   2.242 -0.9682 -0.1596  1.5785
  133MOL    H5416158   2.869   5.648   2.138  1.3749  0.6948 -0.3459
  133MOL    H5516159   2.992   5.654   2.271  0.7081 -0.6281 -0.1319
  133MOL    C5616160   3.021   5.506   2.133  0.3134 -0.2377  0.3348
  133MOL    C5716161   3.115   5.601   2.048  0.4785 -0.1921 -0.4453
  133MOL    H5816162   3.081   5.450   2.205 -2.2087 -2.0155  1.1238
  133MOL    H5916163   2.981   5.431   2.065  0.0202  0.1410  0.0909
  133MOL    H6016164   3.055   5.680   2.004 -0.3476 -1.2228 -1.1918
  133MOL    H6116165   3.169   5.660   2.122  1.4487 -0.8087 -0.6507
  133MOL    C6216166   3.209   5.536   1.951 -0.5106  0.7857 -0.0255
  133MOL    C6316167   3.270   5.637   1.851 -0.6829  0.5505  0.0521
  133MOL    H6416168   3.285   5.488   2.012  0.4253  0.3842 -1.4767
  133MOL    H6516169   3.170   5.451   1.895  0.1899 -0.0678  0.7907
  133MOL    H6616170   3.307   5.577   1.768 -0.1343 -0.2456  0.8570
  133MOL    H6716171   3.194   5.707   1.816 -0.4999  0.9909  0.5136
  133MOL    C6816172   3.387   5.730   1.903  1.0228  0.0607 -0.1910
  133MOL    C6916173   3.400   5.863   1.823  0.1214 -0.5566 -1.0089
  133MOL    H7016174   3.385   5.749   2.011 -1.5424  1.9051 -0.5010
  133MOL    H7116175   3.471   5.662   1.889  2.6090  1.7496  0.7316
  133MOL    H7216176   3.500   5.903   1.843 -0.6166  0.8110  0.0005
  133MOL    H7316177   3.403   5.845   1.715 -0.4866 -1.1230 -0.9279
  133MOL    C7416178   3.296   5.971   1.856  0.1270 -0.1088  0.1853
  133MOL    C7516179   3.323   6.024   1.999 -0.3825  0.5507  0.0636
  133MOL    H7616180   3.312   6.054   1.787  0.1975  0.0878  0.4374
  133MOL    H7716181   3.192   5.938   1.847 -0.0191  0.6216 -1.0059
  133MOL    H7816182   3.311   5.947   2.076 -3.0532 -1.5213 -2.3114
  133MOL    H7916183   3.424   6.060   2.016 -0.1857  0.0584 -0.0735
  133MOL    C8016184   3.223   6.143   2.038  0.0179  0.0938 -0.7935
  133MOL    C8116185   3.086   6.087   2.091  1.0987 -0.4757  0.6356
  133MOL    H8216186   3.277   6.204   2.111 -1.3242 -0.2257  0.4873
  133MOL    H8316187   3.202   6.202   1.949 -2.1574 -0.5623 -0.7365
  133MOL    H8416188   3.043   6.014   2.023  0.6191 -0.1193  0.5496
  133MOL    H8516189   3.118   6.030   2.178 -1.1039 -2.5761  0.1359
  133MOL    C8616190   2.964   6.176   2.121  0.1738 -0.7282 -0.3339
  133MOL    C8716191   2.990   6.292   2.220 -0.7370 -0.1126  0.3496
  133MOL    H8816192   2.942   6.235   2.032 -1.3713  1.6011  1.5374
  133MOL    H8916193   2.869   6.125   2.138  0.4854 -1.9346 -2.0836
  133MOL    H9016194   3.007   6.275   2.326  1.4703  2.1481  0.4061
  133MOL    H9116195   3.086   6.336   2.193  0.1073 -1.7660  0.6020
  133MOL    C9216196   2.887   6.406   2.219 -0.3280  0.4287 -0.0618
  133MOL    C9316197   2.905   6.511   2.327 -0.7902 -0.3912  0.3718
  133MOL    H9416198   2.903   6.452   2.122  5.2645  0.1109  0.5337
  133MOL    H9516199   2.787   6.364   2.217 -0.4010  0.6264 -0.4928
  133MOL    H9616200   2.877   6.473   2.425 -4.3104  0.0962 -0.3800
  133MOL    H9716201   3.008   6.545   2.339 -1.0321  0.5579 -0.1956
  133MOL    C9816202   2.833   6.637   2.283 -0.8439  0.0532  0.2416
  133MOL    C9916203   2.678   6.629   2.304  0.4403  0.6892 -0.7484
  133MOL   H10016204   2.863   6.711   2.357 -1.3583 -0.4175  0.9259
  133MOL   H10116205   2.858   6.656   2.178  0.3732 -1.1760  0.2840
  133MOL   H10216206   2.635   6.547   2.246 -0.9466  0.5545  0.4365
  133MOL   H10316207   2.655   6.609   2.408  2.2919  0.6180 -0.3396
  133MOL   C10416208   2.624   6.771   2.271 -0.1861  0.0635  0.4974
  133MOL   C10516209   2.470   6.775   2.271 -0.0527  0.4574 -0.2712
  133MOL   H10616210   2.649   6.842   2.349 -1.2482 -0.4877  1.3446
  133MOL   H10716211   2.667   6.792   2.173  0.4813 -0.0293  0.7669
  133MOL   H10816212   2.432   6.695   2.207 -1.2131  2.0075 -1.5915
  133MOL   H10916213   2.434   6.758   2.372  0.1267  1.2369 -0.0670
  133MOL   C11016214   2.424   6.914   2.220 -0.4702  0.2825 -0.4038
  133MOL   C11116215   2.274   6.941   2.255  0.3021 -0.4256  0.5123
  133MOL   H11216216   2.486   6.989   2.269 -0.1987 -2.3145  3.4710
  133MOL   H11316217   2.432   6.913   2.111 -3.1390 -1.0141 -0.6400
  133MOL   H11416218   2.213   6.875   2.194 -1.3315  1.7146 -0.2389
  133MOL   H11516219   2.261   6.942   2.364 -3.4469 -0.0651  0.1283
  133MOL   C11616220   2.229   7.085   2.205  0.0092  0.6386  0.6407
  133MOL   C11716221   2.090   7.144   2.247 -0.5353  0.4386  0.0537
  133MOL   H11816222   2.314   7.141   2.245  1.1143 -0.8385  0.3965
  133MOL   H11916223   2.238   7.076   2.097 -1.4316  0.1535  0.5543
  133MOL   H12016224   2.088   7.251   2.226  1.3103  0.2191 -1.3982
  133MOL   H12116225   2.013   7.099   2.183  2.1767 -0.2040 -2.9393
  133MOL   H12216226   2.081   7.130   2.354  1.9211 -0.3333  0.1802
  134MOL     C116227   1.610   5.405   1.347  0.4906  0.2105  0.3744
  134MOL     C216228   1.687   5.417   1.219  0.4482 -0.0511 -0.3155
  134MOL     H316229   1.582   5.301   1.368 -0.0662  0.6113  1.6337
  134MOL     H416230   1.509   5.447   1.343 -0.2309 -1.4661  0.2292
  134MOL     H516231   1.685   5.517   1.175  1.7918 -0.1956 -0.7175
  134MOL     H616232   1.788   5.391   1.249 -0.2045  0.1668  2.2255
  134MOL     H716233   1.645   5.455   1.437 -0.3343  2.2739 -0.4261
  134MOL     C816234   1.643   5.319   1.107 -0.4941 -0.0940 -0.0728
  134MOL     C916235   1.521   5.377   1.031 -0.0379 -0.2054 -0.0949
  134MOL    H1016236   1.731   5.302   1.045 -1.0316  0.5216 -1.0306
  134MOL    H1116237   1.631   5.225   1.161 -2.7355  0.4672  0.4678
  134MOL    H1216238   1.463   5.290   0.999 -1.3379 -0.3520  2.4502
  134MOL    H1316239   1.452   5.427   1.099 -0.4656  0.0713 -0.7335
  134MOL    C1416240   1.557   5.465   0.909 -0.1954 -0.0244 -0.3938
  134MOL    C1516241   1.443   5.492   0.815  0.2149 -0.5176 -0.1601
  134MOL    H1616242   1.590   5.561   0.949  0.2833 -0.6780  0.8047
  134MOL    H1716243   1.638   5.424   0.849  1.0235  1.7791 -0.0243
  134MOL    H1816244   1.379   5.555   0.877  2.1129  1.5054 -0.1638
  134MOL    H1916245   1.470   5.543   0.722 -1.4988  0.2353 -0.2525
  134MOL    C2016246   1.373   5.359   0.772 -0.1512 -0.3994 -0.3782
  134MOL    C2116247   1.286   5.388   0.641  0.5922  1.3846  0.0781
  134MOL    H2216248   1.446   5.283   0.743  0.5018  0.4549 -0.9818
  134MOL    H2316249   1.309   5.318   0.851 -0.9987  1.8064  0.1132
  134MOL    H2416250   1.218   5.468   0.672 -1.1003  0.6331 -1.6193
  134MOL    H2516251   1.359   5.414   0.564  0.6875  0.6644 -0.0751
  134MOL    C2616252   1.207   5.258   0.605 -0.0654  0.5443 -0.5282
  134MOL    C2716253   1.131   5.278   0.475  0.0517  0.2086 -0.6580
  134MOL    H2816254   1.275   5.175   0.585 -1.7273 -0.9195 -0.2037
  134MOL    H2916255   1.147   5.234   0.692  0.5077  3.1485  0.6311
  134MOL    H3016256   1.047   5.347   0.488  0.7479  0.6818  1.4502
  134MOL    H3116257   1.204   5.328   0.412  0.6110  1.6111  1.0636
  134MOL    C3216258   1.075   5.151   0.416 -0.2451  0.3266 -0.3966
  134MOL    C3316259   1.002   5.158   0.285  0.2741 -0.3019 -0.1493
  134MOL    H3416260   1.157   5.079   0.412 -1.2512 -0.8335 -0.3028
  134MOL    H3516261   1.003   5.111   0.487 -0.5297 -0.5668 -1.1724
  134MOL    H3616262   0.927   5.236   0.299  0.4377 -0.3510  1.0326
  134MOL    H3716263   1.067   5.202   0.209 -1.5751  0.3350 -1.3869
  134MOL    C3816264   0.954   5.022   0.246  0.2591  0.9894 -0.0859
  134MOL    C3916265   0.857   5.023   0.133 -1.1088 -0.3397 -0.0328
  134MOL    H4016266   1.044   4.964   0.223 -0.9326 -0.8350 -0.1979
  134MOL    H4116267   0.906   4.970   0.329  1.1094  0.9370  0.3862
  134MOL    H4216268   0.791   4.937   0.148  0.0167 -1.1367  0.3751
  134MOL    H4316269   0.791   5.110   0.136 -2.0108 -1.0417  0.5880
  134MOL    C4416270   0.912   5.008   7.688  0.0098 -0.1980  0.5109
  134MOL    C4516271   0.805   5.033   7.579 -0.2914  0.4439 -0.2509
  134MOL    H4616272   0.994   5.077   7.668 -1.1120  0.6051 -1.4450
  134MOL    H4716273   0.966   4.917   7.663 -0.9435 -0.8800  0.8951
  134MOL    H4816274   0.717   4.972   7.601 -0.8413  0.3388 -2.6301
  134MOL    H4916275   0.772   5.136   7.587 -0.4822  0.4182 -0.6694
  134MOL    C5016276   0.855   4.996   7.438 -0.5058  0.2611 -1.0216
  134MOL    C5116277   0.735   5.018   7.335  0.1494  0.5591  0.1359
  134MOL    H5216278   0.939   5.062   7.416  0.2616 -0.3051  0.1613
  134MOL    H5316279   0.898   4.896   7.435 -0.8147  0.0438  0.9144
  134MOL    H5416280   0.675   5.109   7.346 -3.0218 -1.6419  1.7031
  134MOL    H5516281   0.777   5.030   7.235 -0.0181 -1.8629 -0.2435
  134MOL    C5616282   0.633   4.896   7.325  0.2024  0.3527  0.5619
  134MOL    C5716283   0.548   4.912   7.195  0.8424  0.1385 -0.6365
  134MOL    H5816284   0.699   4.809   7.326 -0.6423 -0.3099 -0.3096
  134MOL    H5916285   0.575   4.890   7.417 -3.7508  0.4971 -1.8326
  134MOL    H6016286   0.508   5.013   7.190  0.6900  0.1602  0.8183
  134MOL    H6116287   0.614   4.894   7.110 -1.6103 -0.1015 -2.5606
  134MOL    C6216288   0.434   4.810   7.190 -0.7176  0.5987  0.2810
  134MOL    C6316289   0.349   4.826   7.063  0.0033  0.1627 -0.9841
  134MOL    H6416290   0.478   4.710   7.190  0.1095  0.9562  1.9588
  134MOL    H6516291   0.372   4.807   7.280  0.8547  1.5109  1.4110
  134MOL    H6616292   0.321   4.930   7.045 -0.1745  0.1141 -0.9918
  134MOL    H6716293   0.410   4.795   6.979  0.5849 -1.9797  0.1991
  134MOL    C6816294   0.227   4.733   7.065  1.0032  0.4154  0.1050
  134MOL    C6916295   0.153   4.745   6.930  0.4138 -0.4081  0.2382
  134MOL    H7016296   0.253   4.632   7.095 -1.7171  0.1586  1.7276
  134MOL    H7116297   0.151   4.769   7.134  0.3294 -1.0081  0.1307
  134MOL    H7216298   0.108   4.843   6.915 -2.4172 -1.4493  1.5945
  134MOL    H7316299   0.222   4.738   6.845  4.1698  1.3160  3.0177
  134MOL    C7416300   0.040   4.642   6.925 -0.0139  0.1663  0.6796
  134MOL    C7516301   7.649   4.642   6.799 -0.1773 -0.3143 -0.1595
  134MOL    H7616302   0.095   4.550   6.941 -0.9309 -0.6140 -0.5200
  134MOL    H7716303   7.664   4.631   7.009  0.1119  2.4539  1.1033
  134MOL    H7816304   7.599   4.739   6.802 -0.1597 -0.3215  0.3118
  134MOL    H7916305   0.023   4.654   6.713 -0.5201 -0.6609 -0.4763
  134MOL    C8016306   7.542   4.531   6.790  0.0200 -0.0058  0.6098
  134MOL    C8116307   7.447   4.557   6.671  0.0990 -0.8241 -0.4624
  134MOL    H8216308   7.581   4.432   6.769 -1.4255 -0.8662  1.9483
  134MOL    H8316309   7.491   4.527   6.886  0.3672  0.4422  0.8138
  134MOL    H8416310   7.498   4.544   6.576  1.7303  0.8577  0.1524
  134MOL    H8516311   7.371   4.478   6.678  0.0158 -1.1186 -4.1334
  134MOL    C8616312   7.373   4.688   6.667 -0.6061  0.6796  0.3535
  134MOL    C8716313   7.300   4.708   6.534 -0.0668 -0.6277  0.6282
  134MOL    H8816314   7.307   4.706   6.752 -0.1976 -2.1991  1.3234
  134MOL    H8916315   7.438   4.776   6.671 -1.1437  1.0415  1.4795
  134MOL    H9016316   7.356   4.664   6.451 -2.9794 -0.2381 -1.6450
  134MOL    H9116317   7.210   4.646   6.529  1.2051 -2.4675  0.1255
  134MOL    C9216318   7.234   4.845   6.522 -0.3597  0.4901 -0.1219
  134MOL    C9316319   7.142   4.865   6.403 -0.4693 -0.2063  0.2052
  134MOL    H9416320   7.178   4.847   6.616 -0.0803  0.8876  0.0336
  134MOL    H9516321   7.305   4.926   6.531 -0.2724  0.3808  0.2142
  134MOL    H9616322   7.197   4.873   6.309  0.6388 -0.8743  0.7792
  134MOL    H9716323   7.092   4.768   6.398 -1.5863  0.2967  1.6022
  134MOL    C9816324   7.035   4.977   6.427  0.2986  0.0952  0.3639
  134MOL    C9916325   6.921   4.981   6.328  0.2100  0.2668 -0.0142
  134MOL   H10016326   6.983   4.952   6.519 -0.5515 -0.4069 -0.2415
  134MOL   H10116327   7.083   5.075   6.433 -0.1032  0.2489  1.0928
  134MOL   H10216328   6.949   4.942   6.230  2.0709  0.4609  0.4213
  134MOL   H10316329   6.845   4.906   6.347  2.0651 -0.8586  3.2726
  134MOL   C10416330   6.856   5.124   6.328 -0.3307  0.4499  0.4394
  134MOL   C10516331   6.750   5.113   6.217  0.0944  0.3184 -0.3669
  134MOL   H10616332   6.813   5.156   6.422 -0.6437 -1.3397  0.9309
  134MOL   H10716333   6.929   5.203   6.313  1.7849 -1.6770 -0.8759
  134MOL   H10816334   6.784   5.051   6.134 -0.9475 -1.4056  0.4720
  134MOL   H10916335   6.652   5.079   6.251  0.3393  1.1983  1.2166
  134MOL   C11016336   6.724   5.251   6.150 -0.3333  0.7991 -0.5431
  134MOL   C11116337   6.627   5.267   6.034 -0.0920  0.0195  0.1030
  134MOL   H11216338   6.709   5.321   6.232  1.2240  3.0170 -2.0910
  134MOL   H11316339   6.822   5.283   6.113 -0.0570 -1.1175 -1.5145
  134MOL   H11416340   6.649   5.193   5.958 -2.0591  2.9521 -3.4574
  134MOL   H11516341   6.524   5.264   6.071  0.1093  0.6032  0.7194
  134MOL   C11616342   6.636   5.405   5.972 -1.2573 -0.3676  0.9295
  134MOL   C11716343   6.756   5.432   5.879  0.5641 -0.1732  0.1402
  134MOL   H11816344   6.548   5.421   5.909  0.2733  3.1608 -0.4550
  134MOL   H11916345   6.630   5.486   6.045 -0.9657  0.1956  0.3297
  134MOL   H12016346   6.739   5.515   5.811 -0.8595  2.4434  3.4879
  134MOL   H12116347   6.844   5.435   5.944  1.0721 -0.9483 -0.5064
  134MOL   H12216348   6.771   5.345   5.815  2.9327 -0.7986  1.4887
  135MOL     C116349   1.364   3.156   0.516  0.1598  0.3097 -0.0516
  135MOL     C216350   1.252   3.066   0.471 -0.4097 -0.5083  0.6518
  135MOL     H316351   1.407   3.215   0.435 -0.1266 -0.2440 -0.6086
  135MOL     H416352   1.453   3.101   0.549  0.9049  1.2715 -0.4471
  135MOL     H516353   1.186   3.121   0.403  0.0605 -1.4236 -0.5756
  135MOL     H616354   1.301   2.995   0.404  1.2058  1.8916 -0.8239
  135MOL     H716355   1.342   3.214   0.605 -1.1988 -0.1650 -0.0759
  135MOL     C816356   1.180   2.992   0.581  0.0816  0.1898  0.5411
  135MOL     C916357   1.115   2.864   0.531  0.3551  0.3159  0.1165
  135MOL    H1016358   1.249   2.967   0.662  1.1172  0.7780 -0.1495
  135MOL    H1116359   1.102   3.060   0.616  0.2578 -0.2153  1.7415
  135MOL    H1216360   1.038   2.878   0.455 -0.1524 -0.2112  0.5372
  135MOL    H1316361   1.186   2.789   0.498  0.0706  0.1448 -0.1064
  135MOL    C1416362   1.056   2.789   0.656 -0.2238  0.6888 -0.1633
  135MOL    C1516363   1.006   2.640   0.634 -0.4234 -0.5397  0.2095
  135MOL    H1616364   1.137   2.781   0.728  0.4596 -0.4186 -1.0405
  135MOL    H1716365   0.975   2.857   0.685 -0.6614  1.2829 -2.6436
  135MOL    H1816366   1.089   2.579   0.597 -0.0508  0.0702  0.0250
  135MOL    H1916367   0.986   2.604   0.734  2.1352  0.0676  0.9789
  135MOL    C2016368   0.875   2.639   0.555 -0.1170 -0.2485 -0.4338
  135MOL    C2116369   0.816   2.504   0.510 -0.4113  0.1283 -0.3862
  135MOL    H2216370   0.806   2.700   0.613  0.6293 -1.4979  1.8246
  135MOL    H2316371   0.890   2.696   0.463 -1.6646  0.6080 -0.1608
  135MOL    H2416372   0.894   2.434   0.481 -0.8816 -0.2794 -0.6796
  135MOL    H2516373   0.767   2.462   0.598 -2.7403  0.5603 -1.4332
  135MOL    C2616374   0.707   2.527   0.400  0.1181 -0.1556  0.2511
  135MOL    C2716375   0.624   2.404   0.347 -0.5656  0.3686  0.0926
  135MOL    H2816376   0.640   2.601   0.442 -0.2914 -0.7647  0.6741
  135MOL    H2916377   0.752   2.579   0.316 -0.2383  0.6745  0.5746
  135MOL    H3016378   0.562   2.368   0.428 -0.6950 -2.8740 -1.3674
  135MOL    H3116379   0.555   2.439   0.269  1.2531  4.1070  0.0372
  135MOL    C3216380   0.707   2.295   0.278 -0.3890 -0.4446  0.5161
  135MOL    C3316381   0.629   2.161   0.234  0.3089  0.5377  0.5761
  135MOL    H3416382   0.747   2.344   0.189 -2.9137 -0.7520 -0.8086
  135MOL    H3516383   0.797   2.261   0.330  0.7540  2.4724  0.5696
  135MOL    H3616384   0.700   2.094   0.185 -1.2678 -0.7393 -0.0429
  135MOL    H3716385   0.593   2.117   0.327  0.3778 -1.5229 -0.3274
  135MOL    C3816386   0.526   2.192   0.127  0.7676  0.1660  0.3932
  135MOL    C3916387   0.433   2.074   0.103 -0.8103 -0.0959 -0.1082
  135MOL    H4016388   0.476   2.286   0.153  0.2719 -0.2599  1.0017
  135MOL    H4116389   0.582   2.214   0.037 -0.3392 -2.5351 -1.0183
  135MOL    H4216390   0.471   1.989   0.047 -0.7453 -1.1540  1.4958
  135MOL    H4316391   0.421   2.020   0.197  1.4417  0.9011  0.7982
  135MOL    C4416392   0.296   2.108   0.039  0.1653 -0.3853  0.2200
  135MOL    C4516393   0.314   2.192   7.602 -0.1829 -0.2175  0.6229
  135MOL    H4616394   0.250   2.014   0.009 -1.4421  0.3898  0.1760
  135MOL    H4716395   0.231   2.168   0.103  1.4269 -2.1675  3.2424
  135MOL    H4816396   0.337   2.299   7.606  1.9753 -0.6754  0.8879
  135MOL    H4916397   0.399   2.150   7.548 -1.2756 -1.5686 -0.0730
  135MOL    C5016398   0.190   2.185   7.513  0.5480  0.0048 -0.3669
  135MOL    C5116399   0.200   2.260   7.391  0.3301 -0.4148 -0.5982
  135MOL    H5216400   0.142   2.088   7.497 -0.6401  0.3721  0.9054
  135MOL    H5316401   0.110   2.227   7.573  0.4024 -1.1973  0.2968
  135MOL    H5416402   0.214   2.366   7.411 -0.4320 -0.6402  1.2329
  135MOL    H5516403   0.290   2.221   7.343  1.0778  2.0703 -1.3334
  135MOL    C5616404   0.074   2.255   7.309 -0.3820  0.0060  0.2500
  135MOL    C5716405   0.089   2.334   7.183  0.2305 -0.2780  0.2308
  135MOL    H5816406   0.037   2.158   7.276  1.5309 -0.3987 -0.7744
  135MOL    H5916407   7.686   2.292   7.374  0.8703  1.9520  0.7238
  135MOL    H6016408   0.117   2.437   7.207 -1.0883 -0.0688  0.9198
  135MOL    H6116409   0.181   2.295   7.140  0.3866  0.4015 -0.0649
  135MOL    C6216410   7.654   2.324   7.092 -0.0088 -0.3871  0.0127
  135MOL    C6316411   7.679   2.388   6.953  0.2387  0.4912 -0.3303
  135MOL    H6416412   7.627   2.219   7.075  1.6449 -1.0777  1.5146
  135MOL    H6516413   7.567   2.367   7.142 -0.5242 -0.3720 -0.8827
  135MOL    H6616414   7.672   2.495   6.974 -2.1075  0.1157  0.9646
  135MOL    H6716415   0.089   2.354   6.935  0.3128 -0.9244  2.5096
  135MOL    C6816416   7.583   2.335   6.845 -0.7095  0.2746 -0.2859
  135MOL    C6916417   7.615   2.395   6.702  0.3502  0.6057  0.1374
  135MOL    H7016418   7.594   2.227   6.837  2.2519  0.4568  0.6394
  135MOL    H7116419   7.484   2.371   6.874 -1.3457  1.4952 -3.7879
  135MOL    H7216420   7.599   2.503   6.707  0.4195  0.6302 -0.1412
  135MOL    H7316421   0.030   2.379   6.697  0.3727 -0.3541  3.1256
  135MOL    C7416422   7.545   2.336   6.585 -0.5208 -0.4285  0.5530
  135MOL    C7516423   7.583   2.397   6.447  0.8853 -0.4129  0.0720
  135MOL    H7616424   7.552   2.227   6.578 -1.3882 -0.6264  2.3582
  135MOL    H7716425   7.439   2.359   6.596 -0.5571 -0.5396  0.4413
  135MOL    H7816426   7.509   2.378   6.369 -0.5100 -0.2965  1.3390
  135MOL    H7916427   7.584   2.506   6.452 -0.0536 -0.3844 -0.2007
  135MOL    C8016428   0.029   2.349   6.397  0.4542 -0.2609  0.1088
  135MOL    C8116429   0.076   2.412   6.272  0.1251 -0.0375  0.6239
  135MOL    H8216430   0.105   2.342   6.474  3.9502  0.2082 -3.1747
  135MOL    H8316431   0.013   2.241   6.391  1.3687 -0.4368  0.9144
  135MOL    H8416432   0.155   2.345   6.238  0.1615  0.7928 -0.9429
  135MOL    H8516433   0.004   2.401   6.192 -1.3489  0.0140  1.9167
  135MOL    C8616434   0.128   2.559   6.290 -0.3295  0.5658 -0.4435
  135MOL    C8716435   0.231   2.594   6.189  0.4134 -0.0798  0.9274
  135MOL    H8816436   0.044   2.627   6.298 -1.9685 -1.2538 -1.5384
  135MOL    H8916437   0.177   2.554   6.387  1.5017 -0.2274 -1.3740
  135MOL    H9016438   0.313   2.523   6.178 -0.2567 -0.8267  0.7221
  135MOL    H9116439   0.176   2.577   6.096 -0.1056  1.3957  0.9412
  135MOL    C9216440   0.301   2.723   6.211  0.3215 -0.6106 -0.2650
  135MOL    C9316441   0.410   2.706   6.318  0.0091  0.4978 -0.1421
  135MOL    H9416442   0.339   2.766   6.118  1.8489  1.6301  1.3218
  135MOL    H9516443   0.227   2.792   6.253  0.7206  0.3141 -1.0557
  135MOL    H9616444   0.377   2.714   6.422  0.3531  0.4926 -0.0347
  135MOL    H9716445   0.460   2.610   6.309  1.1693  0.9967  0.8975
  135MOL    C9816446   0.520   2.816   6.305  0.9239  0.8156  0.3475
  135MOL    C9916447   0.632   2.789   6.408 -0.3820  0.1706 -0.9666
  135MOL   H10016448   0.552   2.811   6.201 -2.2195 -2.0618 -0.6149
  135MOL   H10116449   0.473   2.913   6.321  0.9726  0.9798 -0.4569
  135MOL   H10216450   0.597   2.803   6.510 -1.5106  0.5607 -1.4042
  135MOL   H10316451   0.667   2.686   6.400  0.2025  0.0835  2.0327
  135MOL   C10416452   0.755   2.879   6.412 -0.3219 -0.3879  0.2389
  135MOL   C10516453   0.842   2.884   6.292  0.3561 -0.3157 -0.3674
  135MOL   H10616454   0.724   2.981   6.430 -1.0549 -0.4643 -0.5772
  135MOL   H10716455   0.820   2.844   6.492 -0.7628  0.2520  0.8810
  135MOL   H10816456   0.881   2.782   6.284 -2.0751 -1.4767  1.7105
  135MOL   H10916457   0.803   2.908   6.193  0.6898  0.7957 -0.2370
  135MOL   C11016458   0.955   2.987   6.308 -0.3368  0.6476  0.4055
  135MOL   C11116459   1.041   2.996   6.179 -0.1622 -0.5030 -0.3065
  135MOL   H11216460   0.911   3.086   6.320 -1.0406  0.1678  1.9886
  135MOL   H11316461   1.015   2.963   6.396 -2.5000  0.2057  1.8003
  135MOL   H11416462   1.104   2.908   6.164  0.8245  0.2881 -0.9089
  135MOL   H11516463   0.976   3.008   6.093  0.7260  0.5610 -0.8495
  135MOL   C11616464   1.131   3.116   6.188  0.3735  0.1568 -0.4526
  135MOL   C11716465   1.205   3.151   6.055 -0.7816 -0.3628  0.3745
  135MOL   H11816466   1.077   3.205   6.221 -1.6968 -1.2667  0.0534
  135MOL   H11916467   1.200   3.099   6.271 -0.4358 -1.3404 -0.0681
  135MOL   H12016468   1.262   3.073   6.004  0.0809  1.1955 -1.0823
  135MOL   H12116469   1.124   3.178   5.986 -2.2378  1.7203  2.8316
  135MOL   H12216470   1.269   3.237   6.070  0.3673 -1.0623 -0.4231
  136MOL     C116471   1.110   5.872   0.228  0.1513 -0.3983 -0.4734
  136MOL     C216472   1.167   6.004   0.283  0.3241  0.5853 -0.1328
  136MOL     H316473   1.004   5.889   0.214  0.2959  1.6179  0.6353
  136MOL     H416474   1.138   5.781   0.283  1.1542  1.3948  2.0648
  136MOL     H516475   1.154   6.091   0.218  0.4588 -0.5643 -1.7249
  136MOL     H616476   1.107   6.021   0.373 -0.3343 -0.5664 -0.3510
  136MOL     H716477   1.163   5.868   0.133 -0.4997 -0.1198 -0.8446
  136MOL     C816478   1.321   5.982   0.306  0.9456  0.2183 -0.1681
  136MOL     C916479   1.391   6.104   0.372 -0.3356 -0.5714 -0.2980
  136MOL    H1016480   1.336   5.899   0.374  1.2163  0.5688  0.1961
  136MOL    H1116481   1.360   5.964   0.205  0.0704  0.5028 -0.5668
  136MOL    H1216482   1.381   6.195   0.313  1.3709  1.1682  2.0089
  136MOL    H1316483   1.364   6.131   0.474 -0.2924 -2.5838  0.2684
  136MOL    C1416484   1.548   6.079   0.370  0.0553 -0.0058 -0.7338
  136MOL    C1516485   1.605   5.965   0.457  0.5871  0.2687  0.1420
  136MOL    H1616486   1.567   6.064   0.264  1.9333 -0.6738 -0.3145
  136MOL    H1716487   1.579   6.178   0.401 -0.9265 -0.0989  0.6171
  136MOL    H1816488   1.618   5.990   0.563  2.2305  1.3623 -0.3004
  136MOL    H1916489   1.534   5.883   0.450 -0.4578  1.1121  0.7637
  136MOL    C2016490   1.737   5.916   0.409  0.7260 -0.0475 -0.1155
  136MOL    C2116491   1.774   5.772   0.456 -0.4877  0.2233  0.0259
  136MOL    H2216492   1.737   5.931   0.301 -1.7379  1.7332  0.0962
  136MOL    H2316493   1.805   5.987   0.456 -1.0346  1.1479  0.6585
  136MOL    H2416494   1.882   5.760   0.461 -0.6097 -0.4467  1.1863
  136MOL    H2516495   1.746   5.744   0.558  0.8331  1.7238  0.8219
  136MOL    C2616496   1.709   5.665   0.366 -0.2134  0.3251 -0.5326
  136MOL    C2716497   1.766   5.528   0.383  0.5659  0.7819 -0.3340
  136MOL    H2816498   1.603   5.673   0.387 -0.0881 -1.0353  0.6667
  136MOL    H2916499   1.722   5.695   0.262 -2.3054 -1.3966 -1.3086
  136MOL    H3016500   1.773   5.491   0.281 -0.6749 -0.1572 -0.0833
  136MOL    H3116501   1.872   5.537   0.407  0.3908 -0.9988  1.1600
  136MOL    C3216502   1.701   5.433   0.483 -0.2878 -0.1628 -0.0818
  136MOL    C3316503   1.760   5.292   0.484 -0.2406 -0.1538  0.2457
  136MOL    H3416504   1.693   5.475   0.583 -1.6580  2.5666 -1.2869
  136MOL    H3516505   1.599   5.418   0.450 -0.1892 -2.1617  0.4490
  136MOL    H3616506   1.743   5.250   0.385  1.8202 -1.1592  0.2823
  136MOL    H3716507   1.868   5.291   0.498 -0.0633  1.8955 -0.6715
  136MOL    C3816508   1.697   5.195   0.596  0.2560  1.0731 -0.2295
  136MOL    C3916509   1.731   5.043   0.566  0.8360 -0.1653  0.3886
  136MOL    H4016510   1.735   5.233   0.691 -1.5297  1.8560  0.1799
  136MOL    H4116511   1.589   5.202   0.604  0.3414  0.6044  1.3958
  136MOL    H4216512   1.839   5.050   0.549  0.8401 -0.9479  0.0511
  136MOL    H4316513   1.732   4.983   0.656  0.8543 -0.0377  0.4731
  136MOL    C4416514   1.660   4.986   0.440 -0.3106 -0.5124 -0.6237
  136MOL    C4516515   1.656   4.833   0.435  0.5044 -0.4787 -0.2588
  136MOL    H4616516   1.554   5.011   0.436 -0.6319 -1.3161  1.6941
  136MOL    H4716517   1.708   5.032   0.353 -0.1482  1.1954  0.3487
  136MOL    H4816518   1.755   4.791   0.417  0.8263  0.4179 -0.6317
  136MOL    H4916519   1.626   4.802   0.535 -0.2072 -3.4396 -1.3301
  136MOL    C5016520   1.563   4.785   0.318 -0.1778  0.1744  0.5820
  136MOL    C5116521   1.528   4.633   0.334  0.4425 -0.1549 -0.2651
  136MOL    H5216522   1.464   4.831   0.315 -1.1832 -1.8219  2.0884
  136MOL    H5316523   1.616   4.821   0.230 -0.0566  2.8769  1.6996
  136MOL    H5416524   1.619   4.574   0.346  0.4463  0.0230  0.5794
  136MOL    H5516525   1.478   4.619   0.430 -0.0500 -1.8977 -0.7616
  136MOL    C5616526   1.435   4.578   0.231 -0.3655  0.0265 -0.0957
  136MOL    C5716527   1.387   4.435   0.263  0.5044  0.0851  0.0165
  136MOL    H5816528   1.342   4.636   0.227 -0.3104  0.3918  2.5749
  136MOL    H5916529   1.478   4.576   0.131 -0.8638  2.2767 -0.3866
  136MOL    H6016530   1.470   4.366   0.270  0.1536 -0.5282 -1.6693
  136MOL    H6116531   1.330   4.436   0.356 -2.0781 -0.2211 -1.5056
  136MOL    C6216532   1.295   4.399   0.152 -0.5146 -0.3601  0.2658
  136MOL    C6316533   1.208   4.279   0.179  0.6595 -0.2820  0.0723
  136MOL    H6416534   1.232   4.482   0.119 -0.0010 -0.4909 -1.0788
  136MOL    H6516535   1.360   4.382   0.066  0.3305  2.8681  0.2298
  136MOL    H6616536   1.267   4.196   0.218  0.0358 -1.6489 -1.8265
  136MOL    H6716537   1.138   4.306   0.259  2.9174  1.2862  1.5976
  136MOL    C6816538   1.135   4.236   0.055 -0.2922 -0.1221 -0.1797
  136MOL    C6916539   1.073   4.096   0.060 -0.9169  0.3674  0.4547
  136MOL    H7016540   1.061   4.311   0.028 -0.0999  0.5521  1.0965
  136MOL    H7116541   1.200   4.230   7.660  0.5401  0.5316  0.3934
  136MOL    H7216542   1.020   4.080   7.658 -2.6360  0.8691  1.3295
  136MOL    H7316543   1.153   4.023   0.077  0.0238  1.2803  0.0045
  136MOL    C7416544   0.956   4.080   0.160  0.4317 -0.7349 -0.2336
  136MOL    C7516545   0.959   3.935   0.210  0.1748  0.3446  0.0523
  136MOL    H7616546   0.962   4.148   0.244  0.2121 -1.0828  0.0641
  136MOL    H7716547   0.858   4.103   0.117  0.4551 -0.2979 -0.0465
  136MOL    H7816548   0.955   3.864   0.127 -0.9113  1.3149 -0.7304
  136MOL    H7916549   1.056   3.927   0.261  1.3476  0.2012 -2.1236
  136MOL    C8016550   0.844   3.917   0.309  0.5786  0.2345 -0.7263
  136MOL    C8116551   0.836   3.776   0.373  0.1361 -0.7378  0.3664
  136MOL    H8216552   0.852   3.986   0.393 -0.1268 -0.4168 -0.1191
  136MOL    H8316553   0.749   3.913   0.257  0.5668 -0.0791 -0.6848
  136MOL    H8416554   0.793   3.711   0.297 -2.9320  0.8878  0.6027
  136MOL    H8516555   0.933   3.733   0.396 -0.6255 -3.6813 -1.6602
  136MOL    C8616556   0.730   3.772   0.484 -0.8029  0.5532 -0.5117
  136MOL    C8716557   0.719   3.635   0.550  0.4130  0.0810  0.7320
  136MOL    H8816558   0.742   3.843   0.566  1.0689 -2.5581  1.9967
  136MOL    H8916559   0.629   3.794   0.449 -1.1999 -2.7220 -1.5954
  136MOL    H9016560   0.740   3.553   0.482  0.2301  1.6205 -1.2315
  136MOL    H9116561   0.805   3.632   0.617  2.4379  0.9145 -1.7391
  136MOL    C9216562   0.596   3.623   0.631  0.3478  0.0335 -0.1378
  136MOL    C9316563   0.584   3.484   0.700 -0.9071 -0.0407 -0.0334
  136MOL    H9416564   0.598   3.693   0.715  0.7689  0.3184 -0.3807
  136MOL    H9516565   0.507   3.659   0.578 -0.3119  0.1908  1.0404
  136MOL    H9616566   0.556   3.402   0.634  0.8146 -0.1669 -0.6308
  136MOL    H9716567   0.685   3.466   0.737 -0.5317 -2.2411 -1.9978
  136MOL    C9816568   0.494   3.483   0.829  0.6025  0.4157 -0.2800
  136MOL    C9916569   0.480   3.342   0.882  0.2374  0.1712 -0.2365
  136MOL   H10016570   0.543   3.549   0.901  0.2214 -0.5213  0.8537
  136MOL   H10116571   0.398   3.534   0.820 -0.1155 -0.8855 -0.0283
  136MOL   H10216572   0.431   3.286   0.802  0.2222  0.0468 -0.1407
  136MOL   H10316573   0.577   3.303   0.911  0.0120  0.8727  1.5010
  136MOL   C10416574   0.401   3.354   1.012 -0.2493  0.1754  0.4283
  136MOL   C10516575   0.383   3.222   1.095  0.4166  0.3590 -0.2692
  136MOL   H10616576   0.450   3.428   1.076 -0.0149  0.9072 -0.5932
  136MOL   H10716577   0.300   3.386   0.988  0.2726  1.6268  0.1468
  136MOL   H10816578   0.314   3.157   1.042  0.6950  1.1278 -1.6100
  136MOL   H10916579   0.479   3.176   1.118  0.8862  0.8454 -1.2011
  136MOL   C11016580   0.312   3.247   1.228  0.7122 -0.7657  0.3803
  136MOL   C11116581   0.285   3.113   1.305 -0.7021 -0.3816  0.3820
  136MOL   H11216582   0.382   3.302   1.291 -0.1930  1.3182 -0.3998
  136MOL   H11316583   0.218   3.298   1.210 -1.0054 -4.5046 -1.8033
  136MOL   H11416584   0.222   3.046   1.246  0.3846  0.2877 -1.5733
  136MOL   H11516585   0.377   3.056   1.320  0.9275  1.2111 -3.0461
  136MOL   C11616586   0.217   3.141   1.439  0.1786  0.6582 -0.7063
  136MOL   C11716587   0.194   3.018   1.531 -0.3406 -0.3264  0.8774
  136MOL   H11816588   0.267   3.217   1.499  0.4935  0.4989 -0.7661
  136MOL   H11916589   0.119   3.179   1.410 -0.6854 -0.8882  0.0883
  136MOL   H12016590   0.156   3.050   1.629 -1.0854  0.7319  0.2544
  136MOL   H12116591   0.124   2.944   1.493 -0.6004 -0.2236  1.1471
  136MOL   H12216592   0.295   2.981   1.548 -0.0650 -0.1263 -0.3071
  137MOL     C116593   2.748   0.794   6.209 -0.8867 -0.3540  0.1128
  137MOL     C216594   2.679   0.866   6.318 -0.3313 -0.8989  0.4624
  137MOL     H316595   2.803   0.709   6.248  0.4525  1.4009  2.1789
  137MOL     H416596   2.823   0.850   6.154 -0.6119 -1.7248 -0.9341
  137MOL     H516597   2.583   0.816   6.334 -0.1162 -0.8779  1.8949
  137MOL     H616598   2.738   0.852   6.408 -0.1945  0.6385  0.6261
  137MOL     H716599   2.672   0.770   6.134 -0.7128 -0.6133  0.0208
  137MOL     C816600   2.652   1.011   6.296 -0.3448  0.2609  0.6115
  137MOL     C916601   2.558   1.080   6.402 -0.0079 -0.3763  0.6170
  137MOL    H1016602   2.741   1.072   6.314 -0.7247 -0.2206  4.5687
  137MOL    H1116603   2.618   1.037   6.196 -1.8214  0.4040  1.1464
  137MOL    H1216604   2.475   1.010   6.417  1.3401 -2.1714 -0.0956
  137MOL    H1316605   2.598   1.083   6.503  1.4604 -0.3120  0.0381
  137MOL    C1416606   2.507   1.218   6.361  0.2603 -0.0890 -0.5162
  137MOL    C1516607   2.388   1.271   6.441 -0.4765  0.0047 -0.2686
  137MOL    H1616608   2.593   1.283   6.377 -0.9606  1.4982 -0.2586
  137MOL    H1716609   2.488   1.228   6.254 -0.0041  0.8990 -0.3852
  137MOL    H1816610   2.312   1.193   6.449 -1.7757  1.0035 -2.3009
  137MOL    H1916611   2.418   1.295   6.543  2.1389  1.7941 -1.4005
  137MOL    C2016612   2.319   1.387   6.372  0.1260  0.0911 -0.8022
  137MOL    C2116613   2.243   1.473   6.468  0.3696  0.3068 -0.2210
  137MOL    H2216614   2.399   1.445   6.327  1.7699 -1.2693  0.2629
  137MOL    H2316615   2.246   1.359   6.296 -1.9644  1.7804  0.5355
  137MOL    H2416616   2.294   1.506   6.559  0.5447 -0.0213 -0.1996
  137MOL    H2516617   2.225   1.558   6.402 -0.4851  0.0828 -0.2802
  137MOL    C2616618   2.116   1.413   6.512  0.2939 -0.2655 -0.9739
  137MOL    C2716619   2.021   1.505   6.598 -0.5151  0.0067  0.0118
  137MOL    H2816620   2.050   1.386   6.429 -0.4025 -0.5749 -0.3268
  137MOL    H2916621   2.142   1.316   6.554  0.0060  0.3929  0.7401
  137MOL    H3016622   2.087   1.566   6.661  0.7997 -1.5834  0.2185
  137MOL    H3116623   1.977   1.566   6.519  1.6788  0.2071 -1.1099
  137MOL    C3216624   1.916   1.425   6.677 -0.0203 -0.2843  0.0601
  137MOL    C3316625   1.795   1.508   6.724  0.3188  0.7263 -0.5224
  137MOL    H3416626   1.878   1.351   6.606  2.2734 -1.6573  0.2172
  137MOL    H3516627   1.949   1.370   6.765 -0.7184 -2.1363 -0.8112
  137MOL    H3616628   1.817   1.564   6.816 -1.1777 -0.5935  0.6686
  137MOL    H3716629   1.787   1.586   6.649 -0.4862 -0.4365 -1.6501
  137MOL    C3816630   1.664   1.425   6.746  0.0840 -0.9815 -0.2219
  137MOL    C3916631   1.550   1.527   6.750 -0.2546  0.5344  0.0854
  137MOL    H4016632   1.662   1.353   6.665 -0.4629 -1.0628 -0.1368
  137MOL    H4116633   1.653   1.350   6.825  2.3129 -1.4497 -0.3096
  137MOL    H4216634   1.577   1.581   6.841 -0.1352  0.1088  0.3012
  137MOL    H4316635   1.562   1.605   6.674 -0.6079 -0.7468 -1.2993
  137MOL    C4416636   1.405   1.475   6.765  0.2804 -0.2718 -0.0544
  137MOL    C4516637   1.365   1.419   6.626  0.4412  0.6329 -0.4793
  137MOL    H4616638   1.395   1.401   6.844  0.5992  0.0576  0.2977
  137MOL    H4716639   1.339   1.561   6.780 -1.8641 -1.9375  0.3988
  137MOL    H4816640   1.373   1.498   6.551 -1.0822 -0.0346 -1.3755
  137MOL    H4916641   1.426   1.334   6.596 -2.1982 -0.6983 -2.2916
  137MOL    C5016642   1.218   1.371   6.632  0.3257  0.9386 -0.0945
  137MOL    C5116643   1.152   1.309   6.508  0.2646 -0.4419  0.5795
  137MOL    H5216644   1.214   1.298   6.712  1.1486 -0.4164 -1.2687
  137MOL    H5316645   1.166   1.460   6.666 -0.1232 -0.0863  1.9757
  137MOL    H5416646   1.200   1.217   6.474  2.1537  0.3366  1.0489
  137MOL    H5516647   1.051   1.287   6.544  0.2720 -0.6292  0.4885
  137MOL    C5616648   1.148   1.408   6.384 -0.1716 -1.0157 -0.7590
  137MOL    C5716649   1.061   1.362   6.268 -0.1754 -0.6906 -0.0114
  137MOL    H5816650   1.104   1.500   6.423 -2.1162 -1.8653 -0.8753
  137MOL    H5916651   1.249   1.433   6.351  0.2977  0.6503  1.7473
  137MOL    H6016652   1.117   1.287   6.213 -0.3476 -0.6370 -0.2646
  137MOL    H6116653   0.979   1.309   6.316 -0.0309  0.4549  1.5642
  137MOL    C6216654   1.011   1.477   6.175 -0.5622  0.5096 -0.1178
  137MOL    C6316655   1.112   1.587   6.141 -0.2365 -0.4042 -0.7353
  137MOL    H6416656   0.990   1.424   6.082 -0.2750  0.4895 -0.1694
  137MOL    H6516657   0.916   1.505   6.222 -0.5919  0.7812 -0.3383
  137MOL    H6616658   1.057   1.677   6.115 -0.6048  0.1292  1.7833
  137MOL    H6716659   1.156   1.610   6.238 -0.4549  0.3758 -0.8160
  137MOL    C6816660   1.210   1.543   6.022 -0.2279  0.0311 -0.3820
  137MOL    C6916661   1.336   1.633   6.015 -0.3479 -0.0984  0.0720
  137MOL    H7016662   1.241   1.439   6.038  1.6999  0.6828  0.2414
  137MOL    H7116663   1.159   1.553   5.927  1.5617 -0.9239 -1.4899
  137MOL    H7216664   1.297   1.735   6.002 -0.8920 -0.2337  0.6383
  137MOL    H7316665   1.395   1.629   6.106 -0.2299  0.1356  0.0066
  137MOL    C7416666   1.436   1.609   5.904  0.1478 -0.4042  1.1371
  137MOL    C7516667   1.562   1.703   5.906  0.2492  0.4183  0.1677
  137MOL    H7616668   1.461   1.505   5.923 -2.1704 -1.7395 -2.4254
  137MOL    H7716669   1.395   1.616   5.803  0.3911  0.0569  1.0689
  137MOL    H7816670   1.543   1.808   5.885 -2.3911 -0.2862 -1.1139
  137MOL    H7916671   1.601   1.704   6.008  2.3703 -0.1287 -0.6066
  137MOL    C8016672   1.678   1.669   5.817 -0.3877  0.4665  0.5624
  137MOL    C8116673   1.727   1.527   5.838 -0.6943 -0.3258  0.3832
  137MOL    H8216674   1.635   1.677   5.717 -0.7193  1.1069  0.7524
  137MOL    H8316675   1.765   1.735   5.823  0.9561 -0.9974 -2.1757
  137MOL    H8416676   1.767   1.514   5.938  2.0186 -1.5617 -0.8174
  137MOL    H8516677   1.648   1.459   5.806 -1.4509  0.6537  0.1369
  137MOL    C8616678   1.839   1.492   5.740  0.3595 -0.5806 -0.3463
  137MOL    C8716679   1.890   1.349   5.751  0.3798 -0.0497  0.3498
  137MOL    H8816680   1.791   1.507   5.643 -1.0401  0.5374  0.4997
  137MOL    H8916681   1.927   1.557   5.736 -0.5233  0.7035  0.6233
  137MOL    H9016682   1.954   1.327   5.665 -0.7265 -2.6596  0.1400
  137MOL    H9116683   1.956   1.339   5.838  0.1680 -0.6698  0.4431
  137MOL    C9216684   1.782   1.245   5.752 -0.2508  0.2907  0.2254
  137MOL    C9316685   1.837   1.099   5.789  0.2367 -0.1888  0.4244
  137MOL    H9416686   1.706   1.264   5.827 -0.5310  0.8800 -0.2021
  137MOL    H9516687   1.729   1.245   5.656 -0.2335 -1.1440  0.2098
  137MOL    H9616688   1.892   1.057   5.705  0.2029 -1.9177  1.2410
  137MOL    H9716689   1.904   1.091   5.875 -0.5021  0.2764  1.0541
  137MOL    C9816690   1.728   0.998   5.817  0.2411  0.2121 -0.0941
  137MOL    C9916691   1.772   0.857   5.847  0.6876  0.2698  0.0727
  137MOL   H10016692   1.669   1.041   5.898  1.6194  1.2802  0.3449
  137MOL   H10116693   1.656   0.997   5.734  0.4333 -1.7184 -0.2639
  137MOL   H10216694   1.841   0.838   5.764 -0.8530 -1.9286 -0.7364
  137MOL   H10316695   1.832   0.843   5.937  2.2180 -0.3156 -1.0110
  137MOL   C10416696   1.662   0.750   5.827  0.2105 -0.2224  0.2142
  137MOL   C10516697   1.720   0.617   5.813 -0.0448 -0.9484  0.1073
  137MOL   H10616698   1.596   0.741   5.914  2.7153 -1.7646  2.0506
  137MOL   H10716699   1.592   0.780   5.749  0.8150  0.2147 -0.1626
  137MOL   H10816700   1.755   0.608   5.710  1.1607 -2.0649  0.6073
  137MOL   H10916701   1.812   0.615   5.871  1.4175 -1.1429 -2.1279
  137MOL   C11016702   1.631   0.498   5.850  0.6739 -0.5918  0.6631
  137MOL   C11116703   1.700   0.362   5.837  0.4479  0.3165  0.1330
  137MOL   H11216704   1.583   0.520   5.946 -0.7174  0.2655 -0.2152
  137MOL   H11316705   1.554   0.492   5.773  1.7415 -0.6802 -0.4108
  137MOL   H11416706   1.715   0.347   5.730  0.5757  2.4230 -0.1666
  137MOL   H11516707   1.794   0.361   5.891 -0.2835 -0.8409  1.4055
  137MOL   C11616708   1.622   0.240   5.880  0.1390  0.4944 -0.5628
  137MOL   C11716709   1.600   0.241   6.032  0.3476  0.2842 -0.6213
  137MOL   H11816710   1.541   0.224   5.810  0.5852  0.6112 -1.1127
  137MOL   H11916711   1.679   0.150   5.856  0.0748 -0.0728  1.3495
  137MOL   H12016712   1.687   0.263   6.093 -0.0103 -3.4323  1.4002
  137MOL   H12116713   1.513   0.302   6.055 -0.5707 -1.2800  0.1908
  137MOL   H12216714   1.557   0.146   6.066 -0.2745  1.8835  3.2579
  138MOL     C116715   6.371   7.222   0.698 -0.1513  0.2790  0.8225
  138MOL     C216716   6.462   7.336   0.754 -0.5496  0.6243 -0.7906
  138MOL     H316717   6.269   7.258   0.704 -0.5489 -0.1966 -2.4324
  138MOL     H416718   6.385   7.142   0.770  0.6082  0.0739  0.4546
  138MOL     H516719   6.398   7.392   0.822  0.5570  0.5869  0.2969
  138MOL     H616720   6.537   7.299   0.823  0.5800  0.2877 -2.1603
  138MOL     H716721   6.387   7.190   0.595 -0.3224  5.3015 -0.9279
  138MOL     C816722   6.529   7.425   0.649  0.5866 -0.1544 -0.5341
  138MOL     C916723   6.603   7.545   0.711  0.0648 -0.4758  0.9034
  138MOL    H1016724   6.608   7.371   0.596 -0.4253 -0.5915 -1.6079
  138MOL    H1116725   6.456   7.457   0.575  0.8855  1.1477 -0.2881
  138MOL    H1216726   6.520   7.606   0.748  1.1161  2.8641 -1.9667
  138MOL    H1316727   6.665   7.511   0.793 -0.5073 -0.0640  1.5127
  138MOL    C1416728   6.686   7.617   0.603  0.3911 -0.6468  0.1554
  138MOL    C1516729   6.770   0.042   0.658  0.3118 -0.4927 -0.6151
  138MOL    H1616730   6.751   7.549   0.549 -0.5853  0.0966 -2.0459
  138MOL    H1716731   6.625   7.660   0.523 -1.0620 -2.0575  0.4676
  138MOL    H1816732   6.700   0.110   0.705  0.8194 -1.3214  1.4126
  138MOL    H1916733   6.846   0.010   0.730  3.0198  2.6955 -1.9186
  138MOL    C2016734   6.854   0.104   0.551  0.4052 -0.1785  0.0066
  138MOL    C2116735   6.999   0.141   0.592  0.3061 -0.4419 -0.3017
  138MOL    H2216736   6.844   0.043   0.461 -0.8287  0.3879 -0.2497
  138MOL    H2316737   6.799   0.193   0.522  0.7711 -0.0250 -0.2233
  138MOL    H2416738   7.038   0.051   0.640 -3.1108 -1.2140  1.1627
  138MOL    H2516739   7.045   0.168   0.497 -1.7449 -0.4373 -1.3327
  138MOL    C2616740   7.013   0.255   0.696 -0.1467 -0.2998 -0.0988
  138MOL    C2716741   7.147   0.258   0.772 -0.4410  0.7137  0.2486
  138MOL    H2816742   7.003   0.350   0.645 -2.7781 -0.2815  0.3863
  138MOL    H2916743   6.934   0.245   0.769  0.7560 -0.1596  0.9051
  138MOL    H3016744   7.151   0.161   0.822 -1.6334  2.1231  3.1525
  138MOL    H3116745   7.238   0.263   0.713  0.8665 -1.8490  1.9418
  138MOL    C3216746   7.147   0.371   0.872  0.4377  0.0319  0.4120
  138MOL    C3316747   7.286   0.391   0.945  0.1394 -0.6287 -0.3374
  138MOL    H3416748   7.125   0.462   0.817  0.4355 -0.6969 -0.8248
  138MOL    H3516749   7.062   0.349   0.936  0.5372  0.1376  0.5799
  138MOL    H3616750   7.368   0.402   0.873 -0.3229  0.0717 -0.7597
  138MOL    H3716751   7.285   0.487   0.997 -0.6808  0.2753 -1.9877
  138MOL    C3816752   7.332   0.285   1.045 -0.4049  0.3547 -0.3467
  138MOL    C3916753   7.469   0.321   1.101  0.1018  0.4447  0.2130
  138MOL    H4016754   7.254   0.273   1.120 -0.6463 -1.4743 -0.8690
  138MOL    H4116755   7.333   0.187   0.998 -1.1467 -0.1894  0.7511
  138MOL    H4216756   7.546   0.354   1.031  1.4674 -0.0825  1.4306
  138MOL    H4316757   7.459   0.394   1.181 -0.9949 -0.1737  0.6585
  138MOL    C4416758   7.535   0.200   1.167 -0.8465  0.4312 -0.4466
  138MOL    C4516759   7.681   0.229   1.208  0.7194  0.2214  0.2495
  138MOL    H4616760   7.482   0.169   1.257 -1.0415 -0.9867 -1.0338
  138MOL    H4716761   7.545   0.112   1.103 -0.0416 -1.1237  1.7650
  138MOL    H4816762   0.050   0.229   1.118  0.0717 -0.7582 -0.1948
  138MOL    H4916763   7.674   0.323   1.262 -2.0426  0.2282 -0.0638
  138MOL    C5016764   0.045   0.110   1.281 -0.1212  0.7430 -0.5784
  138MOL    C5116765   0.180   0.137   1.353  0.1972 -0.3563 -0.3293
  138MOL    H5216766   7.667   0.071   1.354  0.6375  1.3126  0.4659
  138MOL    H5316767   0.059   0.020   1.220 -1.5390  1.7839 -2.4918
  138MOL    H5416768   0.253   0.185   1.287 -1.6634 -0.2072 -2.3274
  138MOL    H5516769   0.160   0.207   1.434  2.4644  0.3128 -0.2845
  138MOL    C5616770   0.248   0.009   1.410 -0.9328  0.1099 -0.2036
  138MOL    C5716771   0.381   0.032   1.480 -0.4968 -0.1152 -0.3576
  138MOL    H5816772   0.177   7.643   1.467 -1.9664 -2.2280 -3.7580
  138MOL    H5916773   0.280   7.635   1.330 -1.8586  1.4117 -1.6862
  138MOL    H6016774   0.439   0.091   1.409 -0.1703  0.9663  0.7747
  138MOL    H6116775   0.377   0.092   1.571 -1.3537 -1.9128  0.8117
  138MOL    C6216776   0.432   7.587   1.523 -0.2828 -0.1707  0.0390
  138MOL    C6316777   0.570   7.599   1.583  0.6572 -0.1937  0.1118
  138MOL    H6416778   0.367   7.535   1.593 -0.2972 -0.2888 -0.0620
  138MOL    H6516779   0.446   7.521   1.437  1.6191  0.2907 -0.0403
  138MOL    H6616780   0.649   7.610   1.509  0.3878 -2.3954 -0.5177
  138MOL    H6716781   0.585   7.688   1.644  1.0628 -0.6001  0.6081
  138MOL    C6816782   0.615   7.484   1.678 -0.2409 -1.5407  0.4358
  138MOL    C6916783   0.748   7.517   1.743  0.6440 -0.3578 -0.4975
  138MOL    H7016784   0.539   7.461   1.753 -0.1502  1.2096  1.4518
  138MOL    H7116785   0.625   7.402   1.607 -0.0623 -2.3467  1.3722
  138MOL    H7216786   0.806   7.530   1.652 -1.8445  1.1905 -1.9452
  138MOL    H7316787   0.741   7.610   1.798  1.7312  0.9526 -2.5266
  138MOL    C7416788   0.788   7.404   1.842  1.5164  0.7279  0.0740
  138MOL    C7516789   0.934   7.427   1.884  0.1527  0.5181 -0.0807
  138MOL    H7616790   0.723   7.417   1.930  1.2795 -0.1963  0.0391
  138MOL    H7716791   0.771   7.302   1.809  3.6107  0.3280  0.2030
  138MOL    H7816792   1.003   7.419   1.800 -1.5729 -0.9863 -1.3786
  138MOL    H7916793   0.943   7.532   1.912  0.3982  0.5505 -0.2786
  138MOL    C8016794   0.993   7.326   1.988  0.1253 -0.3305  0.8836
  138MOL    C8116795   1.118   7.373   2.062  0.4667  0.3194 -0.0431
  138MOL    H8216796   0.910   7.311   2.057 -1.2311 -1.0932 -0.8501
  138MOL    H8316797   1.008   7.227   1.944  0.4734 -0.4085  1.1807
  138MOL    H8416798   1.196   7.404   1.993 -0.8302  0.5090 -1.4670
  138MOL    H8516799   1.080   7.450   2.129  0.1054  0.5367 -0.4995
  138MOL    C8616800   1.169   7.253   2.146 -0.2084  1.0018 -0.7565
  138MOL    C8716801   1.302   7.276   2.220  0.5880  0.0621 -0.1401
  138MOL    H8816802   1.091   7.213   2.210 -1.0143  2.4265 -0.8337
  138MOL    H8916803   1.189   7.172   2.076  0.3776  1.0837 -0.6894
  138MOL    H9016804   1.373   7.297   2.139 -0.9811  1.7875 -1.1088
  138MOL    H9116805   1.304   7.361   2.288 -0.8539 -0.1973  0.2426
  138MOL    C9216806   1.340   7.152   2.298 -0.8085  0.5887  0.1800
  138MOL    C9316807   1.465   7.157   2.388  0.7295  0.3024  0.2123
  138MOL    H9416808   1.257   7.131   2.366 -1.4407 -1.9475 -1.2973
  138MOL    H9516809   1.345   7.066   2.230 -0.2050 -1.1525  2.3650
  138MOL    H9616810   1.552   7.199   2.337  0.5178 -1.5764 -1.7716
  138MOL    H9716811   1.438   7.221   2.472 -1.6698 -0.1943 -0.1392
  138MOL    C9816812   1.506   7.022   2.447 -0.8842 -0.5986 -0.0321
  138MOL    C9916813   1.627   7.037   2.536 -0.6241  0.1496 -0.7772
  138MOL   H10016814   1.425   6.996   2.515  0.2770  1.0758  2.0413
  138MOL   H10116815   1.520   6.940   2.376 -0.2015 -1.4134  1.0394
  138MOL   H10216816   1.711   7.048   2.468  0.3467 -0.5063  0.2944
  138MOL   H10316817   1.625   7.130   2.593  1.3266 -0.1041 -0.2763
  138MOL   C10416818   1.654   6.923   2.627 -0.4265 -0.5990 -0.3797
  138MOL   C10516819   1.649   6.785   2.560  0.4751  0.4332  0.4090
  138MOL   H10616820   1.750   6.947   2.672 -1.1109  0.9306  0.3326
  138MOL   H10716821   1.584   6.934   2.710  0.2316 -2.3325  0.4128
  138MOL   H10816822   1.560   6.758   2.502  1.3324 -2.0012  0.1557
  138MOL   H10916823   1.731   6.779   2.488 -0.9580  0.0270 -1.2229
  138MOL   C11016824   1.672   6.669   2.653  0.3787  0.5018  0.3320
  138MOL   C11116825   1.701   6.529   2.589 -0.5034  0.2543 -0.3221
  138MOL   H11216826   1.766   6.692   2.703  0.4564 -0.1986  0.5203
  138MOL   H11316827   1.594   6.652   2.727  0.2990 -0.4235  0.0422
  138MOL   H11416828   1.629   6.498   2.513 -2.3450  1.5806  0.8360
  138MOL   H11516829   1.798   6.519   2.540  0.2647 -0.2675  1.2860
  138MOL   C11616830   1.693   6.420   2.692 -0.4285  0.0987 -0.1239
  138MOL   C11716831   1.718   6.283   2.629  0.3797  0.1527  0.3770
  138MOL   H11816832   1.777   6.421   2.761 -0.3254  0.9568 -0.2649
  138MOL   H11916833   1.597   6.408   2.742 -0.9331  1.4471 -0.7453
  138MOL   H12016834   1.713   6.202   2.703 -1.3532  0.9838  1.1930
  138MOL   H12116835   1.640   6.257   2.557 -1.2192  1.5803  1.5720
  138MOL   H12216836   1.814   6.282   2.577 -1.0276  2.6062 -2.4001
  139MOL     C116837   5.956   5.577   3.824  0.1082  0.1833 -0.0597
  139MOL     C216838   5.816   5.644   3.853  0.4395 -0.7000 -0.4179
  139MOL     H316839   6.039   5.633   3.868  0.3147 -0.1121 -0.0681
  139MOL     H416840   5.981   5.567   3.718 -0.7438 -0.9074 -0.1646
  139MOL     H516841   5.738   5.594   3.795  0.0072 -0.9813  0.4071
  139MOL     H616842   5.798   5.630   3.959 -0.4917 -1.8737 -0.7110
  139MOL     H716843   5.945   5.480   3.873  1.1719  0.7689  1.3804
  139MOL     C816844   5.815   5.798   3.825 -0.2046  0.3058  0.3181
  139MOL     C916845   5.673   5.864   3.850  0.4195  0.4089  0.0324
  139MOL    H1016846   5.889   5.845   3.890 -0.4527  1.6091 -0.3201
  139MOL    H1116847   5.866   5.833   3.736  1.1111 -2.2279  0.0129
  139MOL    H1216848   5.607   5.832   3.769  0.7189  1.1605 -0.5151
  139MOL    H1316849   5.618   5.824   3.935 -1.7571  3.0212 -0.0953
  139MOL    C1416850   5.685   6.015   3.864 -0.4955 -0.6757  0.5886
  139MOL    C1516851   5.543   6.081   3.884  0.1070  0.8102  0.7347
  139MOL    H1616852   5.745   6.049   3.948  0.1090  1.7901 -0.8049
  139MOL    H1716853   5.732   6.063   3.778  0.2194  0.5001  1.6343
  139MOL    H1816854   5.484   6.064   3.794  0.9089 -1.5889  0.6205
  139MOL    H1916855   5.495   6.038   3.972 -0.1964  1.2793  0.8013
  139MOL    C2016856   5.558   6.228   3.919  0.1218  0.5196 -0.1229
  139MOL    C2116857   5.427   6.302   3.951 -0.0358 -0.6036 -0.6036
  139MOL    H2216858   5.618   6.222   4.010 -1.7731 -0.5262  1.0935
  139MOL    H2316859   5.609   6.280   3.838  0.1802 -2.3605 -2.0261
  139MOL    H2416860   5.354   6.292   3.870  0.1772  1.0696 -1.0233
  139MOL    H2516861   5.380   6.261   4.040  1.5518 -0.2107  0.4273
  139MOL    C2616862   5.437   6.453   3.988  0.0976 -0.1632 -0.1648
  139MOL    C2716863   5.307   6.526   3.998  0.0366  0.2180  0.1758
  139MOL    H2816864   5.506   6.454   4.072 -0.8998 -0.6824  0.6718
  139MOL    H2916865   5.495   6.509   3.915  1.4883  0.1705  1.1756
  139MOL    H3016866   5.268   6.525   3.896  0.7304  0.4912 -0.0957
  139MOL    H3116867   5.233   6.476   4.060 -1.0416  0.5503 -0.8325
  139MOL    C3216868   5.332   6.673   4.044 -0.1104 -0.2930 -0.3438
  139MOL    C3316869   5.203   6.756   4.060 -0.0981  0.1397  0.1477
  139MOL    H3416870   5.392   6.657   4.134 -1.5197 -0.5388  0.5730
  139MOL    H3516871   5.401   6.722   3.975 -2.5974  2.3322 -1.0414
  139MOL    H3616872   5.155   6.741   3.963  1.6811 -1.1894 -0.5644
  139MOL    H3716873   5.143   6.721   4.143  0.7448 -0.1681  0.6346
  139MOL    C3816874   5.218   6.900   4.084 -0.3986 -0.3003 -0.3995
  139MOL    C3916875   5.086   6.973   4.114 -0.2417 -0.0282  0.4282
  139MOL    H4016876   5.289   6.916   4.165  0.6847  0.1539 -1.4307
  139MOL    H4116877   5.263   6.949   3.998 -2.3453  0.8826 -0.7712
  139MOL    H4216878   5.019   6.981   4.029 -1.1973 -1.8912  0.9730
  139MOL    H4316879   5.034   6.913   4.189  0.8811 -0.1430  1.1279
  139MOL    C4416880   5.114   7.111   4.186 -0.0900  1.1887  0.0462
  139MOL    C4516881   4.993   7.195   4.217  0.2165  1.0350  0.6292
  139MOL    H4616882   5.180   7.101   4.272  0.3943 -0.5304 -0.5022
  139MOL    H4716883   5.171   7.174   4.118  0.2188  1.3575  0.4572
  139MOL    H4816884   4.940   7.214   4.123  0.2156 -1.2215  0.1310
  139MOL    H4916885   4.919   7.141   4.277 -0.0175  0.7127  0.0673
  139MOL    C5016886   5.025   7.334   4.285 -0.5465 -0.0514  0.0421
  139MOL    C5116887   4.888   7.410   4.304  0.3507 -0.5547 -0.0150
  139MOL    H5216888   5.075   7.311   4.379  1.7099 -2.9876 -1.7473
  139MOL    H5316889   5.085   7.389   4.212 -3.8380  4.2343  0.4152
  139MOL    H5416890   4.821   7.406   4.218  0.5344 -3.4059 -0.0692
  139MOL    H5516891   4.818   7.364   4.374 -0.2705  1.1219  0.4842
  139MOL    C5616892   4.915   7.552   4.347  0.1522 -0.2361 -0.4183
  139MOL    C5716893   4.790   7.636   4.346 -0.0035  0.2392 -0.5590
  139MOL    H5816894   4.974   7.555   4.438  0.2628  2.1878 -0.5495
  139MOL    H5916895   4.983   7.596   4.275 -0.5221  0.5796 -0.5730
  139MOL    H6016896   4.758   7.636   4.242 -0.3290 -0.4723 -0.4566
  139MOL    H6116897   4.725   7.581   4.413  1.8078 -1.9619 -0.5398
  139MOL    C6216898   4.814   0.094   4.395  0.1255 -0.0979 -0.1449
  139MOL    C6316899   4.678   0.175   4.393  0.2462 -0.2466  0.5489
  139MOL    H6416900   4.865   0.096   4.491  2.4847 -0.1071 -1.3858
  139MOL    H6516901   4.876   0.160   4.336 -1.6105  2.2027  0.5235
  139MOL    H6616902   4.632   0.156   4.296 -1.6496  0.8287  1.2110
  139MOL    H6716903   4.614   0.121   4.462 -1.3043  1.7363  0.7135
  139MOL    C6816904   4.690   0.320   4.435  0.5983  0.1153 -0.2668
  139MOL    C6916905   4.552   0.372   4.481  0.6170  1.0496 -0.2908
  139MOL    H7016906   4.769   0.331   4.510  0.9109  0.5499 -0.6585
  139MOL    H7116907   4.716   0.384   4.351 -0.4485 -0.3855 -0.9780
  139MOL    H7216908   4.485   0.373   4.394 -2.3261 -2.3627  1.7836
  139MOL    H7316909   4.497   0.305   4.547  1.0874  0.0029 -0.9321
  139MOL    C7416910   4.557   0.517   4.544 -0.9364 -0.7993  0.1838
  139MOL    C7516911   4.421   0.589   4.566 -0.2054  0.0826  0.4389
  139MOL    H7616912   4.618   0.512   4.634 -0.0468  0.4545 -0.3335
  139MOL    H7716913   4.619   0.577   4.478 -2.1581  1.3176  0.9055
  139MOL    H7816914   4.376   0.608   4.468 -0.8453 -0.9902  0.5173
  139MOL    H7916915   4.349   0.539   4.630 -0.8460 -0.1939 -0.4981
  139MOL    C8016916   4.441   0.728   4.626 -0.4112 -0.2778  0.0983
  139MOL    C8116917   4.305   0.792   4.658 -0.6109  0.3116  0.1112
  139MOL    H8216918   4.500   0.735   4.718  1.0365 -0.8839 -0.7764
  139MOL    H8316919   4.500   0.789   4.558  1.6233  0.9721  2.8590
  139MOL    H8416920   4.237   0.761   4.578  1.4552  0.6698 -1.8258
  139MOL    H8516921   4.273   0.760   4.758  2.0754 -0.2023  0.8364
  139MOL    C8616922   4.322   0.940   4.661  0.3549 -0.2639 -0.3623
  139MOL    C8716923   4.181   0.999   4.680  0.1538 -0.0609 -0.1158
  139MOL    H8816924   4.375   0.977   4.749  0.5254 -1.8608  0.2204
  139MOL    H8916925   4.377   0.986   4.579 -0.6447  3.0713  0.7772
  139MOL    H9016926   4.127   0.977   4.587 -0.6577 -2.2375  0.8223
  139MOL    H9116927   4.124   0.931   4.743 -1.7021  1.5124 -0.0551
  139MOL    C9216928   4.188   1.142   4.724  0.8880 -0.5215  0.0892
  139MOL    C9316929   4.061   1.227   4.724 -0.7521  0.2793  0.1117
  139MOL    H9416930   4.218   1.134   4.828  1.9146  1.3072 -0.0454
  139MOL    H9516931   4.262   1.185   4.657  1.1637  0.4304  0.9917
  139MOL    H9616932   4.024   1.244   4.623  0.8686  1.4368 -0.3122
  139MOL    H9716933   3.980   1.178   4.778 -0.0490 -1.2178 -0.1550
  139MOL    C9816934   4.097   1.367   4.773 -0.0568  0.0201  0.6454
  139MOL    C9916935   3.977   1.465   4.754 -0.0785 -0.1475 -0.0672
  139MOL   H10016936   4.123   1.365   4.879 -3.0438 -0.7878  1.4023
  139MOL   H10116937   4.183   1.403   4.717  1.1239 -2.0293  1.0818
  139MOL   H10216938   3.962   1.490   4.649 -2.5785 -3.4648 -0.5784
  139MOL   H10316939   3.884   1.419   4.788 -0.0909  0.6922  1.0868
  139MOL   C10416940   3.990   1.595   4.832  0.6081  0.1505  0.2768
  139MOL   C10516941   3.856   1.683   4.811  0.3631 -0.1933 -0.3654
  139MOL   H10616942   4.025   1.572   4.933 -0.9563  1.2948  1.1059
  139MOL   H10716943   4.073   1.648   4.786 -0.9687  4.4048  2.0609
  139MOL   H10816944   3.846   1.694   4.703 -0.9203 -2.0431 -0.4656
  139MOL   H10916945   3.773   1.623   4.848  0.9637  0.8929  2.9709
  139MOL   C11016946   3.861   1.821   4.875  0.3604 -1.3473 -0.0249
  139MOL   C11116947   3.745   1.925   4.851 -0.4608  1.1294  0.3078
  139MOL   H11216948   3.873   1.811   4.982 -1.6260 -2.3801  0.1347
  139MOL   H11316949   3.956   1.864   4.841  1.1572 -2.6151  0.5733
  139MOL   H11416950   3.727   1.937   4.744 -1.9947  0.4840  0.4846
  139MOL   H11516951   3.648   1.884   4.880 -0.7654  1.1902 -0.6190
  139MOL   C11616952   3.784   2.058   4.906 -0.9242  0.2349 -0.5833
  139MOL   C11716953   3.662   2.156   4.910 -0.5468  0.3134  0.8119
  139MOL   H11816954   3.822   2.045   5.007  2.1776 -1.2495 -1.8810
  139MOL   H11916955   3.866   2.102   4.850  0.6351  1.0124  2.2111
  139MOL   H12016956   3.566   2.126   4.951 -1.1247  3.1270  1.6118
  139MOL   H12116957   3.703   2.247   4.955 -2.2708  2.4095 -1.7326
  139MOL   H12216958   3.647   2.183   4.805 -0.7384 -2.9471 -0.0509
  140MOL     C116959   1.283   7.587   7.292 -0.2495  0.7534  0.3846
  140MOL     C216960   1.295   0.043   7.277 -0.2083  0.1554 -0.1297
  140MOL     H316961   1.381   7.539   7.298 -1.6263 -2.3639 -0.8276
  140MOL     H416962   1.242   7.529   7.209  2.5209 -3.3403  1.7044
  140MOL     H516963   1.344   0.070   7.184 -1.4053 -0.0090 -0.8301
  140MOL     H616964   1.200   0.098   7.276  0.5899  1.5450 -0.9106
  140MOL     H716965   1.219   7.548   7.371  0.6174  3.4691  2.5052
  140MOL     C816966   1.373   0.102   7.397 -0.6746  0.4859  0.6297
  140MOL     C916967   1.415   0.250   7.388  1.0574 -0.0975  0.2536
  140MOL    H1016968   1.312   0.101   7.487 -1.1148  1.7037  0.3688
  140MOL    H1116969   1.462   0.040   7.403 -2.7314 -2.6988 -0.6477
  140MOL    H1216970   1.481   0.266   7.303 -0.0692 -0.3261 -0.6763
  140MOL    H1316971   1.320   0.302   7.374 -0.0912 -2.4169 -0.9144
  140MOL    C1416972   1.475   0.303   7.514  0.1201 -0.1020 -0.0263
  140MOL    C1516973   1.378   0.324   7.628 -0.0770 -0.1198 -0.8972
  140MOL    H1616974   1.546   0.226   7.546 -0.8197 -0.5318  1.0397
  140MOL    H1716975   1.530   0.392   7.483 -1.8329  1.0438 -0.3158
  140MOL    H1816976   1.330   0.422   7.617 -0.0494 -0.0947 -0.7888
  140MOL    H1916977   1.299   0.252   7.647 -1.4130  1.5938  0.2920
  140MOL    C2016978   1.456   0.348   0.062  0.0108 -0.4543  0.1551
  140MOL    C2116979   1.366   0.392   0.182 -0.4471  0.9621  0.0236
  140MOL    H2216980   1.499   0.250   0.080  2.0553 -0.3475 -3.7184
  140MOL    H2316981   1.534   0.424   0.057 -2.0480  1.9342  2.3121
  140MOL    H2416982   1.326   0.494   0.173 -0.3361  0.9246 -0.9717
  140MOL    H2516983   1.270   0.340   0.172 -1.5431  2.3797  2.6736
  140MOL    C2616984   1.419   0.364   0.322  0.0453 -0.1741  0.1294
  140MOL    C2716985   1.538   0.457   0.366 -0.3142 -0.5379  0.0120
  140MOL    H2816986   1.345   0.395   0.395 -0.4414 -2.7921  0.7685
  140MOL    H2916987   1.450   0.260   0.323  0.9033  0.0777  0.9259
  140MOL    H3016988   1.507   0.560   0.351  1.2124 -0.1122 -0.2687
  140MOL    H3116989   1.544   0.436   0.473  0.6887  0.0550  0.0765
  140MOL    C3216990   1.675   0.432   0.300  0.2891  0.0330 -0.2669
  140MOL    C3316991   1.789   0.514   0.355  0.7279 -0.1760  0.7340
  140MOL    H3416992   1.696   0.326   0.288  0.5720 -0.2350  2.2874
  140MOL    H3516993   1.656   0.467   0.199  0.5613  0.3705 -0.2037
  140MOL    H3616994   1.758   0.619   0.362 -0.7553 -0.5165 -0.4037
  140MOL    H3716995   1.808   0.477   0.456 -5.0094  0.6267  2.3178
  140MOL    C3816996   1.908   0.516   0.257 -0.0571  0.2652  0.7239
  140MOL    C3916997   1.881   0.569   0.112 -0.2129 -0.5762  0.0305
  140MOL    H4016998   1.993   0.568   0.301  1.9697 -3.0303  0.9557
  140MOL    H4116999   1.944   0.413   0.264 -3.2706 -0.9091  1.0648
  140MOL    H4217000   1.809   0.503   0.064  0.3540 -2.2307  1.4048
  140MOL    H4317001   1.837   0.668   0.120 -0.3775 -0.9078  4.9908
  140MOL    C4417002   2.015   0.588   0.039 -0.1220 -0.5197 -0.2637
  140MOL    C4517003   2.081   0.457   7.684  0.1086  0.3626  0.3359
  140MOL    H4617004   1.992   0.653   7.646  0.3219  0.2550  0.2010
  140MOL    H4717005   2.095   0.639   0.094  0.4724 -1.8597  0.1355
  140MOL    H4817006   2.099   0.388   0.075  1.4140 -0.9717 -1.0529
  140MOL    H4917007   2.007   0.398   7.630 -0.2890 -0.2046  1.4725
  140MOL    C5017008   2.202   0.474   7.590  0.4185  0.1302  0.1184
  140MOL    C5117009   2.311   0.571   7.649 -0.9544  0.6204 -0.5213
  140MOL    H5217010   2.249   0.379   7.564  0.0777  0.1380 -0.5305
  140MOL    H5317011   2.171   0.512   7.493 -0.4573  1.2511  0.8160
  140MOL    H5417012   2.271   0.672   7.658  1.4493  1.5449  0.3647
  140MOL    H5517013   2.343   0.546   0.058 -0.2443  1.8894 -0.4283
  140MOL    C5617014   2.435   0.571   7.556 -0.4032  0.1728 -0.2660
  140MOL    C5717015   2.550   0.676   7.565 -0.8007  0.1651  0.0016
  140MOL    H5817016   2.484   0.474   7.564 -2.4065 -0.8767 -0.2793
  140MOL    H5917017   2.397   0.577   7.454 -0.9016  0.9329 -0.0433
  140MOL    H6017018   2.507   0.776   7.553 -1.2747 -0.1384 -0.9215
  140MOL    H6117019   2.598   0.672   7.662  0.0809 -1.3425 -0.4870
  140MOL    C6217020   2.665   0.653   7.465 -0.2148  0.0709 -0.0263
  140MOL    C6317021   2.788   0.736   7.502 -0.0663  0.0755  0.0782
  140MOL    H6417022   2.704   0.552   7.474 -0.3156 -0.1310 -1.7910
  140MOL    H6517023   2.627   0.675   7.365  0.4978  1.4077 -0.0252
  140MOL    H6617024   2.757   0.839   7.520 -1.3726 -0.0249 -1.4808
  140MOL    H6717025   2.837   0.694   7.590 -1.0756  0.7371  0.9654
  140MOL    C6817026   2.882   0.723   7.383  0.7218 -0.1006  0.3900
  140MOL    C6917027   3.002   0.815   7.402  0.3973 -0.3077  0.4390
  140MOL    H7017028   2.919   0.621   7.385  1.3898  0.1224 -0.2055
  140MOL    H7117029   2.819   0.739   7.296 -0.9293 -0.2837  1.5080
  140MOL    H7217030   2.980   0.921   7.410 -0.5420 -0.4906  0.2958
  140MOL    H7317031   3.044   0.788   7.499  1.0012 -0.1522  0.2256
  140MOL    C7417032   3.109   0.794   7.300 -0.2838  0.0385  0.0588
  140MOL    C7517033   3.233   0.883   7.319 -0.5094 -0.1730 -0.2564
  140MOL    H7617034   3.157   0.696   7.295  0.4436  0.4702 -1.7921
  140MOL    H7717035   3.060   0.813   7.205  0.1676  2.1563  0.2316
  140MOL    H7817036   3.200   0.987   7.323 -0.9183 -0.2046 -2.1616
  140MOL    H7917037   3.291   0.878   7.411  3.3241 -1.1120 -2.6293
  140MOL    C8017038   3.334   0.875   7.204 -0.4001  0.0268  0.4453
  140MOL    C8117039   3.332   0.994   7.096  0.2743 -0.0022 -0.0978
  140MOL    H8217040   3.435   0.862   7.243  0.0628 -0.6514 -0.9751
  140MOL    H8317041   3.307   0.785   7.149 -1.4568  1.1286 -0.8685
  140MOL    H8417042   3.228   1.012   7.069 -0.0900  0.6671  1.6688
  140MOL    H8517043   3.359   1.087   7.147 -2.5093 -0.2126  1.8871
  140MOL    C8617044   3.416   0.959   6.971  0.0578  0.1780  0.3021
  140MOL    C8717045   3.400   1.070   6.858 -0.1861  0.0414  0.2703
  140MOL    H8817046   3.521   0.948   7.000  0.4242  0.1497 -0.9869
  140MOL    H8917047   3.379   0.860   6.942 -0.6027  0.6914 -0.6117
  140MOL    H9017048   3.307   1.053   6.803  1.3746 -0.0092 -2.4483
  140MOL    H9117049   3.401   1.166   6.910 -0.5994 -0.0121  0.3853
  140MOL    C9217050   3.515   1.063   6.751  0.2454  0.0685  0.4010
  140MOL    C9317051   3.495   1.167   6.647 -0.3418 -0.2621 -0.3646
  140MOL    H9417052   3.604   1.084   6.811 -0.4964  0.9250  1.2370
  140MOL    H9517053   3.518   0.964   6.707  2.9389  0.0502  0.5386
  140MOL    H9617054   3.408   1.137   6.588  0.3248  0.6068 -1.8094
  140MOL    H9717055   3.468   1.260   6.698 -1.0333 -0.5464 -0.2035
  140MOL    C9817056   3.613   1.204   6.561  0.3010  0.6524  0.1535
  140MOL    C9917057   3.587   1.296   6.444 -0.2587  0.0514  0.3243
  140MOL   H10017058   3.704   1.231   6.614  1.4547 -0.0780 -1.4137
  140MOL   H10117059   3.644   1.108   6.519  1.2146  0.3447  1.4908
  140MOL   H10217060   3.515   1.371   6.476  1.1926  0.7130  2.1273
  140MOL   H10317061   3.680   1.344   6.415  0.8628 -2.1412  0.2156
  140MOL   C10417062   3.538   1.223   6.314  0.8314  0.4567 -0.2679
  140MOL   C10517063   3.651   1.156   6.234 -0.5159 -0.0508  0.2923
  140MOL   H10617064   3.450   1.160   6.332  1.4475 -0.5692 -0.8055
  140MOL   H10717065   3.508   1.302   6.245  0.0755  0.7597  0.3918
  140MOL   H10817066   3.733   1.225   6.211  0.6718 -1.6649 -0.4384
  140MOL   H10917067   3.674   1.063   6.286  0.0768 -0.9516 -1.5247
  140MOL   C11017068   3.604   1.116   6.097  0.4771 -0.3912  0.2308
  140MOL   C11117069   3.706   1.023   6.027 -0.1127  0.2472  0.0749
  140MOL   H11217070   3.509   1.064   6.108  0.8605 -0.8687  1.2800
  140MOL   H11317071   3.584   1.204   6.035 -0.6421 -1.3464 -0.8021
  140MOL   H11417072   3.808   1.061   6.015 -0.1108  0.2834  0.2095
  140MOL   H11517073   3.725   0.931   6.081  1.4043 -0.0573 -0.9252
  140MOL   C11617074   3.640   0.972   5.894  0.2793  0.1244  0.1804
  140MOL   C11717075   3.530   0.861   5.912 -0.2544 -0.8503  0.2085
  140MOL   H11817076   3.600   1.058   5.840  0.3143 -0.3843 -0.6730
  140MOL   H11917077   3.717   0.936   5.826  1.1542  0.4619  0.9865
  140MOL   H12017078   3.440   0.887   5.968 -1.5433 -2.7676 -0.9347
  140MOL   H12117079   3.496   0.822   5.816 -1.0886 -0.8378  0.4938
  140MOL   H12217080   3.575   0.778   5.965  0.6818  0.3082  1.2632
  141MOL     C117081   4.866   3.043   5.928 -0.1131  0.0720 -0.5425
  141MOL     C217082   4.973   2.967   5.852 -0.2433 -0.1845 -0.8791
  141MOL     H317083   4.834   3.135   5.879 -0.9831  0.0342 -0.0515
  141MOL     H417084   4.892   3.077   6.028 -0.6603  0.0940 -0.4101
  141MOL     H517085   4.984   2.861   5.872  0.9275 -0.0043 -0.5220
  141MOL     H617086   4.937   2.972   5.749 -0.2115  3.6072 -0.7915
  141MOL     H717087   4.779   2.978   5.935 -0.9686  1.3773  1.4552
  141MOL     C817088   5.114   3.036   5.863  0.0784 -0.0410 -0.5144
  141MOL     C917089   5.181   3.009   5.997 -0.5150  0.4510 -0.5925
  141MOL    H1017090   5.184   2.990   5.793  0.8688  0.0938  0.1783
  141MOL    H1117091   5.110   3.143   5.845  0.3265  0.1253  0.4195
  141MOL    H1217092   5.118   3.021   6.086  1.7843 -1.0108  1.3149
  141MOL    H1317093   5.209   2.903   5.994  1.2173  0.8626  0.2117
  141MOL    C1417094   5.310   3.093   6.016  0.1633 -0.9467 -0.0577
  141MOL    C1517095   5.427   3.046   5.925  0.3007 -0.0565  0.3935
  141MOL    H1617096   5.281   3.195   5.994 -0.0245 -0.7744  0.9491
  141MOL    H1717097   5.350   3.091   6.118 -0.2930 -3.9148  0.1247
  141MOL    H1817098   5.455   2.942   5.940  0.3115 -0.0479  0.4351
  141MOL    H1917099   5.392   3.044   5.822 -1.6145  1.8432  0.9683
  141MOL    C2017100   5.557   3.138   5.932  0.2802  0.0700  0.1706
  141MOL    C2117101   5.673   3.109   5.837 -0.1628  0.1134 -0.7898
  141MOL    H2217102   5.532   3.244   5.920  1.6493  0.3689 -0.1997
  141MOL    H2317103   5.593   3.129   6.035 -0.9669  1.6012  0.7748
  141MOL    H2417104   5.697   3.003   5.838 -0.8430 -0.0338  0.9836
  141MOL    H2517105   5.637   3.118   5.734 -0.3600  1.4019 -0.6147
  141MOL    C2617106   5.801   3.186   5.876  0.4055 -0.0952  0.0270
  141MOL    C2717107   5.902   3.182   5.763  0.4071 -0.2659 -0.0347
  141MOL    H2817108   5.790   3.292   5.898  0.1438 -0.1684  0.2507
  141MOL    H2917109   5.832   3.131   5.965  0.9051  1.9719  1.1636
  141MOL    H3017110   5.936   3.079   5.751  0.3148 -0.3234  0.1956
  141MOL    H3117111   5.854   3.202   5.667 -2.4758  0.2353  1.4690
  141MOL    C3217112   6.034   3.272   5.791  0.4200 -0.6290  0.2007
  141MOL    C3317113   6.131   3.251   5.677 -0.3961  0.9930 -0.0791
  141MOL    H3417114   5.988   3.371   5.795 -2.2014 -1.8342  0.9733
  141MOL    H3517115   6.065   3.250   5.893 -4.0279  1.2850  2.1389
  141MOL    H3617116   6.177   3.155   5.701 -0.9910  0.6336 -0.3772
  141MOL    H3717117   6.075   3.247   5.584  0.6090  0.9535 -0.6988
  141MOL    C3817118   6.250   3.350   5.656  0.6682 -0.5312  0.2051
  141MOL    C3917119   6.347   3.299   5.540 -0.0259  0.2648  0.2673
  141MOL    H4017120   6.220   3.454   5.644  1.9959 -0.0710  0.7012
  141MOL    H4117121   6.312   3.341   5.745  3.5325 -1.4873 -1.8092
  141MOL    H4217122   6.388   3.203   5.572  1.1661  2.0665  4.4696
  141MOL    H4317123   6.301   3.295   5.441 -0.2096 -0.3866  0.3781
  141MOL    C4417124   6.463   3.397   5.538  0.2829  0.0647  0.3187
  141MOL    C4517125   6.549   3.380   5.406 -0.7888  0.3449  0.2220
  141MOL    H4617126   6.407   3.491   5.540 -3.1755 -1.7502 -3.9974
  141MOL    H4717127   6.524   3.409   5.628  0.0286 -1.9846  0.7755
  141MOL    H4817128   6.585   3.277   5.401  0.4390  0.8284 -1.4042
  141MOL    H4917129   6.484   3.393   5.319 -1.9491 -0.8039  0.9112
  141MOL    C5017130   6.668   3.476   5.411 -0.3661 -0.0830 -0.4110
  141MOL    C5117131   6.759   3.475   5.287  0.6335  0.9177  0.1895
  141MOL    H5217132   6.626   3.572   5.440  0.1665  0.3654 -1.1009
  141MOL    H5317133   6.721   3.445   5.501 -0.2628  0.6451 -0.2210
  141MOL    H5417134   6.776   3.377   5.242  1.0709  1.4393 -0.8157
  141MOL    H5517135   6.716   3.542   5.212  0.3326  0.1428 -0.3286
  141MOL    C5617136   6.890   3.544   5.320 -0.0544  0.8208 -0.0383
  141MOL    C5717137   6.981   3.555   5.196  0.2455 -0.3026 -0.2765
  141MOL    H5817138   6.864   3.641   5.361 -0.3959  0.7542 -0.0921
  141MOL    H5917139   6.944   3.480   5.389  1.7052  0.8464 -1.3673
  141MOL    H6017140   6.996   3.459   5.145  0.6241 -1.2630  1.5893
  141MOL    H6117141   6.919   3.623   5.139 -1.0306 -0.3810  0.9721
  141MOL    C6217142   7.113   3.630   5.218  0.2734  0.1616 -0.4380
  141MOL    C6317143   7.203   3.641   5.091  0.6400  0.6837 -0.1415
  141MOL    H6417144   7.075   3.726   5.254  1.8407  0.2075  1.1197
  141MOL    H6517145   7.177   3.583   5.292  0.2771 -2.3489 -1.9614
  141MOL    H6617146   7.208   3.540   5.051 -2.7934 -0.6253  2.4827
  141MOL    H6717147   7.150   3.695   5.012 -2.8649 -1.2721  0.7614
  141MOL    C6817148   7.341   3.690   5.116 -0.1968 -0.4066 -0.0749
  141MOL    C6917149   7.418   3.704   4.984 -0.3598 -0.2686 -0.5010
  141MOL    H7017150   7.338   3.784   5.170  1.6868  0.1142 -0.8228
  141MOL    H7117151   7.396   3.614   5.172  1.4720 -0.8455 -2.2654
  141MOL    H7217152   7.472   3.611   4.963 -0.1681 -0.4442  0.7643
  141MOL    H7317153   7.351   3.716   4.899  2.2131 -2.8880 -3.0413
  141MOL    C7417154   7.517   3.819   4.982 -0.6299  0.6331 -0.5187
  141MOL    C7517155   7.605   3.809   4.853 -0.5245 -0.1929  0.5036
  141MOL    H7617156   7.468   3.917   4.988  0.0898  1.1076 -2.1176
  141MOL    H7717157   7.582   3.812   5.070 -1.0742  1.2445 -0.1362
  141MOL    H7817158   7.620   3.710   4.812  0.0599 -0.2044  0.7504
  141MOL    H7917159   7.548   3.856   4.773  0.4328 -0.5559 -0.3966
  141MOL    C8017160   0.051   3.881   4.850 -0.2583  0.0572  0.4442
  141MOL    C8117161   0.132   3.892   4.716 -0.6237 -0.2052  0.1678
  141MOL    H8217162   0.027   3.977   4.896 -0.3354  0.3154 -0.1355
  141MOL    H8317163   0.122   3.821   4.909 -0.1156  0.1927  0.4111
  141MOL    H8417164   0.174   3.797   4.682  1.7333  0.5015  1.0199
  141MOL    H8517165   0.067   3.922   4.635 -0.7673  1.8398  1.0224
  141MOL    C8617166   0.246   3.988   4.726  0.0061  0.7596  0.3462
  141MOL    C8717167   0.364   3.935   4.814 -0.3360 -0.4568 -0.1227
  141MOL    H8817168   0.282   4.023   4.629 -0.5042  3.2645  1.0334
  141MOL    H8917169   0.211   4.082   4.768 -0.2751  1.9770 -2.4701
  141MOL    H9017170   0.330   3.921   4.917  0.9153 -2.1214  0.0844
  141MOL    H9117171   0.395   3.837   4.780  0.5211 -0.2359  0.0037
  141MOL    C9217172   0.477   4.039   4.814  0.0244  0.2033  0.4522
  141MOL    C9317173   0.589   4.017   4.919 -0.2746  0.7536  0.3983
  141MOL    H9417174   0.517   4.061   4.714  0.2610  1.1192  0.7361
  141MOL    H9517175   0.429   4.134   4.837 -0.8854 -0.5401  1.6303
  141MOL    H9617176   0.663   4.095   4.902  1.3865 -1.1581 -1.3990
  141MOL    H9717177   0.561   4.025   5.024 -1.6126  0.5639  0.0606
  141MOL    C9817178   0.660   3.874   4.899  0.1601 -0.1779  0.3927
  141MOL    C9917179   0.778   3.873   4.994 -0.2245  0.1289 -0.3800
  141MOL   H10017180   0.590   3.790   4.903  1.2431 -1.0338  1.9406
  141MOL   H10117181   0.694   3.885   4.796 -0.9031  1.2698  0.1725
  141MOL   H10217182   0.817   3.972   5.018 -0.4657 -0.5541  2.9917
  141MOL   H10317183   0.726   3.839   5.083  0.3072 -3.6563 -1.4185
  141MOL   C10417184   0.891   3.771   4.966  0.1409 -0.3602  1.0254
  141MOL   C10517185   0.988   3.819   4.851 -0.2382  0.6428 -0.2785
  141MOL   H10617186   0.946   3.758   5.059  0.6762  0.6663  0.8585
  141MOL   H10717187   0.847   3.673   4.942  0.5788 -0.0330 -1.2496
  141MOL   H10817188   0.938   3.818   4.754 -0.3347  2.4358 -0.2690
  141MOL   H10917189   1.031   3.917   4.872  0.2483  0.6173 -1.1077
  141MOL   C11017190   1.107   3.730   4.834  0.2281 -0.3740  0.0233
  141MOL   C11117191   1.197   3.766   4.711 -0.4914  0.0017 -0.1698
  141MOL   H11217192   1.158   3.745   4.929 -1.0009  0.6805  0.5381
  141MOL   H11317193   1.080   3.625   4.829  1.3198 -0.6486 -0.2155
  141MOL   H11417194   1.133   3.775   4.623 -1.5292  2.7947  0.8316
  141MOL   H11517195   1.224   3.868   4.736 -0.4852 -0.4948  1.9307
  141MOL   C11617196   1.322   3.678   4.683 -0.0229 -0.1127  0.4951
  141MOL   C11717197   1.412   3.729   4.569  0.3759  0.6504  0.6838
  141MOL   H11817198   1.379   3.673   4.776  0.8330 -0.6053 -0.0528
  141MOL   H11917199   1.281   3.579   4.665  0.7055 -0.3839  0.3148
  141MOL   H12017200   1.498   3.664   4.560  0.2179  0.8042 -2.5220
  141MOL   H12117201   1.359   3.707   4.477 -0.6651 -0.5682  1.5568
  141MOL   H12217202   1.443   3.834   4.569  0.6578  0.5696  1.0523
  142MOL     C117203   6.301   3.990   0.127 -0.6482  0.3842  0.2994
  142MOL     C217204   6.391   4.044   0.017 -1.0191  0.0765 -0.4632
  142MOL     H317205   6.257   4.083   0.164 -0.4522  0.1593  1.1144
  142MOL     H417206   6.358   3.964   0.216  1.5536  0.8356 -0.9276
  142MOL     H517207   6.478   4.092   0.064 -0.8531 -1.0388  0.3915
  142MOL     H617208   6.431   3.956   7.659 -1.7220 -0.8754  0.6363
  142MOL     H717209   6.229   3.916   0.094 -0.3805  0.6766 -0.9603
  142MOL     C817210   6.318   4.135   7.605 -0.2411  0.6494 -0.2660
  142MOL     C917211   6.224   4.063   7.504 -0.2814  0.3377  0.2738
  142MOL    H1017212   6.270   4.216   7.661  1.7136  0.7140  1.3273
  142MOL    H1117213   6.391   4.188   7.544 -0.5593 -0.7986 -1.9625
  142MOL    H1217214   6.274   3.984   7.449  0.1948 -0.6538  2.0754
  142MOL    H1317215   6.150   4.001   7.555 -1.9267  1.9382 -0.1199
  142MOL    C1417216   6.155   4.150   7.399 -0.2140  0.0417  0.0103
  142MOL    C1517217   6.052   4.070   7.319  0.1698 -0.5741  0.1599
  142MOL    H1617218   6.091   4.220   7.452 -0.6793  0.8325 -1.5682
  142MOL    H1717219   6.226   4.214   7.348  1.1255 -0.6546  0.9776
  142MOL    H1817220   6.112   3.994   7.270 -0.3146 -1.3587  0.7761
  142MOL    H1917221   5.979   4.023   7.385 -2.0017  2.6818  0.2037
  142MOL    C2017222   5.991   4.166   7.221  0.1422 -0.1187  0.5831
  142MOL    C2117223   5.903   4.090   7.116 -0.2830  1.1338 -0.4801
  142MOL    H2217224   5.944   4.253   7.268  2.0516  0.1598  2.0166
  142MOL    H2317225   6.066   4.215   7.160  0.0742  0.3600  0.8801
  142MOL    H2417226   5.968   4.044   7.041  0.0742  0.9763 -0.0762
  142MOL    H2517227   5.856   4.000   7.157  2.1368  0.2719  0.4854
  142MOL    C2617228   5.803   4.179   7.048 -0.8477 -0.0396 -0.4485
  142MOL    C2717229   5.747   4.124   6.915 -0.1041 -0.2601  0.6029
  142MOL    H2817230   5.716   4.190   7.113 -1.3887 -1.8455 -0.8122
  142MOL    H2917231   5.841   4.279   7.029  0.2990 -0.8137 -2.3238
  142MOL    H3017232   5.827   4.118   6.840 -0.3211  0.2750  0.3302
  142MOL    H3117233   5.703   4.025   6.927  0.5312 -0.3467  2.2992
  142MOL    C3217234   5.639   4.216   6.861 -0.0041  0.2952 -0.0229
  142MOL    C3317235   5.598   4.166   6.717 -0.2070  0.2117 -1.1894
  142MOL    H3417236   5.556   4.231   6.930 -3.7233 -0.9274 -4.0195
  142MOL    H3517237   5.672   4.320   6.859  0.5064  0.1365  0.1149
  142MOL    H3617238   5.688   4.175   6.656  0.5457 -0.0039 -0.1284
  142MOL    H3717239   5.569   4.061   6.714 -0.6502  0.2991 -0.1346
  142MOL    C3817240   5.489   4.250   6.663  0.2700  0.2119  0.3400
  142MOL    C3917241   5.450   4.218   6.518  0.2049  0.2861 -0.1245
  142MOL    H4017242   5.395   4.248   6.718  0.1311 -1.2933  0.0709
  142MOL    H4117243   5.527   4.352   6.659 -0.1387  0.3027 -1.2755
  142MOL    H4217244   5.541   4.243   6.464  0.7285 -1.4402 -0.0757
  142MOL    H4317245   5.451   4.110   6.499 -2.1817  0.3221 -0.6071
  142MOL    C4417246   5.334   4.293   6.461 -0.0763  0.2372  0.7947
  142MOL    C4517247   5.196   4.231   6.508  0.0861  0.4023  0.3108
  142MOL    H4617248   5.338   4.399   6.488  1.2770  0.1802  0.8657
  142MOL    H4717249   5.341   4.291   6.353 -0.8913  0.5885  0.7296
  142MOL    H4817250   5.209   4.208   6.614 -2.0873 -1.2817  0.2473
  142MOL    H4917251   5.117   4.303   6.487 -1.3114 -1.3814 -0.6363
  142MOL    C5017252   5.155   4.110   6.420 -0.2375  0.5247 -0.5238
  142MOL    C5117253   5.021   4.054   6.465  0.0258 -0.1704  0.1048
  142MOL    H5217254   5.153   4.135   6.314  0.7927 -0.3478 -0.7615
  142MOL    H5317255   5.227   4.028   6.429 -2.1737 -1.2799 -1.0413
  142MOL    H5417256   5.034   3.993   6.554 -0.9132 -0.9192 -0.2588
  142MOL    H5517257   4.945   4.129   6.484  1.9576  1.6303  0.8981
  142MOL    C5617258   4.953   3.961   6.364  0.1774 -0.6841  0.3513
  142MOL    C5717259   4.798   3.939   6.391  0.2803 -0.0362  0.2665
  142MOL    H5817260   4.955   4.005   6.265  3.0270  0.7444  0.9910
  142MOL    H5917261   5.010   3.869   6.350  1.8161  0.4375 -0.4045
  142MOL    H6017262   4.775   3.892   6.487  0.8794 -0.3459  0.2594
  142MOL    H6117263   4.741   4.033   6.389  1.7054  0.8835  1.7134
  142MOL    C6217264   4.748   3.831   6.297  0.1137  1.0700  0.1190
  142MOL    C6317265   4.600   3.819   6.323  0.2545 -0.5458 -0.2711
  142MOL    H6417266   4.775   3.855   6.194 -0.0787 -0.3251 -0.2698
  142MOL    H6517267   4.788   3.730   6.300  1.6742  1.6700  0.1415
  142MOL    H6617268   4.570   3.795   6.425  0.3951 -0.1780 -0.1431
  142MOL    H6717269   4.547   3.913   6.310  1.4197  0.1766  0.1382
  142MOL    C6817270   4.543   3.709   6.228  0.1851 -0.4291 -0.1759
  142MOL    C6917271   4.394   3.688   6.258 -0.2746  0.6449 -0.1318
  142MOL    H7017272   4.548   3.749   6.127  0.1494  1.4260  0.5332
  142MOL    H7117273   4.589   3.612   6.242  0.2309 -0.4834 -0.7081
  142MOL    H7217274   4.374   3.650   6.358 -0.4882 -0.3303 -0.5470
  142MOL    H7317275   4.353   3.787   6.238 -0.3391  0.1131 -2.8444
  142MOL    C7417276   4.328   3.591   6.161  0.3069 -0.0488  0.0525
  142MOL    C7517277   4.240   3.648   6.051 -0.1240 -0.0544  0.3125
  142MOL    H7617278   4.408   3.531   6.117  0.8565 -0.2855  1.3366
  142MOL    H7717279   4.267   3.526   6.223  1.2562 -0.3603  0.6806
  142MOL    H7817280   4.162   3.710   6.094 -0.7965  1.1045 -2.4507
  142MOL    H7917281   4.301   3.716   5.992  0.6004 -1.2105 -0.2895
  142MOL    C8017282   4.181   3.533   5.960 -0.0300  0.9168 -0.8603
  142MOL    C8117283   4.268   3.505   5.840 -0.4289 -0.2931  0.1974
  142MOL    H8217284   4.161   3.445   6.020  0.5933 -0.9734 -3.3724
  142MOL    H8317285   4.092   3.568   5.908  0.6775  1.4398 -1.7293
  142MOL    H8417286   4.319   3.594   5.802  0.4032  0.0434  2.0552
  142MOL    H8517287   4.352   3.450   5.883 -1.0349 -1.0747  0.3965
  142MOL    C8617288   4.199   3.413   5.737 -0.6991  0.0633 -0.1470
  142MOL    C8717289   4.292   3.368   5.622  0.3397  0.2691 -0.2082
  142MOL    H8817290   4.171   3.322   5.791  2.7184  0.1537  1.9414
  142MOL    H8917291   4.114   3.465   5.696 -1.8768  0.2582  2.4409
  142MOL    H9017292   4.389   3.327   5.649  0.0812  1.1209  2.1808
  142MOL    H9117293   4.239   3.287   5.572 -0.9701  0.4551  0.8473
  142MOL    C9217294   4.310   3.479   5.511 -0.2726 -0.5237 -0.3156
  142MOL    C9317295   4.391   3.426   5.389  0.5052  0.5399 -0.2643
  142MOL    H9417296   4.210   3.509   5.481 -1.1295  0.3261  3.1229
  142MOL    H9517297   4.351   3.575   5.542 -1.1225 -0.3549  0.2952
  142MOL    H9617298   4.344   3.337   5.345  1.3917 -0.2290  0.3183
  142MOL    H9717299   4.371   3.496   5.308  1.0992 -2.1397 -2.8312
  142MOL    C9817300   4.536   3.399   5.420 -0.7983 -0.9311 -0.2314
  142MOL    C9917301   4.617   3.328   5.311 -0.4836 -0.4146 -0.2514
  142MOL   H10017302   4.587   3.487   5.458 -1.6232 -0.9686  1.0074
  142MOL   H10117303   4.536   3.332   5.506 -1.4082  0.5891  0.9689
  142MOL   H10217304   4.587   3.223   5.310  0.4679 -0.6825 -1.5409
  142MOL   H10317305   4.605   3.362   5.208  0.6026 -0.8012 -0.5097
  142MOL   C10417306   4.773   3.314   5.333  0.3488  0.4463 -0.4446
  142MOL   C10517307   4.826   3.213   5.237 -0.5776  0.6121 -0.5934
  142MOL   H10617308   4.817   3.412   5.317 -0.9732  1.0968 -0.2297
  142MOL   H10717309   4.792   3.288   5.437 -0.3935 -1.4158 -0.7447
  142MOL   H10817310   4.775   3.118   5.253  0.2303  0.3112  0.2176
  142MOL   H10917311   4.802   3.253   5.138  0.4297  0.4422 -0.9113
  142MOL   C11017312   4.983   3.195   5.255  1.0210 -0.3381 -0.4708
  142MOL   C11117313   5.019   3.086   5.354  0.3906 -0.0522  0.3424
  142MOL   H11217314   5.025   3.165   5.159  0.0712 -0.9779 -0.6977
  142MOL   H11317315   5.033   3.287   5.284 -0.2888  0.3858 -0.4580
  142MOL   H11417316   4.969   3.104   5.449  3.3279 -2.1572  2.4054
  142MOL   H11517317   4.978   2.993   5.316  0.8788 -0.0969 -0.0836
  142MOL   C11617318   5.178   3.069   5.379  0.2671 -1.1647 -0.1462
  142MOL   C11717319   5.218   2.957   5.478  0.1130 -0.1229  0.3565
  142MOL   H11817320   5.226   3.064   5.281 -0.7763  4.2568 -1.1067
  142MOL   H11917321   5.205   3.169   5.414  1.2136 -0.3300 -3.0990
  142MOL   H12017322   5.216   2.857   5.437  1.0503 -0.2863  0.6863
  142MOL   H12117323   5.322   2.976   5.508  0.1821  0.8399 -0.4519
  142MOL   H12217324   5.155   2.958   5.567 -1.5116  1.0237 -0.7694
  143MOL     C117325   0.585   6.379   4.694  1.2729  0.8504 -0.7354
  143MOL     C217326   0.720   6.439   4.678  0.7651  0.3120 -0.3653
  143MOL     H317327   0.523   6.391   4.606 -2.6547 -0.3284  1.7379
  143MOL     H417328   0.527   6.406   4.783 -1.9036 -1.3216 -2.0536
  143MOL     H517329   0.717   6.534   4.625  1.0164  1.0224  0.8647
  143MOL     H617330   0.756   6.477   4.774 -0.5458 -1.2873  0.7922
  143MOL     H717331   0.581   6.271   4.708  0.2828  1.0106  0.3920
  143MOL     C817332   0.826   6.348   4.613  0.6840 -0.3909 -0.4292
  143MOL     C917333   0.792   6.282   4.477 -0.5998 -0.1089  0.2563
  143MOL    H1017334   0.917   6.408   4.607  0.0424  0.4292 -2.0846
  143MOL    H1117335   0.863   6.269   4.679 -1.0217 -0.6440  0.2660
  143MOL    H1217336   0.710   6.211   4.488 -1.1429  0.0027 -2.7433
  143MOL    H1317337   0.760   6.359   4.406  0.6380  0.2750  0.1140
  143MOL    C1417338   0.912   6.207   4.421 -0.3734  0.1594  0.1080
  143MOL    C1517339   0.871   6.116   4.295 -0.0137 -0.3617 -0.2720
  143MOL    H1617340   0.988   6.276   4.384  0.9311 -1.9197 -1.1371
  143MOL    H1717341   0.959   6.147   4.499  2.5692  0.1721 -1.5927
  143MOL    H1817342   0.813   6.029   4.325  2.0438 -1.7587 -0.2076
  143MOL    H1917343   0.813   6.181   4.229 -2.7942 -0.2277  2.2030
  143MOL    C2017344   0.984   6.057   4.216 -0.2743  0.2715  0.5563
  143MOL    C2117345   0.940   6.001   4.084  0.6362  0.0576 -0.1093
  143MOL    H2217346   1.061   6.134   4.212  0.4965 -0.5362 -0.4009
  143MOL    H2317347   1.031   5.976   4.272 -0.0754 -0.2324 -0.3288
  143MOL    H2417348   0.877   5.913   4.099  0.3789  0.3949  0.8150
  143MOL    H2517349   0.875   6.069   4.028  1.3644 -0.1249 -1.1922
  143MOL    C2617350   1.066   5.964   4.002 -0.0486  0.1843  0.4926
  143MOL    C2717351   1.039   5.924   3.855  0.1971  1.1359  0.2867
  143MOL    H2817352   1.132   6.050   4.010  0.8147 -0.2529 -1.5905
  143MOL    H2917353   1.114   5.880   4.052 -1.0189 -1.7195 -1.7010
  143MOL    H3017354   1.035   6.011   3.790  0.4859  0.2385 -0.9636
  143MOL    H3117355   1.120   5.858   3.823 -1.1960  0.3570 -1.7543
  143MOL    C3217356   0.909   5.857   3.820 -0.4714 -0.3094  0.0786
  143MOL    C3317357   0.891   5.848   3.673 -0.5313 -0.0386  0.2307
  143MOL    H3417358   0.913   5.757   3.863  0.6045 -1.1695 -1.9572
  143MOL    H3517359   0.826   5.909   3.868  0.8459  0.8277  1.1743
  143MOL    H3617360   0.911   5.946   3.631  3.7678 -1.9148 -2.4499
  143MOL    H3717361   0.977   5.788   3.641  0.8045  1.2042  1.3788
  143MOL    C3817362   0.753   5.793   3.618  0.0110 -0.9933  0.7040
  143MOL    C3917363   0.739   5.648   3.643  0.5666 -0.3517 -0.2175
  143MOL    H4017364   0.670   5.841   3.671 -0.2436 -0.2679 -0.3394
  143MOL    H4117365   0.744   5.818   3.512 -0.0087 -1.6757  0.5455
  143MOL    H4217366   0.827   5.598   3.603 -0.3191 -0.0384 -2.6495
  143MOL    H4317367   0.751   5.630   3.749  2.5716 -1.8448 -0.6595
  143MOL    C4417368   0.606   5.582   3.578 -0.6373 -0.0314 -0.2804
  143MOL    C4517369   0.471   5.633   3.634 -0.7494  0.0455 -0.0751
  143MOL    H4617370   0.600   5.611   3.474 -1.4639  1.0428  0.0594
  143MOL    H4717371   0.604   5.473   3.570 -0.8340  0.0141 -0.8701
  143MOL    H4817372   0.448   5.737   3.609 -0.8079 -0.5021 -2.4455
  143MOL    H4917373   0.388   5.575   3.595 -0.6259  0.0288 -0.3178
  143MOL    C5017374   0.466   5.622   3.788  0.6805 -0.3303 -0.1417
  143MOL    C5117375   0.356   5.704   3.855 -0.1876  0.2209 -0.2283
  143MOL    H5217376   0.452   5.521   3.828 -1.5191  0.5480  1.4278
  143MOL    H5317377   0.556   5.658   3.837 -0.1284  0.7768  0.5697
  143MOL    H5417378   0.354   5.804   3.811  0.4795  0.2850 -0.1056
  143MOL    H5517379   0.258   5.662   3.829 -0.4128 -0.2526  1.3645
  143MOL    C5617380   0.367   5.725   4.008 -0.7088 -0.3495  0.9839
  143MOL    C5717381   0.262   5.812   4.065  0.1907 -0.2334 -0.7019
  143MOL    H5817382   0.379   5.623   4.046 -0.8011 -0.7469 -0.0434
  143MOL    H5917383   0.466   5.768   4.025 -0.5517 -0.5306  0.5427
  143MOL    H6017384   0.298   5.847   4.162 -0.7183 -1.1531 -0.0161
  143MOL    H6117385   0.238   5.902   4.008 -1.1087  0.0182  0.2032
  143MOL    C6217386   0.135   5.734   4.090  0.0670 -0.4141 -0.0854
  143MOL    C6317387   0.016   5.827   4.146  0.9004 -0.0245  0.3772
  143MOL    H6417388   0.103   5.699   3.992 -2.2432 -0.0387  0.4838
  143MOL    H6517389   0.150   5.648   4.155 -0.0251 -0.3613  0.0045
  143MOL    H6617390   0.005   5.822   4.255 -1.1568 -2.4219  0.1088
  143MOL    H6717391   0.036   5.932   4.126  0.2277 -0.1861 -1.1709
  143MOL    C6817392   7.565   5.797   4.096 -0.9039  0.0637  0.4903
  143MOL    C6917393   7.453   5.896   4.144 -0.0429 -0.1470  0.1277
  143MOL    H7017394   7.553   5.778   3.989  1.2308  0.5757  0.1331
  143MOL    H7117395   7.542   5.701   4.142 -0.1826 -0.3817 -0.0580
  143MOL    H7217396   7.472   5.899   4.252  2.4541 -2.1642 -0.2123
  143MOL    H7317397   7.466   5.997   4.106  1.7281  0.1919  1.5846
  143MOL    C7417398   7.310   5.844   4.104  0.0503 -0.5352 -0.6353
  143MOL    C7517399   7.201   5.929   4.175  0.4202 -0.1830 -0.2753
  143MOL    H7617400   7.282   5.867   4.001  0.4197 -0.4970 -0.7288
  143MOL    H7717401   7.295   5.738   4.121  1.1113 -0.6274 -0.2251
  143MOL    H7817402   7.206   5.909   4.282 -2.5900 -0.6719 -0.1785
  143MOL    H7917403   7.219   6.033   4.146 -1.0911  0.5057  1.2142
  143MOL    C8017404   7.066   5.880   4.131 -0.6631 -0.1012  0.2895
  143MOL    C8117405   7.014   5.745   4.192 -0.2047 -0.4879 -0.4383
  143MOL    H8217406   6.987   5.953   4.148 -0.6420 -0.0465  0.1538
  143MOL    H8317407   7.057   5.883   4.022  4.1026 -1.7779 -0.3033
  143MOL    H8417408   7.086   5.665   4.178  0.8890  0.1421  1.4321
  143MOL    H8517409   7.003   5.775   4.296 -3.9161  0.2127 -0.9568
  143MOL    C8617410   6.877   5.700   4.122 -0.2089  0.1559  0.1550
  143MOL    C8717411   6.783   5.631   4.230  0.1857 -0.1180  0.2376
  143MOL    H8817412   6.822   5.790   4.095  0.7359  0.7451  0.2068
  143MOL    H8917413   6.889   5.643   4.030 -0.4908  0.3381  0.0056
  143MOL    H9017414   6.811   5.527   4.247  0.4041  0.0005  0.6041
  143MOL    H9117415   6.775   5.682   4.326 -2.9050 -2.0757  1.1036
  143MOL    C9217416   6.647   5.630   4.166 -0.1937  0.1072  0.6206
  143MOL    C9317417   6.542   5.536   4.223 -0.1223 -0.1955 -0.0719
  143MOL    H9417418   6.606   5.730   4.171  0.7331  0.5739 -0.7802
  143MOL    H9517419   6.649   5.604   4.060  0.8293  0.3463  0.5735
  143MOL    H9617420   6.475   5.500   4.145 -0.7115  1.2887 -0.2616
  143MOL    H9717421   6.587   5.441   4.251 -1.9054 -0.1241  3.2249
  143MOL    C9817422   6.478   5.599   4.346 -0.4828 -0.0561 -1.0302
  143MOL    C9917423   6.361   5.520   4.412  0.5990  0.5844 -0.0724
  143MOL   H10017424   6.564   5.605   4.412 -0.7206  0.5800 -0.7728
  143MOL   H10117425   6.443   5.700   4.325  0.9503  0.8750  0.9053
  143MOL   H10217426   6.399   5.445   4.482 -0.2996 -0.3898 -0.6292
  143MOL   H10317427   6.318   5.593   4.481  2.6525  0.2672  1.6054
  143MOL   C10417428   6.244   5.473   4.317  0.3505 -0.2647  0.0018
  143MOL   C10517429   6.178   5.580   4.228  0.3155  0.3791 -0.4795
  143MOL   H10617430   6.282   5.388   4.260  0.3498  0.6794 -1.4462
  143MOL   H10717431   6.163   5.431   4.377  0.2267  0.2096  0.1706
  143MOL   H10817432   6.254   5.632   4.171  0.4068 -0.4804 -1.1579
  143MOL   H10917433   6.106   5.538   4.157  1.5612 -1.9584 -0.4046
  143MOL   C11017434   6.088   5.673   4.306  0.5341 -0.6290  0.0903
  143MOL   C11117435   5.970   5.719   4.224 -0.1674 -0.7960 -0.1817
  143MOL   H11217436   6.040   5.622   4.390  0.4574 -1.2878 -0.3514
  143MOL   H11317437   6.146   5.753   4.353 -0.3993  0.9232 -1.3371
  143MOL   H11417438   6.008   5.777   4.140 -0.9048 -0.1201 -0.0563
  143MOL   H11517439   5.920   5.628   4.190 -0.7296 -0.1805 -1.0167
  143MOL   C11617440   5.869   5.798   4.310 -0.6223  0.2852  0.4618
  143MOL   C11717441   5.758   5.871   4.236 -0.3788 -0.2047 -0.0784
  143MOL   H11817442   5.815   5.722   4.367  0.0385 -0.4299  0.1384
  143MOL   H11917443   5.927   5.872   4.365  0.1653 -0.3844  0.5368
  143MOL   H12017444   5.802   5.953   4.180 -1.0936 -0.1114 -0.5112
  143MOL   H12117445   5.702   5.804   4.171 -0.9714 -0.6085  0.8274
  143MOL   H12217446   5.686   5.912   4.307  0.0246  0.0769  0.1696
  144MOL     C117447   0.885   2.572   2.362 -0.4473  0.3768  0.5188
  144MOL     C217448   0.947   2.436   2.313 -0.1969  0.4132  0.4176
  144MOL     H317449   0.830   2.622   2.282 -0.4598 -2.1091 -1.0949
  144MOL     H417450   0.962   2.641   2.396  1.5556 -2.0260  1.0366
  144MOL     H517451   0.990   2.389   2.402  1.9992  0.9465 -0.3212
  144MOL     H617452   0.873   2.367   2.274  0.8062 -0.6650  0.4143
  144MOL     H717453   0.802   2.561   2.432 -0.4057 -0.7153  0.4134
  144MOL     C817454   1.056   2.463   2.212  0.7725 -0.3717  0.0604
  144MOL     C917455   1.155   2.343   2.213  0.0075  0.2869  0.5688
  144MOL    H1017456   1.013   2.492   2.116 -0.3443 -0.3593  0.5487
  144MOL    H1117457   1.097   2.559   2.243 -0.2554  0.4957 -1.2193
  144MOL    H1217458   1.190   2.326   2.315  3.8267  0.5320 -0.6327
  144MOL    H1317459   1.099   2.253   2.188 -1.0448  0.4432  2.2277
  144MOL    C1417460   1.277   2.354   2.121 -0.4339  0.4042  0.9252
  144MOL    C1517461   1.388   2.438   2.178  0.3036  0.3586  0.6387
  144MOL    H1617462   1.300   2.251   2.097 -1.6894 -0.0138  1.4761
  144MOL    H1717463   1.253   2.403   2.026 -0.4548 -0.4189  0.5057
  144MOL    H1817464   1.358   2.543   2.182  2.9484  1.2027 -1.1828
  144MOL    H1917465   1.404   2.391   2.275 -0.1565  0.2427  0.6608
  144MOL    C2017466   1.520   2.422   2.096 -0.2744 -0.8776 -0.0240
  144MOL    C2117467   1.634   2.493   2.174  0.1982  0.4690  0.0540
  144MOL    H2217468   1.539   2.317   2.072  1.8880 -0.6080  0.4687
  144MOL    H2317469   1.505   2.469   1.999  1.7692  0.7013  0.4031
  144MOL    H2417470   1.627   2.601   2.187  1.2964  0.3647  1.7694
  144MOL    H2517471   1.639   2.446   2.273  0.7791 -2.4402 -1.3155
  144MOL    C2617472   1.758   2.457   2.098 -0.5739  0.4912 -0.7247
  144MOL    C2717473   1.886   2.522   2.161 -0.1009  0.2615  0.0386
  144MOL    H2817474   1.780   2.352   2.114  0.3675  0.7758 -0.0400
  144MOL    H2917475   1.761   2.470   1.990 -1.2302  1.8872 -0.5970
  144MOL    H3017476   1.883   2.631   2.163 -1.6374  0.3126 -2.5016
  144MOL    H3117477   1.899   2.488   2.264  1.4498  0.5619 -0.0534
  144MOL    C3217478   2.014   2.481   2.078  0.4035  0.2529 -0.6235
  144MOL    C3317479   2.143   2.527   2.137  0.6037 -0.3025  0.6375
  144MOL    H3417480   2.019   2.372   2.077  0.7569  0.2388  1.7333
  144MOL    H3517481   2.005   2.514   1.974  0.6526 -0.4881 -0.8831
  144MOL    H3617482   2.140   2.630   2.174 -0.8875  0.8146 -2.4254
  144MOL    H3717483   2.155   2.470   2.229 -0.3508  0.4811  1.2550
  144MOL    C3817484   2.251   2.518   2.025 -0.0748 -0.1380  0.5664
  144MOL    C3917485   2.401   2.546   2.073 -0.7900  0.7094  0.5734
  144MOL    H4017486   2.265   2.418   1.986 -0.2412 -0.6789  1.8539
  144MOL    H4117487   2.223   2.584   1.943 -1.3210  0.6322  1.5853
  144MOL    H4217488   2.410   2.647   2.113 -0.3303  0.5960  0.7632
  144MOL    H4317489   2.421   2.484   2.161  2.1006 -0.3623 -0.7741
  144MOL    C4417490   2.510   2.523   1.968  0.1332  0.0243 -0.0374
  144MOL    C4517491   2.652   2.546   2.014 -0.0929 -0.7209  0.0258
  144MOL    H4617492   2.490   2.420   1.937 -0.4454  0.4362 -1.0598
  144MOL    H4717493   2.496   2.594   1.886  1.8082 -0.4912 -0.8059
  144MOL    H4817494   2.671   2.644   2.058  1.0925 -0.9677  0.0864
  144MOL    H4917495   2.671   2.480   2.098 -0.6369 -0.3023  0.4810
  144MOL    C5017496   2.760   2.526   1.906  0.0530  0.1718  0.5818
  144MOL    C5117497   2.901   2.541   1.961 -0.5870 -0.0184 -0.4297
  144MOL    H5217498   2.754   2.423   1.870  0.8687  0.0309  0.8497
  144MOL    H5317499   2.748   2.583   1.814  1.2693 -0.3003  0.1243
  144MOL    H5417500   2.911   2.635   2.015 -1.0018  1.1724 -2.3407
  144MOL    H5517501   2.918   2.466   2.038  0.8116 -1.0854 -1.7541
  144MOL    C5617502   3.009   2.547   1.848 -0.1539  0.7212 -0.3161
  144MOL    C5717503   3.148   2.593   1.892  0.3700  0.0562 -0.4107
  144MOL    H5817504   3.014   2.440   1.825 -1.0967  0.4443  0.7295
  144MOL    H5917505   2.962   2.591   1.761 -0.4741 -1.6868 -1.4108
  144MOL    H6017506   3.143   2.688   1.944  0.0619  0.5615 -1.3665
  144MOL    H6117507   3.189   2.528   1.970 -0.6754  1.7096  1.5508
  144MOL    C6217508   3.240   2.597   1.777  0.1940 -0.1336 -0.4073
  144MOL    C6317509   3.385   2.630   1.824 -0.8053  0.5332 -0.3543
  144MOL    H6417510   3.250   2.495   1.742 -1.2307 -0.9996  1.6013
  144MOL    H6517511   3.203   2.660   1.696 -1.6605  0.6897  1.0231
  144MOL    H6617512   3.394   2.737   1.839 -0.6757  0.4317  0.3307
  144MOL    H6717513   3.408   2.574   1.915 -1.9188 -1.8802 -1.5068
  144MOL    C6817514   3.500   2.588   1.723  0.2266  0.6567 -0.2138
  144MOL    C6917515   3.631   2.665   1.736 -0.0637 -0.1114 -0.1725
  144MOL    H7017516   3.514   2.480   1.720  1.1603  0.7677  0.1666
  144MOL    H7117517   3.458   2.612   1.625  1.6835 -0.5696 -1.1586
  144MOL    H7217518   3.609   2.771   1.736 -0.8462 -0.2618  0.4017
  144MOL    H7317519   3.670   2.646   1.836 -0.1742 -1.6599 -0.4030
  144MOL    C7417520   3.729   2.624   1.628 -0.4263 -0.4292 -0.2834
  144MOL    C7517521   3.874   2.677   1.656 -0.4089  0.3564  0.0931
  144MOL    H7617522   3.736   2.516   1.637 -0.3135 -0.3723  0.3957
  144MOL    H7717523   3.694   2.650   1.528  0.8619  1.1637 -0.3475
  144MOL    H7817524   3.858   2.784   1.662 -0.8264  0.3272 -0.4868
  144MOL    H7917525   3.921   2.654   1.751 -0.6358  2.6963  0.8033
  144MOL    C8017526   3.967   2.637   1.537 -0.2386 -0.0540  0.1884
  144MOL    C8117527   4.080   2.742   1.511 -0.1963 -0.4710  0.0972
  144MOL    H8217528   4.002   2.534   1.539 -0.4437 -0.1542 -0.8497
  144MOL    H8317529   3.896   2.636   1.454  1.0818 -0.2239 -0.9562
  144MOL    H8417530   4.049   2.844   1.489 -1.1457 -0.5675  0.9484
  144MOL    H8517531   4.125   2.751   1.609 -1.2416  1.1829  0.4514
  144MOL    C8617532   4.183   2.685   1.416 -0.3631  0.5153  0.3010
  144MOL    C8717533   4.126   2.631   1.284 -0.0519 -1.3119 -0.0650
  144MOL    H8817534   4.261   2.758   1.397 -1.2815  1.0876 -1.4092
  144MOL    H8917535   4.230   2.603   1.471 -0.7043 -0.6444 -1.1120
  144MOL    H9017536   4.216   2.601   1.231  0.8901 -1.6139  1.6664
  144MOL    H9117537   4.065   2.543   1.304  3.5577 -3.3092  2.7558
  144MOL    C9217538   4.060   2.747   1.198 -1.1934  0.3341 -0.9019
  144MOL    C9317539   4.030   2.717   1.055 -0.2415  0.1934 -0.2369
  144MOL    H9417540   3.973   2.780   1.254 -0.7880  1.1952 -0.7643
  144MOL    H9517541   4.124   2.836   1.201 -1.1733  0.3140 -0.6744
  144MOL    H9617542   4.110   2.688   0.987 -0.5948  1.7172 -1.3306
  144MOL    H9717543   3.967   2.628   1.051  1.0889 -0.7793  0.2178
  144MOL    C9817544   3.963   2.833   0.981 -0.5016  0.2370  0.2277
  144MOL    C9917545   3.920   2.786   0.841  0.5130  0.2120 -0.6900
  144MOL   H10017546   3.873   2.871   1.030  0.6763  1.5710  1.4036
  144MOL   H10117547   4.026   2.921   0.972 -2.9479  1.8824 -1.6526
  144MOL   H10217548   4.011   2.765   0.785  1.2574 -0.0658  0.6192
  144MOL   H10317549   3.857   2.697   0.843  1.0307 -0.1430 -0.0241
  144MOL   C10417550   3.847   2.898   0.759  0.2724 -0.0128 -0.4854
  144MOL   C10517551   3.779   2.841   0.633 -0.1370 -0.1468 -0.4352
  144MOL   H10617552   3.779   2.967   0.809 -0.3705  0.0107 -1.3771
  144MOL   H10717553   3.923   2.968   0.725  1.9965 -1.2991  0.6267
  144MOL   H10817554   3.834   2.766   0.576  0.6213  0.6626 -0.7906
  144MOL   H10917555   3.690   2.784   0.656 -1.8902  2.5210 -0.3467
  144MOL   C11017556   3.733   2.948   0.534  0.2768  0.2324  0.2779
  144MOL   C11117557   3.672   2.890   0.411 -0.0532 -0.3811  0.0644
  144MOL   H11217558   3.664   3.025   0.569 -1.5866  0.3537 -3.3619
  144MOL   H11317559   3.813   3.016   0.505  1.2367 -0.7791  0.5192
  144MOL   H11417560   3.743   2.822   0.363 -0.2660 -1.3465  1.1043
  144MOL   H11517561   3.587   2.829   0.439 -0.3754  0.8082  1.7669
  144MOL   C11617562   3.617   2.984   0.311 -0.7047 -0.1327  0.4414
  144MOL   C11717563   3.587   2.900   0.183  0.2436  0.8787 -0.1148
  144MOL   H11817564   3.536   3.047   0.347 -0.0879  1.5825 -1.0509
  144MOL   H11917565   3.699   3.052   0.286  1.0590 -2.5196 -0.4304
  144MOL   H12017566   3.676   2.847   0.152  0.3109  1.5514 -1.0749
  144MOL   H12117567   3.501   2.833   0.194  0.1872  0.7915 -1.0953
  144MOL   H12217568   3.550   2.970   0.108 -0.0027 -0.1419 -0.9503
  145MOL     C117569   1.791   1.184   4.767  0.9007 -0.6623 -0.1550
  145MOL     C217570   1.713   1.069   4.835  0.5215 -0.1823  1.0509
  145MOL     H317571   1.861   1.232   4.836 -0.6544  3.3818 -1.2274
  145MOL     H417572   1.735   1.264   4.719  0.7707 -0.0584  0.9788
  145MOL     H517573   1.645   1.019   4.766  2.5042  0.2865 -1.2850
  145MOL     H617574   1.785   0.998   4.877 -0.3262 -1.0714  1.0184
  145MOL     H717575   1.851   1.142   4.686  0.5661  2.4388 -2.1000
  145MOL     C817576   1.616   1.122   4.946  0.1589 -0.0815  0.0679
  145MOL     C917577   1.528   1.013   5.005 -0.2307 -0.3864  0.7300
  145MOL    H1017578   1.680   1.162   5.025  0.9038  0.8255 -0.9870
  145MOL    H1117579   1.551   1.201   4.909  0.7071  0.0389 -0.6378
  145MOL    H1217580   1.481   0.956   4.926 -0.4551  2.0394 -0.9604
  145MOL    H1317581   1.590   0.937   5.052  1.3949  2.1831  2.8957
  145MOL    C1417582   1.423   1.060   5.095  0.0210 -0.1363 -0.1580
  145MOL    C1517583   1.325   0.952   5.135 -0.0317 -0.3355  0.6946
  145MOL    H1617584   1.469   1.123   5.172 -0.6795  0.8382 -0.5156
  145MOL    H1717585   1.367   1.127   5.029  2.1002  0.6872 -1.1306
  145MOL    H1817586   1.302   0.868   5.070  1.3180 -0.2848  0.1589
  145MOL    H1917587   1.374   0.894   5.213  1.5207  1.2632  0.9420
  145MOL    C2017588   1.187   0.997   5.178  0.0119  0.0655  0.6591
  145MOL    C2117589   1.095   0.887   5.231 -0.5045  0.1523 -0.3509
  145MOL    H2217590   1.202   1.079   5.249  2.3834  1.7414 -1.6685
  145MOL    H2317591   1.140   1.033   5.086  0.8124 -1.7470 -0.4899
  145MOL    H2417592   0.993   0.924   5.220  0.1625  1.4469 -2.6311
  145MOL    H2517593   1.105   0.805   5.160 -3.0262 -0.3549 -0.1612
  145MOL    C2617594   1.132   0.843   5.370 -0.3857 -0.7181  0.2526
  145MOL    C2717595   1.022   0.757   5.428  0.0777 -0.3965 -0.0573
  145MOL    H2817596   1.233   0.804   5.360  0.3266  1.2491 -0.6718
  145MOL    H2917597   1.144   0.933   5.430 -1.3404 -0.8074  0.5870
  145MOL    H3017598   0.932   0.816   5.446  1.1463  1.0774  0.6518
  145MOL    H3117599   1.008   0.682   5.351  1.1766  0.3205 -0.9824
  145MOL    C3217600   1.077   0.678   5.557  0.5583  0.9888 -1.0054
  145MOL    C3317601   1.135   0.765   5.661  0.6245 -0.2428 -0.4392
  145MOL    H3417602   1.002   0.624   5.614  1.1897  1.0131 -0.1347
  145MOL    H3517603   1.161   0.619   5.518 -0.2718 -1.3747  0.6599
  145MOL    H3617604   1.213   0.826   5.615 -0.3008  1.1356 -0.2006
  145MOL    H3717605   1.054   0.825   5.701  0.6787 -1.5509  1.7175
  145MOL    C3817606   1.178   0.685   5.785 -0.2895 -0.4594 -0.1493
  145MOL    C3917607   1.253   0.769   5.886 -0.0904 -0.4194  0.4556
  145MOL    H4017608   1.090   0.640   5.833 -0.6842 -1.1913 -1.5298
  145MOL    H4117609   1.236   0.597   5.756  1.8633  1.4765 -1.8102
  145MOL    H4217610   1.343   0.810   5.839 -1.2411 -2.1052 -3.4288
  145MOL    H4317611   1.198   0.856   5.923 -1.5690 -1.2056  0.1249
  145MOL    C4417612   1.306   0.693   6.014  0.3527 -0.4723  0.0315
  145MOL    C4517613   1.383   0.796   6.110  0.1619  0.2105 -0.5118
  145MOL    H4617614   1.227   0.644   6.070 -0.1462  0.6616  0.3407
  145MOL    H4717615   1.384   0.629   5.972  0.2908 -2.7159  3.1827
  145MOL    H4817616   1.444   0.739   6.181 -0.7668 -0.1347  0.0251
  145MOL    H4917617   1.445   0.859   6.047  2.8539 -1.1014  0.7374
  145MOL    C5017618   1.293   0.880   6.201 -0.7137  0.1587  0.2552
  145MOL    C5117619   1.369   0.976   6.302  0.5287  0.3295 -0.5408
  145MOL    H5217620   1.242   0.955   6.141  0.9323 -0.4211 -1.9227
  145MOL    H5317621   1.214   0.820   6.247 -0.6984 -0.7455 -0.8721
  145MOL    H5417622   1.294   1.011   6.373  1.0553  0.2915  0.0397
  145MOL    H5517623   1.451   0.921   6.350  0.0952  1.3248  1.3668
  145MOL    C5617624   1.427   1.100   6.234  0.2713 -0.1183 -0.7102
  145MOL    C5717625   1.492   1.192   6.346  0.6987  0.1968  0.0472
  145MOL    H5817626   1.505   1.072   6.163  1.0055  1.8074 -0.6738
  145MOL    H5917627   1.355   1.154   6.173 -0.4958  1.0400  1.1973
  145MOL    H6017628   1.408   1.224   6.407  1.4671 -0.5754  1.5452
  145MOL    H6117629   1.564   1.132   6.403  0.3410 -0.3727 -0.0975
  145MOL    C6217630   1.578   1.296   6.279  0.0664  0.0889  0.0940
  145MOL    C6317631   1.679   1.368   6.368 -0.1536 -0.4515 -0.1756
  145MOL    H6417632   1.633   1.239   6.204 -1.2591  0.3586 -1.0815
  145MOL    H6517633   1.508   1.361   6.227  0.9748  0.7644 -0.2937
  145MOL    H6617634   1.620   1.416   6.445  0.1388 -0.0705 -0.1856
  145MOL    H6717635   1.746   1.303   6.423 -0.1760  0.3194  0.7661
  145MOL    C6817636   1.761   1.475   6.306 -0.6362  0.0803 -0.4928
  145MOL    C6917637   1.876   1.437   6.209  0.6409 -0.3757 -0.5396
  145MOL    H7017638   1.688   1.548   6.271 -0.6158 -0.0992 -0.8995
  145MOL    H7117639   1.809   1.524   6.391  0.3091  0.0577 -1.0108
  145MOL    H7217640   1.942   1.361   6.251 -1.0884 -0.9833  1.1116
  145MOL    H7317641   1.824   1.405   6.119  0.4893  1.5533 -1.1579
  145MOL    C7417642   1.955   1.565   6.163  0.9305 -0.6755  0.6357
  145MOL    C7517643   2.063   1.530   6.058 -0.7984  0.9210  0.2747
  145MOL    H7617644   1.898   1.647   6.119  1.1413 -1.3925 -0.9931
  145MOL    H7717645   2.010   1.605   6.248  0.9796 -1.3179  0.9060
  145MOL    H7817646   2.143   1.492   6.121 -1.1343  0.9378  0.7157
  145MOL    H7917647   2.026   1.464   5.979  0.0214 -0.5384  1.0941
  145MOL    C8017648   2.119   1.663   5.990  0.3290  0.4374 -0.3180
  145MOL    C8117649   2.240   1.629   5.897  0.0948 -0.4618 -0.3133
  145MOL    H8217650   2.038   1.713   5.936 -0.1596 -0.5245 -0.5022
  145MOL    H8317651   2.151   1.735   6.064 -0.9414 -0.8731  1.5504
  145MOL    H8417652   2.327   1.594   5.953 -0.2824  0.2504  0.7161
  145MOL    H8517653   2.213   1.557   5.819  0.6446  0.9066 -1.7957
  145MOL    C8617654   2.279   1.758   5.831  0.8427  0.5020 -0.3117
  145MOL    C8717655   2.393   1.747   5.726 -0.4318 -0.0973  0.3494
  145MOL    H8817656   2.190   1.793   5.778 -0.1000 -1.7604 -0.2934
  145MOL    H8917657   2.303   1.828   5.910  0.4330 -1.7466  1.8799
  145MOL    H9017658   2.485   1.707   5.769 -0.5051  0.9564  1.5353
  145MOL    H9117659   2.373   1.683   5.640  1.7623 -0.1908 -0.1346
  145MOL    C9217660   2.449   1.890   5.682 -0.6845  0.3068 -0.5895
  145MOL    C9317661   2.582   1.880   5.607  0.6667 -0.4831 -0.5952
  145MOL    H9417662   2.380   1.951   5.623  0.2051  1.2635 -0.6463
  145MOL    H9517663   2.475   1.959   5.762  2.0038 -0.4737 -0.7306
  145MOL    H9617664   2.653   1.831   5.674 -0.4472  0.8287  1.6416
  145MOL    H9717665   2.576   1.822   5.516  0.4919  0.2952 -1.0852
  145MOL    C9817666   2.638   2.033   5.580  0.3561  0.0391  0.2638
  145MOL    C9917667   2.786   2.031   5.546 -0.2935 -0.3634  1.3033
  145MOL   H10017668   2.575   2.081   5.506  1.9117 -0.6664 -1.5680
  145MOL   H10117669   2.637   2.080   5.678  2.2792 -0.7649  0.6889
  145MOL   H10217670   2.838   1.963   5.614 -0.6697 -3.1137 -1.0668
  145MOL   H10317671   2.796   1.998   5.443 -1.7246  1.5090  0.5478
  145MOL   C10417672   2.848   2.171   5.547  0.0136  0.0013 -0.6779
  145MOL   C10517673   2.961   2.198   5.448  0.2744 -0.4829  0.1776
  145MOL   H10617674   2.770   2.248   5.545 -1.6103 -1.5932 -0.0259
  145MOL   H10717675   2.890   2.203   5.642  0.2404  0.1226 -0.8190
  145MOL   H10817676   3.025   2.111   5.433  1.6856  0.4890  0.4742
  145MOL   H10917677   2.911   2.216   5.353 -1.5905 -2.5842  0.7103
  145MOL   C11017678   3.058   2.323   5.477 -0.6119  0.0074 -0.6083
  145MOL   C11117679   3.141   2.348   5.349  0.1432  0.1983  0.0048
  145MOL   H11217680   2.984   2.401   5.496 -0.6071 -0.0104 -0.5186
  145MOL   H11317681   3.123   2.315   5.564  0.6033 -0.4560 -1.5262
  145MOL   H11417682   3.201   2.261   5.326 -0.2598  0.0818 -0.6119
  145MOL   H11517683   3.081   2.364   5.260  2.3831 -1.8538 -1.9274
  145MOL   C11617684   3.234   2.475   5.362 -1.0685 -0.6282  0.5861
  145MOL   C11717685   3.314   2.497   5.241 -0.6693  0.2948  0.3942
  145MOL   H11817686   3.183   2.562   5.402 -3.4680 -0.8164 -1.9266
  145MOL   H11917687   3.306   2.453   5.440 -0.3727 -2.0907 -0.4398
  145MOL   H12017688   3.389   2.418   5.231 -1.4050 -0.2521 -0.9067
  145MOL   H12117689   3.253   2.497   5.151  0.7903 -0.3766 -0.6182
  145MOL   H12217690   3.359   2.596   5.243 -1.0516  0.5082 -1.2802
  146MOL     C117691   5.407   4.597   0.756 -0.1729 -0.0164 -1.0246
  146MOL     C217692   5.442   4.627   0.611  0.6562  0.0748 -0.5158
  146MOL     H317693   5.488   4.623   0.824 -0.7041  1.4448 -0.9341
  146MOL     H417694   5.386   4.491   0.769 -0.9492  0.0738 -1.5327
  146MOL     H517695   5.498   4.543   0.570 -0.6215  0.0325 -2.2597
  146MOL     H617696   5.353   4.612   0.550  0.8189  0.2158 -0.7931
  146MOL     H717697   5.315   4.649   0.785  0.2358 -0.1819  0.6093
  146MOL     C817698   5.519   4.756   0.582  0.0871  0.5825 -0.5587
  146MOL     C917699   5.417   4.870   0.591  0.2974 -0.5096 -0.0275
  146MOL    H1017700   5.607   4.766   0.645  0.7536 -1.8650 -1.0710
  146MOL    H1117701   5.557   4.747   0.480 -0.0034 -1.6066 -0.4147
  146MOL    H1217702   5.327   4.836   0.541  0.5191 -1.8807  0.4991
  146MOL    H1317703   5.380   4.893   0.691 -0.5167  0.5506 -0.5689
  146MOL    C1417704   5.447   5.005   0.521 -0.7328  0.1639  0.1495
  146MOL    C1517705   5.341   5.110   0.552 -0.9719 -0.2113 -0.6063
  146MOL    H1617706   5.542   5.040   0.561  0.1632 -1.6848 -0.2600
  146MOL    H1717707   5.453   4.992   0.413  1.5179  0.9973  0.1444
  146MOL    H1817708   5.244   5.062   0.562 -1.8959  2.1100  2.4632
  146MOL    H1917709   5.341   5.138   0.657 -2.7187 -1.1862 -0.3175
  146MOL    C2017710   5.331   5.238   0.461 -0.0261  0.2385 -0.1463
  146MOL    C2117711   5.210   5.326   0.492  0.5725  0.6997 -0.3901
  146MOL    H2217712   5.425   5.293   0.477 -1.0393  1.9136  0.1703
  146MOL    H2317713   5.329   5.203   0.358 -1.7659 -0.0173 -0.0256
  146MOL    H2417714   5.127   5.255   0.486  1.6633 -0.5616 -1.0536
  146MOL    H2517715   5.220   5.357   0.596  0.7407 -1.1664  0.1794
  146MOL    C2617716   5.193   5.442   0.388  0.5980 -0.5710 -0.0090
  146MOL    C2717717   5.074   5.531   0.413 -0.2586 -0.1867  0.2075
  146MOL    H2817718   5.285   5.498   0.382  0.2950  0.3763  3.2833
  146MOL    H2917719   5.179   5.386   0.296 -3.1931 -1.8124  1.2150
  146MOL    H3017720   4.990   5.462   0.420 -0.6060  0.1487 -0.5240
  146MOL    H3117721   5.073   5.594   0.502  0.3948  2.2456 -1.4583
  146MOL    C3217722   5.048   5.614   0.287  0.4701 -0.1990  0.1854
  146MOL    C3317723   4.915   5.697   0.299  0.0418 -0.2551  0.3900
  146MOL    H3417724   5.136   5.675   0.264  3.0288 -2.7280  2.8341
  146MOL    H3517725   5.033   5.551   0.200 -0.2832  1.4387 -0.8991
  146MOL    H3617726   4.832   5.629   0.318  1.5469 -2.4057 -0.4945
  146MOL    H3717727   4.920   5.760   0.387 -0.0008  1.8619 -1.0936
  146MOL    C3817728   4.877   5.777   0.165 -0.4001  0.1352  0.3628
  146MOL    C3917729   4.739   5.852   0.173 -0.2489 -0.0105 -0.0049
  146MOL    H4017730   4.955   5.852   0.157  0.4170 -0.6938  0.5194
  146MOL    H4117731   4.888   5.714   0.077  1.5091 -0.2993  0.8936
  146MOL    H4217732   4.656   5.782   0.174  0.5302 -0.9561  1.6371
  146MOL    H4317733   4.728   5.907   0.266  0.0406  1.7207 -0.9660
  146MOL    C4417734   4.725   5.945   0.051 -0.1573 -0.5422  0.5151
  146MOL    C4517735   4.654   6.074   0.078  0.0404 -0.8472 -0.1721
  146MOL    H4617736   4.816   5.960   7.685 -0.2665  0.1856  0.5320
  146MOL    H4717737   4.666   5.891   7.669  1.3922 -1.5244 -0.0262
  146MOL    H4817738   4.553   6.063   0.116 -0.6770  2.1424 -1.0372
  146MOL    H4917739   4.714   6.132   0.148 -1.3272 -0.4178  0.6503
  146MOL    C5017740   4.645   6.169   7.649 -0.2170  0.2109  0.1189
  146MOL    C5117741   4.566   6.296   7.679  0.4700 -0.4979 -0.3124
  146MOL    H5217742   4.747   6.190   7.616 -0.0771 -0.9933 -0.2442
  146MOL    H5317743   4.598   6.116   7.567  1.5543 -2.6472  0.8531
  146MOL    H5417744   4.468   6.272   0.026 -0.1987 -0.0426 -1.6575
  146MOL    H5517745   4.621   6.347   0.066 -0.4039 -0.8364  0.5118
  146MOL    C5617746   4.566   6.391   7.564 -0.4448 -0.1566  0.3715
  146MOL    C5717747   4.475   6.515   7.590 -0.0091  0.2510  0.3645
  146MOL    H5817748   4.666   6.433   7.552 -0.7561  0.4042 -0.2857
  146MOL    H5917749   4.531   6.343   7.472 -1.4598  1.3072 -0.0309
  146MOL    H6017750   4.375   6.494   7.627 -0.6133 -1.0824 -1.8901
  146MOL    H6117751   4.508   6.576   7.674  3.1120 -0.7267 -0.0703
  146MOL    C6217752   4.473   6.619   7.474 -0.1666 -0.1116  0.6541
  146MOL    C6317753   4.341   6.700   7.463  0.1641 -0.1232 -0.3809
  146MOL    H6417754   4.555   6.690   7.489 -1.9426  2.5261 -1.5528
  146MOL    H6517755   4.482   6.562   7.382  1.9980 -0.8737  1.3210
  146MOL    H6617756   4.254   6.638   7.442  1.1898 -1.0159 -2.1692
  146MOL    H6717757   4.337   6.745   7.562  0.8843 -0.6549 -0.1036
  146MOL    C6817758   4.354   6.806   7.349  0.0632 -0.1672 -0.2410
  146MOL    C6917759   4.236   6.905   7.342 -0.3330  0.2766  0.6632
  146MOL    H7017760   4.450   6.855   7.363 -0.0950 -0.4178  1.8783
  146MOL    H7117761   4.351   6.750   7.255  0.8111  0.1371 -0.4478
  146MOL    H7217762   4.148   6.848   7.313  1.1735 -0.9390 -1.6930
  146MOL    H7317763   4.213   6.946   7.440 -0.7790  2.3520 -0.2723
  146MOL    C7417764   4.258   7.032   7.259  0.0110 -0.3509  0.3073
  146MOL    C7517765   4.135   7.121   7.252  0.0563 -0.2949  0.1073
  146MOL    H7617766   4.346   7.083   7.295 -1.4243  1.8035  0.8490
  146MOL    H7717767   4.281   7.007   7.156 -0.3691 -3.0979  0.8480
  146MOL    H7817768   4.054   7.056   7.220  0.2720 -1.2716  1.4929
  146MOL    H7917769   4.115   7.149   7.356  0.6245  0.6499 -0.0311
  146MOL    C8017770   4.142   7.242   7.156 -0.1209  0.4121 -0.0933
  146MOL    C8117771   4.018   7.338   7.156 -0.8165 -0.1267 -0.4579
  146MOL    H8217772   4.233   7.301   7.170  0.2786  0.2601 -1.9477
  146MOL    H8317773   4.151   7.198   7.057  1.9101 -0.0481  0.2864
  146MOL    H8417774   3.925   7.283   7.153 -1.1278  0.2788  1.2330
  146MOL    H8517775   4.013   7.389   7.252 -1.6233 -0.0869 -0.5211
  146MOL    C8617776   4.024   7.443   7.046  0.1268  0.3736 -0.4899
  146MOL    C8717777   3.898   7.544   7.049 -0.1929  0.0781  0.4347
  146MOL    H8817778   4.125   7.484   7.058  0.8357 -1.9411  2.0086
  146MOL    H8917779   4.019   7.389   6.952 -0.9174 -1.1957  0.4547
  146MOL    H9017780   3.802   7.496   7.030 -0.6739  0.5883  1.5479
  146MOL    H9117781   3.888   7.570   7.154 -2.3213  2.3219 -0.2635
  146MOL    C9217782   3.917   7.665   6.956 -0.8932  0.2645 -0.1274
  146MOL    C9317783   3.796   0.067   6.967  0.3804  0.1459 -0.3770
  146MOL    H9417784   4.014   0.009   6.990 -0.9840  0.1861  0.2124
  146MOL    H9517785   3.924   7.633   6.852 -0.0772  1.0308 -0.3083
  146MOL    H9617786   3.706   0.010   6.943  1.2934 -1.3996 -0.2056
  146MOL    H9717787   3.789   0.120   7.062 -1.9773  1.4892 -1.2539
  146MOL    C9817788   3.799   0.177   6.861 -0.4240  0.2044 -0.1347
  146MOL    C9917789   3.668   0.266   6.855 -0.4447 -0.2393  0.1435
  146MOL   H10017790   3.888   0.234   6.888  0.2359 -0.8661  0.0040
  146MOL   H10117791   3.806   0.132   6.762  1.5742 -2.3380  1.1036
  146MOL   H10217792   3.603   0.203   6.794  1.0139 -1.5124 -0.1349
  146MOL   H10317793   3.624   0.268   6.955 -1.8512  0.8662 -0.4833
  146MOL   C10417794   3.691   0.405   6.795 -0.5235 -0.2985  0.0889
  146MOL   C10517795   3.566   0.487   6.814 -0.6213 -0.3257  0.4399
  146MOL   H10617796   3.769   0.462   6.845 -0.5734  1.2138 -1.5073
  146MOL   H10717797   3.730   0.392   6.694  3.0538 -2.6453  1.6577
  146MOL   H10817798   3.473   0.449   6.771 -2.1915  1.2763  2.2795
  146MOL   H10917799   3.537   0.495   6.919  0.4974  0.9129  0.6624
  146MOL   C11017800   3.571   0.623   6.749  0.3342 -0.1139  0.3484
  146MOL   C11117801   3.559   0.615   6.595 -0.1179 -1.1006 -0.3684
  146MOL   H11217802   3.484   0.681   6.777  1.6566  2.2773 -0.3334
  146MOL   H11317803   3.653   0.689   6.778 -0.7778  0.6415  1.7864
  146MOL   H11417804   3.642   0.551   6.564  0.1049 -1.0626  0.1390
  146MOL   H11517805   3.475   0.549   6.576  0.5072 -1.6674 -1.2006
  146MOL   C11617806   3.543   0.747   6.523 -0.1320 -0.8325  0.5690
  146MOL   C11717807   3.407   0.803   6.530  0.7436 -0.0509 -0.4510
  146MOL   H11817808   3.611   0.824   6.558 -1.4318  0.3317  0.5514
  146MOL   H11917809   3.564   0.716   6.421  1.5247 -2.4569  1.3477
  146MOL   H12017810   3.397   0.895   6.472  1.6073  0.5214  0.2883
  146MOL   H12117811   3.329   0.739   6.489  1.8199 -2.4022  1.0997
  146MOL   H12217812   3.375   0.837   6.629 -0.7357 -0.0200 -0.9159
  147MOL     C117813   1.597   1.290   3.280 -0.3101  0.6344 -0.0087
  147MOL     C217814   1.588   1.221   3.145  0.2676  0.4435  0.3560
  147MOL     H317815   1.506   1.348   3.297  0.5405  1.6608  1.1306
  147MOL     H417816   1.677   1.363   3.291  2.0294 -1.8844  0.3997
  147MOL     H517817   1.682   1.166   3.137  0.3344  0.1927  2.7573
  147MOL     H617818   1.509   1.147   3.143 -0.0989  0.8498 -0.6374
  147MOL     H717819   1.626   1.222   3.360  1.0944 -0.1257 -1.1397
  147MOL     C817820   1.580   1.323   3.033  0.9534  0.1339 -0.1972
  147MOL     C917821   1.570   1.263   2.893  0.3924 -0.4211  0.7233
  147MOL    H1017822   1.486   1.376   3.054  1.0871  0.9507 -1.6498
  147MOL    H1117823   1.663   1.394   3.031 -0.3395  1.8326  2.2246
  147MOL    H1217824   1.495   1.184   2.901 -1.0645  0.8055 -0.5927
  147MOL    H1317825   1.520   1.343   2.838 -2.6473 -1.8999  1.2079
  147MOL    C1417826   1.693   1.202   2.826 -0.1812  0.1634  0.3250
  147MOL    C1517827   1.690   1.171   2.675  0.5551  0.5591  0.3488
  147MOL    H1617828   1.782   1.259   2.853  0.6606 -1.9105  2.1135
  147MOL    H1717829   1.727   1.118   2.887 -1.9151 -0.9418 -0.1998
  147MOL    H1817830   1.615   1.093   2.664 -1.9745  2.9876 -0.4257
  147MOL    H1917831   1.656   1.268   2.637 -2.5973  0.0166  1.5743
  147MOL    C2017832   1.829   1.116   2.619  0.4887  0.9519  0.1676
  147MOL    C2117833   1.811   1.031   2.491 -1.0409  0.0745 -0.3824
  147MOL    H2217834   1.897   1.201   2.613  1.5051  0.2852  2.0801
  147MOL    H2317835   1.888   1.049   2.681  0.0602 -0.8450 -1.3221
  147MOL    H2417836   1.724   0.967   2.506 -1.3183  0.4219 -0.4858
  147MOL    H2517837   1.774   1.103   2.418  1.5229  2.0694  0.2077
  147MOL    C2617838   1.942   0.956   2.456 -0.3668  0.0609  0.8022
  147MOL    C2717839   1.932   0.894   2.312 -0.1420 -0.1346 -0.1338
  147MOL    H2817840   2.032   1.017   2.469  1.4259 -1.7912 -2.2530
  147MOL    H2917841   1.964   0.874   2.524 -0.4498 -0.8878 -0.2987
  147MOL    H3017842   1.848   0.824   2.316  1.2569 -1.9239 -1.0382
  147MOL    H3117843   1.913   0.974   2.241  1.6099 -0.3080 -0.8279
  147MOL    C3217844   2.056   0.808   2.277  0.0343 -0.1754 -0.0073
  147MOL    C3317845   2.042   0.740   2.142 -0.1897  0.8156  0.1537
  147MOL    H3417846   2.151   0.861   2.276  1.2522 -2.2714  1.6639
  147MOL    H3517847   2.072   0.742   2.362  0.6565  0.8982  0.7156
  147MOL    H3617848   1.965   0.663   2.134 -1.5761  2.3758 -2.1593
  147MOL    H3717849   2.020   0.805   2.057 -1.1492 -0.6190 -0.7173
  147MOL    C3817850   2.173   0.683   2.087  0.4731 -0.0568 -0.5254
  147MOL    C3917851   2.153   0.601   1.961  0.8194 -0.7062 -0.3024
  147MOL    H4017852   2.242   0.762   2.058  1.3915 -0.4562  0.5540
  147MOL    H4117853   2.221   0.626   2.166  1.1896  1.5989  0.2493
  147MOL    H4217854   2.079   0.523   1.975 -0.0527  0.1019 -0.3310
  147MOL    H4317855   2.117   0.666   1.881  1.7952  0.4318  0.1704
  147MOL    C4417856   2.285   0.532   1.915  0.5964 -0.7443 -0.2201
  147MOL    C4517857   2.257   0.407   1.832 -0.9991 -0.3557 -0.7595
  147MOL    H4617858   2.362   0.598   1.874  0.8751 -0.2169  1.1251
  147MOL    H4717859   2.337   0.493   2.002  0.3624 -1.2109 -0.2873
  147MOL    H4817860   2.187   0.333   1.871  2.9879 -2.4172  2.8070
  147MOL    H4917861   2.205   0.454   1.748  0.2796  1.2587 -0.6749
  147MOL    C5017862   2.385   0.325   1.785 -0.7003 -0.3486  0.3169
  147MOL    C5117863   2.352   0.198   1.700  0.9004 -0.3973  0.5564
  147MOL    H5217864   2.469   0.374   1.736 -1.3611 -0.5553 -1.0430
  147MOL    H5317865   2.436   0.294   1.876 -0.7752  0.9744  0.8173
  147MOL    H5417866   2.452   0.159   1.680  1.1006  0.3547  0.0732
  147MOL    H5517867   2.292   0.126   1.755  0.6272 -0.3164  0.3614
  147MOL    C5617868   2.284   0.215   1.560  0.9984  0.1681 -0.1600
  147MOL    C5717869   2.261   0.085   1.476  0.4448 -0.0992 -0.7734
  147MOL    H5817870   2.188   0.262   1.583  1.5546  0.3248  1.8983
  147MOL    H5917871   2.331   0.286   1.492  0.7948 -0.5826 -1.0930
  147MOL    H6017872   2.347   0.020   1.463 -0.3337 -1.1026 -1.0040
  147MOL    H6117873   2.192   0.013   1.520  0.0296  1.5883  1.4555
  147MOL    C6217874   2.208   0.107   1.338  0.5054 -0.1347 -0.1048
  147MOL    C6317875   2.199   7.668   1.262  0.9474  0.0330 -0.2917
  147MOL    H6417876   2.112   0.157   1.346  2.0109  2.8274 -0.0169
  147MOL    H6517877   2.269   0.175   1.278  2.9394 -0.9934  1.3078
  147MOL    H6617878   2.297   7.621   1.271  0.0427 -1.3728  2.9735
  147MOL    H6717879   2.129   7.599   1.309  0.6288 -0.6622 -1.7632
  147MOL    C6817880   2.152   7.674   1.121  0.6108 -0.2498  0.1695
  147MOL    C6917881   2.138   7.523   1.071 -0.2610 -0.1323 -0.8384
  147MOL    H7017882   2.052   0.025   1.112 -1.0779 -3.5491  2.2593
  147MOL    H7117883   2.226   0.034   1.060 -1.4724  1.6673 -0.8142
  147MOL    H7217884   2.238   7.483   1.056 -0.1673  0.6034 -2.3244
  147MOL    H7317885   2.086   7.468   1.149 -0.0630  0.2355 -0.4433
  147MOL    C7417886   2.089   7.502   0.936  0.0942  0.3703  0.4817
  147MOL    C7517887   2.109   7.357   0.891  0.5725  0.6586 -0.3424
  147MOL    H7617888   1.987   7.538   0.927 -0.0453 -0.3568 -0.9200
  147MOL    H7717889   2.153   7.566   0.875 -1.6104  2.3052  0.6434
  147MOL    H7817890   2.213   7.328   0.876 -0.3563 -2.7457 -0.6007
  147MOL    H7917891   2.060   7.301   0.971 -2.1407 -0.8367 -2.9662
  147MOL    C8017892   2.031   7.309   0.765  0.1169  0.2599  0.5835
  147MOL    C8117893   2.034   7.161   0.722  0.2811 -0.3210  0.7766
  147MOL    H8217894   1.928   7.342   0.779 -0.0546 -0.4889  1.1547
  147MOL    H8317895   2.061   7.368   0.678 -0.3018  0.0018  0.2637
  147MOL    H8417896   1.988   7.155   0.623  0.5958 -4.5343  0.7981
  147MOL    H8517897   2.139   7.134   0.706  0.9394  2.9237 -1.0010
  147MOL    C8617898   1.965   7.060   0.817  0.5820  0.3701  0.1064
  147MOL    C8717899   1.999   6.915   0.769 -0.3884 -0.1618  0.2355
  147MOL    H8817900   1.995   7.073   0.921 -0.0799 -0.8280  0.4497
  147MOL    H8917901   1.860   7.074   0.793  0.4904 -0.5366 -0.0392
  147MOL    H9017902   1.964   6.917   0.666 -1.3964  1.1594  0.5824
  147MOL    H9117903   2.106   6.894   0.772 -0.2353  0.1449 -2.0136
  147MOL    C9217904   1.916   6.811   0.830  0.1808  0.4569 -0.1129
  147MOL    C9317905   1.911   6.671   0.771 -0.2083  0.1671 -0.5491
  147MOL    H9417906   1.966   6.790   0.924  1.3281  1.9732 -0.3658
  147MOL    H9517907   1.815   6.849   0.842 -0.1919  0.1473 -2.0303
  147MOL    H9617908   1.859   6.674   0.675  1.2762  1.1394 -1.3332
  147MOL    H9717909   2.017   6.644   0.766 -0.3684 -0.3086 -1.5522
  147MOL    C9817910   1.837   6.565   0.857  0.6557  0.4075  0.6760
  147MOL    C9917911   1.849   6.424   0.797 -0.1855 -0.7507  0.1882
  147MOL   H10017912   1.869   6.563   0.961 -0.7927  0.8690  1.1527
  147MOL   H10117913   1.732   6.596   0.859 -0.0654 -1.8570 -0.2743
  147MOL   H10217914   1.780   6.412   0.713  2.9422 -1.1005 -2.4159
  147MOL   H10317915   1.947   6.407   0.754 -0.0711  1.4430 -0.4688
  147MOL   C10417916   1.817   6.318   0.906  0.1909  0.1120 -0.0493
  147MOL   C10517917   1.825   6.178   0.839 -0.6219  0.4422  0.1158
  147MOL   H10617918   1.890   6.326   0.986  0.6305 -2.6770 -0.1334
  147MOL   H10717919   1.714   6.316   0.940 -0.6235 -1.7480 -2.5066
  147MOL   H10817920   1.746   6.173   0.764  0.2579 -2.0026 -0.7116
  147MOL   H10917921   1.918   6.154   0.787  0.3078 -0.6342  2.1933
  147MOL   C11017922   1.818   6.066   0.938 -0.2076 -0.6435 -0.3548
  147MOL   C11117923   1.789   5.938   0.868  1.1393  0.0025  0.1543
  147MOL   H11217924   1.903   6.074   1.006 -1.0920 -2.2073  0.9701
  147MOL   H11317925   1.747   6.088   1.017  0.8801  0.3949  0.3495
  147MOL   H11417926   1.716   5.959   0.790 -0.7681  0.0755  1.9369
  147MOL   H11517927   1.877   5.897   0.817  1.9026  0.9077  0.7093
  147MOL   C11617928   1.721   5.832   0.957  0.9657 -0.3564  0.1081
  147MOL   C11717929   1.828   5.779   1.058  0.0689 -0.1466 -0.4776
  147MOL   H11817930   1.632   5.881   0.998  0.3001 -0.5696 -1.0476
  147MOL   H11917931   1.678   5.751   0.899 -1.9272 -0.2755  2.0099
  147MOL   H12017932   1.883   5.698   1.010 -0.0192  0.0626 -0.9354
  147MOL   H12117933   1.903   5.846   1.099  2.6708 -2.5811 -1.1123
  147MOL   H12217934   1.778   5.734   1.143 -0.4668 -0.6623 -1.0610
  148MOL     C117935   7.359   0.184   4.352  0.1336  0.3458  0.0170
  148MOL     C217936   7.346   0.233   4.491  0.0579  0.5475  0.9376
  148MOL     H317937   7.463   0.152   4.338 -0.5267 -1.5304 -0.6793
  148MOL     H417938   7.322   0.248   4.271  0.0033 -0.2130 -0.3647
  148MOL     H517939   7.381   0.150   4.552  1.1379  1.1447  1.1428
  148MOL     H617940   7.409   0.321   4.501  1.0284 -0.0053 -0.0832
  148MOL     H717941   7.317   0.084   4.347  2.9486 -0.9836  1.8310
  148MOL     C817942   7.209   0.278   4.526  0.6666 -0.2463 -0.5686
  148MOL     C917943   7.152   0.404   4.455 -0.3254 -0.0172  0.5351
  148MOL    H1017944   7.138   0.196   4.514 -0.4675  0.6928 -0.3548
  148MOL    H1117945   7.225   0.300   4.632 -0.6394 -1.6588 -0.0533
  148MOL    H1217946   7.222   0.488   4.465  0.8262 -0.7572 -0.9407
  148MOL    H1317947   7.153   0.387   4.347  0.8264 -0.9747  0.6828
  148MOL    C1417948   7.007   0.442   4.499 -0.2151 -0.3498 -0.0519
  148MOL    C1517949   6.937   0.537   4.403 -0.1332 -0.5188  0.3449
  148MOL    H1617950   6.951   0.350   4.515  0.3174 -0.8465 -1.0242
  148MOL    H1717951   7.009   0.488   4.597 -0.1656 -1.1545  0.3290
  148MOL    H1817952   7.009   0.576   4.331  0.3376 -3.8429 -1.0785
  148MOL    H1917953   6.875   0.471   4.342  0.1557 -1.9481  1.5711
  148MOL    C2017954   6.860   0.656   4.457 -0.1113  0.8500 -0.3103
  148MOL    C2117955   6.765   0.730   4.360  0.6579  0.3262 -0.2615
  148MOL    H2217956   6.792   0.625   4.535 -0.6761  1.8152 -0.4121
  148MOL    H2317957   6.933   0.718   4.510 -1.0835 -0.2693  2.3630
  148MOL    H2417958   6.821   0.763   4.273 -1.7294  1.7244 -1.3068
  148MOL    H2517959   6.685   0.669   4.319  1.4196  0.1383 -1.4950
  148MOL    C2617960   6.704   0.850   4.424 -0.7452 -0.1927 -0.0479
  148MOL    C2717961   6.597   0.919   4.337  0.4426  0.3857 -0.3714
  148MOL    H2817962   6.671   0.830   4.525 -0.1797 -0.0202  0.1726
  148MOL    H2917963   6.790   0.917   4.424 -0.6356 -0.3181 -1.4156
  148MOL    H3017964   6.644   0.954   4.245 -0.7935 -0.8070 -1.4773
  148MOL    H3117965   6.522   0.845   4.310  1.0802 -0.9643  1.5140
  148MOL    C3217966   6.523   1.030   4.413  0.0136 -0.1918 -0.0550
  148MOL    C3317967   6.569   1.175   4.370 -0.3128 -0.3311  0.8208
  148MOL    H3417968   6.417   1.032   4.388 -0.1742  0.5608  0.7660
  148MOL    H3517969   6.527   1.009   4.520 -0.8025 -3.0139 -0.5440
  148MOL    H3617970   6.671   1.197   4.404 -0.1982 -1.1054  0.9948
  148MOL    H3717971   6.563   1.176   4.262  0.1743 -1.5156  0.7687
  148MOL    C3817972   6.477   1.295   4.414 -0.1225 -0.4582  0.2154
  148MOL    C3917973   6.472   1.322   4.560 -0.3365 -0.4317  0.2455
  148MOL    H4017974   6.517   1.389   4.375 -0.0310 -0.2764  0.7346
  148MOL    H4117975   6.384   1.273   4.362  0.7330 -0.6516 -1.2714
  148MOL    H4217976   6.453   1.228   4.612  1.5932 -1.0722 -0.1293
  148MOL    H4317977   6.573   1.347   4.594  0.4712 -2.8619 -0.2407
  148MOL    C4417978   6.388   1.438   4.612  0.1550 -0.4486  0.2898
  148MOL    C4517979   6.436   1.498   4.748 -0.0622 -0.0289 -0.4621
  148MOL    H4617980   6.396   1.520   4.540  0.1485  1.3354  2.2584
  148MOL    H4717981   6.283   1.410   4.612 -0.3916  1.4825  1.8656
  148MOL    H4817982   6.439   1.419   4.823  0.8433 -0.8909 -1.3903
  148MOL    H4917983   6.535   1.544   4.737 -0.3431  0.3790 -1.3299
  148MOL    C5017984   6.341   1.616   4.781 -0.6468  0.4253  0.3993
  148MOL    C5117985   6.374   1.683   4.913 -0.0685 -0.0664  0.6253
  148MOL    H5217986   6.347   1.690   4.701  0.2715  2.2975  2.1430
  148MOL    H5317987   6.237   1.587   4.795 -0.6034 -0.2389 -0.5516
  148MOL    H5417988   6.292   1.751   4.936 -0.4594 -0.3980  0.2030
  148MOL    H5517989   6.376   1.613   4.997  0.5574 -1.9644 -0.9467
  148MOL    C5617990   6.502   1.776   4.905  0.5541 -0.4658  0.3765
  148MOL    C5717991   6.590   1.785   5.040  0.4349  0.5503 -0.8815
  148MOL    H5817992   6.571   1.739   4.828  0.9751  1.5968 -0.2479
  148MOL    H5917993   6.482   1.877   4.870  0.8420 -1.2858 -2.2065
  148MOL    H6017994   6.524   1.785   5.126 -0.8825 -0.1260 -1.8665
  148MOL    H6117995   6.637   1.688   5.059 -1.3636  0.3122  2.8083
  148MOL    C6217996   6.686   1.895   5.042  0.0758  0.3186  0.4627
  148MOL    C6317997   6.774   1.901   5.161 -0.0560  0.3012  0.0264
  148MOL    H6417998   6.748   1.891   4.951 -0.3678  1.7871  0.0830
  148MOL    H6517999   6.632   1.989   5.027  0.2461  0.1991 -1.0493
  148MOL    H6618000   6.714   1.894   5.251 -1.9242 -0.7767 -1.2441
  148MOL    H6718001   6.835   1.810   5.160 -0.3132  0.1281 -0.1454
  148MOL    C6818002   6.860   2.035   5.158 -1.0295 -0.0796  0.0327
  148MOL    C6918003   6.992   2.026   5.243 -0.0160 -0.2526  0.0736
  148MOL    H7018004   6.893   2.056   5.057  1.3801  2.0343  1.1890
  148MOL    H7118005   6.813   2.126   5.196  1.0196  1.3357 -0.7213
  148MOL    H7218006   7.059   1.941   5.225  0.8503  0.4359  0.0114
  148MOL    H7318007   7.053   2.110   5.210 -0.7093  0.0491 -0.4676
  148MOL    C7418008   6.960   2.016   5.397 -0.4083 -0.5385  0.8159
  148MOL    C7518009   7.090   2.016   5.485  0.1636  0.7425 -0.4810
  148MOL    H7618010   6.887   2.091   5.427 -1.6201 -0.7972 -1.3656
  148MOL    H7718011   6.916   1.919   5.420 -0.1609 -0.5979  1.0349
  148MOL    H7818012   7.087   1.987   5.590  2.7348 -0.7017 -0.7630
  148MOL    H7918013   7.166   1.944   5.454 -0.6505 -0.6175  0.6213
  148MOL    C8018014   7.154   2.154   5.492  0.1946  0.3417  0.6780
  148MOL    C8118015   7.282   2.148   5.578  0.2430 -0.1908  0.1322
  148MOL    H8218016   7.175   2.206   5.398 -2.9528 -1.4429 -1.0672
  148MOL    H8318017   7.087   2.222   5.544 -2.5829 -2.0143  0.3141
  148MOL    H8418018   7.256   2.107   5.676 -1.3566  1.7987  0.5729
  148MOL    H8518019   7.356   2.080   5.536  1.2492  1.5261 -0.9279
  148MOL    C8618020   7.346   2.280   5.604  0.4686 -0.0453 -0.0215
  148MOL    C8718021   7.451   2.267   5.718  0.2673  0.0697  0.4346
  148MOL    H8818022   7.382   2.317   5.507  0.5503 -0.6683 -0.2315
  148MOL    H8918023   7.278   2.360   5.633 -0.3127 -0.9582  0.6538
  148MOL    H9018024   7.409   2.211   5.802  0.4031  1.1953  1.2696
  148MOL    H9118025   7.536   2.202   5.698 -0.7020 -0.8559 -0.7469
  148MOL    C9218026   7.494   2.409   5.752 -0.1621 -0.1286  0.2061
  148MOL    C9318027   7.575   2.427   5.882  0.1701 -0.2300  0.1990
  148MOL    H9418028   7.551   2.446   5.667  1.8788 -1.1833  1.1035
  148MOL    H9518029   7.413   2.481   5.762  1.3977  1.7691 -0.4656
  148MOL    H9618030   7.520   2.360   5.948 -0.0619  0.9416  1.2002
  148MOL    H9718031   7.674   2.381   5.873 -0.0986 -1.3324  2.6679
  148MOL    C9818032   7.594   2.574   5.932  0.2347  0.0118 -0.0654
  148MOL    C9918033   7.467   2.645   5.984 -0.2961  0.0077 -0.3932
  148MOL   H10018034   7.670   2.572   6.009  0.3439 -0.9595 -0.1912
  148MOL   H10118035   7.636   2.633   5.851 -0.3483 -1.5460 -1.5351
  148MOL   H10218036   7.489   2.750   6.002 -1.0980  0.1902 -0.4616
  148MOL   H10318037   7.394   2.635   5.904 -0.3216 -0.2500 -0.3371
  148MOL   C10418038   7.416   2.568   6.106  0.0792  0.1361  0.0249
  148MOL   C10518039   7.283   2.617   6.153  0.5980  0.1496  0.1235
  148MOL   H10618040   7.396   2.464   6.079 -0.5790  0.6399 -1.5282
  148MOL   H10718041   7.499   2.568   6.175 -0.9723 -0.4507  1.3012
  148MOL   H10818042   7.273   2.722   6.128 -4.5674 -0.4836 -1.0201
  148MOL   H10918043   7.200   2.572   6.098  0.9062 -0.3234  0.0454
  148MOL   C11018044   7.266   2.598   6.309  0.1540  0.7258  0.0061
  148MOL   C11118045   7.160   2.694   6.372 -0.1714  0.0225  0.2271
  148MOL   H11218046   7.227   2.497   6.321  0.5691  0.3512 -1.6556
  148MOL   H11318047   7.361   2.612   6.361 -0.5427  1.6372  1.0478
  148MOL   H11418048   7.209   2.791   6.380 -2.0154  1.0304 -0.3035
  148MOL   H11518049   7.079   2.716   6.302 -0.3725 -1.5257 -0.0569
  148MOL   C11618050   7.115   2.635   6.510 -0.7322  0.9821 -0.8813
  148MOL   C11718051   7.026   2.738   6.577  0.2447 -0.6100  0.2525
  148MOL   H11818052   7.054   2.546   6.498  0.0483  0.4732 -1.1102
  148MOL   H11918053   7.190   2.600   6.582 -2.2229 -1.6596 -0.5457
  148MOL   H12018054   7.071   2.835   6.596  1.7919 -1.3877  0.6302
  148MOL   H12118055   6.951   2.770   6.505  3.5903  1.8445 -2.2928
  148MOL   H12218056   6.982   2.701   6.670  1.3218  0.2534  1.1107
  149MOL     C118057   2.437   5.551   6.941  0.5946  0.2278  0.1038
  149MOL     C218058   2.299   5.527   6.875  0.3941 -1.0443 -0.3159
  149MOL     H318059   2.467   5.462   6.997  2.0564  1.0815  0.7013
  149MOL     H418060   2.441   5.630   7.017  1.5372  1.1533 -0.9036
  149MOL     H518061   2.228   5.514   6.957  0.9298 -3.0059 -0.1472
  149MOL     H618062   2.269   5.613   6.815  0.4476 -1.8829 -1.5594
  149MOL     H718063   2.495   5.584   6.856  0.6707 -1.5073 -0.5287
  149MOL     C818064   2.293   5.404   6.790 -0.2147  0.1040  0.2666
  149MOL     C918065   2.142   5.369   6.743 -0.2668 -0.9004 -0.8866
  149MOL    H1018066   2.371   5.413   6.715  1.6851 -0.7419  2.0850
  149MOL    H1118067   2.320   5.319   6.853  1.8286 -0.2606 -1.0811
  149MOL    H1218068   2.077   5.379   6.830 -1.8203 -1.2724 -1.9730
  149MOL    H1318069   2.106   5.445   6.673  1.5359  1.8441  1.0569
  149MOL    C1418070   2.122   5.233   6.675 -0.0997  0.5365 -0.0254
  149MOL    C1518071   1.975   5.182   6.665  0.4464 -0.2306  0.5169
  149MOL    H1618072   2.167   5.227   6.576  1.8487  0.4841  0.8449
  149MOL    H1718073   2.176   5.155   6.729 -1.3381 -0.2073  0.1620
  149MOL    H1818074   1.931   5.185   6.765  0.4038 -2.1529  0.5692
  149MOL    H1918075   1.903   5.248   6.616 -0.5105  1.2540  3.7784
  149MOL    C2018076   1.963   5.036   6.611 -0.3983 -0.3710  0.0460
  149MOL    C2118077   1.816   5.003   6.619  0.1910 -0.4612  0.3830
  149MOL    H2218078   1.996   5.027   6.507 -2.3720 -3.2718 -0.3852
  149MOL    H2318079   2.028   4.968   6.665 -1.4487 -1.5370 -0.1294
  149MOL    H2418080   1.788   4.987   6.723  1.3130 -1.2896  0.5613
  149MOL    H2518081   1.754   5.086   6.584 -0.8754 -0.9629  1.0557
  149MOL    C2618082   1.790   4.874   6.543 -0.0624 -0.3799  0.2375
  149MOL    C2718083   1.642   4.831   6.549  0.2557  0.3509 -0.7641
  149MOL    H2818084   1.814   4.896   6.439 -0.5763 -0.1492  0.1654
  149MOL    H2918085   1.846   4.790   6.582  2.4624  0.4988 -1.3701
  149MOL    H3018086   1.613   4.801   6.650  2.3210  1.8915  0.3246
  149MOL    H3118087   1.570   4.901   6.507 -1.5844 -0.7781  0.4239
  149MOL    C3218088   1.616   4.706   6.465  0.0974 -0.4251  0.3046
  149MOL    C3318089   1.463   4.666   6.463  0.0193 -0.5980 -0.0661
  149MOL    H3418090   1.642   4.735   6.363 -0.3750 -2.4939 -0.4356
  149MOL    H3518091   1.683   4.626   6.496  0.3101 -1.2085 -2.0461
  149MOL    H3618092   1.439   4.638   6.566  1.5552  0.6221  0.6459
  149MOL    H3718093   1.407   4.753   6.428  0.5953  0.6968  2.1212
  149MOL    C3818094   1.427   4.545   6.384  0.3262  0.3660  0.1912
  149MOL    C3918095   1.275   4.511   6.406 -0.6958 -0.2867 -0.1395
  149MOL    H4018096   1.430   4.562   6.276 -0.4716 -0.3230  0.0492
  149MOL    H4118097   1.499   4.466   6.402  1.2942  1.0330 -0.7187
  149MOL    H4218098   1.264   4.466   6.505 -1.0155  0.4389  0.1575
  149MOL    H4318099   1.207   4.594   6.393 -0.2614  0.3842  1.7433
  149MOL    C4418100   1.250   4.400   6.299 -0.3059 -0.0401 -0.2425
  149MOL    C4518101   1.129   4.313   6.335 -0.1345 -0.9266 -0.7999
  149MOL    H4618102   1.223   4.450   6.206 -2.8273 -1.0267 -0.0691
  149MOL    H4718103   1.334   4.331   6.290 -0.6450 -0.8435  2.3924
  149MOL    H4818104   1.141   4.276   6.437 -0.8881 -0.6646 -0.6074
  149MOL    H4918105   1.042   4.379   6.337  1.2347  0.8875  1.3118
  149MOL    C5018106   1.119   4.192   6.244 -0.3626 -0.3890 -0.3636
  149MOL    C5118107   0.989   4.116   6.258 -0.8616  0.3138 -0.3225
  149MOL    H5218108   1.132   4.230   6.142 -0.2701 -0.9861 -0.5815
  149MOL    H5318109   1.195   4.120   6.273  0.3840  1.1758  1.6370
  149MOL    H5418110   0.991   4.075   6.358 -0.2665 -1.6522 -1.1147
  149MOL    H5518111   0.901   4.179   6.248  0.0432  1.9123  1.5469
  149MOL    C5618112   0.988   3.993   6.155  0.2979  0.2979  0.2908
  149MOL    C5718113   0.855   3.920   6.146  0.7563 -0.2809 -0.3414
  149MOL    H5818114   1.010   4.031   6.055  1.0103 -2.3656 -0.5993
  149MOL    H5918115   1.066   3.927   6.193  1.1764  1.1027 -0.1094
  149MOL    H6018116   0.822   3.883   6.244  1.8861 -0.2560  0.0495
  149MOL    H6118117   0.781   3.997   6.124 -0.0635 -0.8836  0.2529
  149MOL    C6218118   0.854   3.812   6.041  0.1246 -0.4264  0.0069
  149MOL    C6318119   0.724   3.750   5.994  0.4089  0.5212 -0.0398
  149MOL    H6418120   0.913   3.841   5.954 -0.1781 -0.3368 -0.1701
  149MOL    H6518121   0.916   3.730   6.076 -0.8035 -0.2314  2.1445
  149MOL    H6618122   0.758   3.658   5.946  1.2168 -0.9403  3.1767
  149MOL    H6718123   0.661   3.717   6.076 -0.8577  2.2133 -0.3118
  149MOL    C6818124   0.647   3.836   5.894 -0.6378  0.4107  0.1225
  149MOL    C6918125   0.529   3.754   5.835 -0.3158  1.3346  0.1047
  149MOL    H7018126   0.611   3.922   5.949  2.2292  1.1116  1.0044
  149MOL    H7118127   0.706   3.868   5.808  0.4651  1.4147  1.2249
  149MOL    H7218128   0.563   3.670   5.774  2.4460  0.5499  2.6432
  149MOL    H7318129   0.471   3.699   5.910 -2.5467 -0.6391 -2.9345
  149MOL    C7418130   0.432   3.843   5.756 -0.2965  0.3992 -0.0938
  149MOL    C7518131   0.311   3.765   5.699  0.1449  0.0815  0.6993
  149MOL    H7618132   0.400   3.922   5.824  0.1347  2.0380 -1.7482
  149MOL    H7718133   0.487   3.888   5.673 -2.1668  3.6459  0.3482
  149MOL    H7818134   0.349   3.675   5.652  1.4168  1.2284 -0.5191
  149MOL    H7918135   0.248   3.732   5.782 -1.3649 -0.5399 -0.6770
  149MOL    C8018136   0.226   3.848   5.601  0.6005 -0.0817 -0.0938
  149MOL    C8118137   0.094   3.771   5.570  0.1390 -0.3671 -0.4068
  149MOL    H8218138   0.195   3.944   5.642 -0.2942 -0.2305 -0.4059
  149MOL    H8318139   0.284   3.888   5.518  2.9408 -1.1140  0.9898
  149MOL    H8418140   0.116   3.671   5.532  0.3314 -0.1494 -0.8744
  149MOL    H8518141   0.031   3.741   5.653 -0.3481 -1.9432 -1.3176
  149MOL    C8618142   0.008   3.864   5.482 -0.4342 -0.1367  0.6090
  149MOL    C8718143   7.560   3.807   5.457 -0.3116 -0.2452  0.5501
  149MOL    H8818144   7.687   3.961   5.530 -2.6114 -0.2134  0.2051
  149MOL    H8918145   0.068   3.875   5.391 -0.3151  0.2474  0.7312
  149MOL    H9018146   7.530   3.832   5.355  2.3980 -0.6684 -0.3950
  149MOL    H9118147   7.562   3.699   5.452  0.3611 -0.1380 -1.8192
  149MOL    C9218148   7.447   3.851   5.569 -0.0691  0.2819  0.0136
  149MOL    C9318149   7.315   3.782   5.532 -0.0790 -0.1904 -0.5634
  149MOL    H9418150   7.479   3.817   5.668 -2.0002  2.1060  1.3269
  149MOL    H9518151   7.436   3.959   5.584 -1.7100 -0.1527  2.3055
  149MOL    H9618152   7.282   3.803   5.430 -0.5763 -1.8375 -0.7502
  149MOL    H9718153   7.318   3.674   5.547 -1.0154  0.2896  3.6846
  149MOL    C9818154   7.200   3.840   5.618 -0.4351 -0.7170  0.2250
  149MOL    C9918155   7.071   3.756   5.599  0.6752 -0.3106  0.1361
  149MOL   H10018156   7.231   3.833   5.722  0.2588 -2.2545 -0.0740
  149MOL   H10118157   7.195   3.949   5.610 -0.8059 -0.3769  4.3999
  149MOL   H10218158   7.032   3.775   5.499 -4.2103  1.8278  2.2854
  149MOL   H10318159   7.085   3.648   5.594 -1.0943 -0.5648  0.4430
  149MOL   C10418160   6.965   3.778   5.713  0.3456 -0.5220 -0.3721
  149MOL   C10518161   6.842   3.693   5.708  0.2140  1.0271 -0.1421
  149MOL   H10618162   7.017   3.764   5.808 -1.8996 -2.3541  0.6555
  149MOL   H10718163   6.926   3.879   5.718 -1.9016 -1.2708 -2.1312
  149MOL   H10818164   6.787   3.701   5.614 -1.3443 -3.3626  0.2563
  149MOL   H10918165   6.866   3.587   5.693  0.0724  0.9445  0.1974
  149MOL   C11018166   6.741   3.716   5.823  0.1956  0.8738  0.2339
  149MOL   C11118167   6.621   3.624   5.808 -0.3826  0.0472  0.3112
  149MOL   H11218168   6.798   3.676   5.907  2.8557  1.6982 -1.0989
  149MOL   H11318169   6.704   3.818   5.824  1.1128  1.2084  0.2642
  149MOL   H11418170   6.572   3.644   5.713  1.0227  1.1004 -0.2088
  149MOL   H11518171   6.644   3.520   5.786 -0.1972  0.3036 -0.7071
  149MOL   C11618172   6.522   3.640   5.924 -0.2230 -0.3233 -0.1850
  149MOL   C11718173   6.392   3.560   5.903 -0.3329 -0.2382  0.0921
  149MOL   H11818174   6.563   3.596   6.014 -0.3110 -0.9256 -0.4371
  149MOL   H11918175   6.497   3.745   5.942 -1.1847 -0.8503  1.6308
  149MOL   H12018176   6.322   3.611   5.837 -2.6378  0.9284  3.3132
  149MOL   H12118177   6.417   3.455   5.885  0.2769  0.1791 -1.6563
  149MOL   H12218178   6.330   3.560   5.993 -2.2729 -0.9537 -1.2136
  150MOL     C118179   2.590   4.759   4.152 -0.4011 -0.9168  0.3494
  150MOL     C218180   2.549   4.631   4.078  0.0365  0.2358  0.4852
  150MOL     H318181   2.693   4.757   4.188  0.2897 -0.8618 -1.6114
  150MOL     H418182   2.522   4.779   4.236 -1.5048 -2.9950  0.0077
  150MOL     H518183   2.445   4.616   4.049  0.2490 -1.4618  0.5367
  150MOL     H618184   2.611   4.625   3.988  1.2286  0.1844  1.2988
  150MOL     H718185   2.586   4.834   4.074  0.2397 -1.6904 -0.4352
  150MOL     C818186   2.579   4.509   4.166 -0.4213  0.0807 -1.0861
  150MOL     C918187   2.581   4.391   4.067 -0.2859  0.5743  0.3570
  150MOL    H1018188   2.676   4.520   4.214 -0.4564  0.6692 -1.1486
  150MOL    H1118189   2.500   4.495   4.240  0.7980  0.1469  0.2397
  150MOL    H1218190   2.489   4.373   4.012  0.3476  0.5880 -0.7261
  150MOL    H1318191   2.658   4.409   3.992 -0.1009 -0.5688  0.2580
  150MOL    C1418192   2.616   4.258   4.141  0.2427 -0.7822  0.0912
  150MOL    C1518193   2.636   4.134   4.051  0.5106 -0.4869 -0.1337
  150MOL    H1618194   2.708   4.273   4.198  0.8341  0.7364 -1.2315
  150MOL    H1718195   2.545   4.240   4.222  1.0034 -1.3223  0.6532
  150MOL    H1818196   2.554   4.124   3.980  0.5746  0.8519 -0.4111
  150MOL    H1918197   2.719   4.159   3.986 -0.1318  1.2065 -0.3201
  150MOL    C2018198   2.657   3.999   4.128  0.3041  0.1513  0.3070
  150MOL    C2118199   2.701   3.890   4.024  0.2051  0.1664 -0.1043
  150MOL    H2218200   2.729   4.007   4.209  1.1006 -0.8890 -0.2916
  150MOL    H2318201   2.570   3.958   4.181 -0.2138 -1.7892 -1.9688
  150MOL    H2418202   2.602   3.864   3.985 -0.7134  2.6210  0.5025
  150MOL    H2518203   2.775   3.940   3.961  0.8832 -1.5018 -0.6489
  150MOL    C2618204   2.760   3.766   4.084 -0.2502  0.5386 -0.2363
  150MOL    C2718205   2.832   3.681   3.980 -0.7420 -0.1573  0.4772
  150MOL    H2818206   2.826   3.801   4.163 -1.1182  1.3825  0.1141
  150MOL    H2918207   2.681   3.707   4.132  0.7920  0.7062  1.7129
  150MOL    H3018208   2.752   3.642   3.916  0.0920  0.8388 -1.2083
  150MOL    H3118209   2.898   3.744   3.920 -1.8916  0.0397 -0.6029
  150MOL    C3218210   2.925   3.573   4.045  0.4785 -0.0589 -0.3414
  150MOL    C3318211   3.009   3.490   3.943 -1.2490  0.3896  0.1423
  150MOL    H3418212   3.000   3.612   4.114 -1.0903  1.1423  0.7053
  150MOL    H3518213   2.851   3.514   4.097 -0.2945  1.2252  0.0489
  150MOL    H3618214   2.949   3.456   3.858 -1.3678  1.4235 -0.1956
  150MOL    H3718215   3.084   3.550   3.892  0.9463 -1.9541  0.5150
  150MOL    C3818216   3.083   3.372   4.011  0.1477  0.3407 -0.6490
  150MOL    C3918217   3.176   3.302   3.912 -0.1124 -0.1536 -0.8904
  150MOL    H4018218   3.146   3.407   4.093 -0.9152 -0.3013  0.4706
  150MOL    H4118219   3.018   3.299   4.061 -0.2165  1.7669  0.9958
  150MOL    H4218220   3.119   3.247   3.838 -0.7033  0.6169 -1.0186
  150MOL    H4318221   3.239   3.380   3.868 -0.5960  1.0257  0.4512
  150MOL    C4418222   3.268   3.205   3.992  0.0312 -0.2093 -0.1177
  150MOL    C4518223   3.383   3.138   3.917  0.3165 -0.0737  0.2059
  150MOL    H4618224   3.310   3.264   4.074  0.1123  1.8891 -1.6146
  150MOL    H4718225   3.209   3.120   4.026 -1.6422 -0.2002 -2.8456
  150MOL    H4818226   3.357   3.071   3.835  1.3762  1.9211 -1.8190
  150MOL    H4918227   3.447   3.210   3.866  0.8958 -1.1986 -0.6795
  150MOL    C5018228   3.469   3.061   4.010  0.3652 -0.0060 -0.4072
  150MOL    C5118229   3.595   3.005   3.941 -0.2276  0.0306 -0.4043
  150MOL    H5218230   3.478   3.121   4.101 -1.9865 -1.0412  0.5434
  150MOL    H5318231   3.418   2.971   4.043  0.3625 -0.6319 -2.0808
  150MOL    H5418232   3.561   2.954   3.851 -1.1315 -0.6648  0.3151
  150MOL    H5518233   3.650   3.097   3.922 -0.6550  0.5304  0.6929
  150MOL    C5618234   3.672   2.907   4.029 -0.2221  0.3353  0.5726
  150MOL    C5718235   3.819   2.887   3.989 -0.7880 -0.5791 -0.3204
  150MOL    H5818236   3.661   2.927   4.136  1.3430 -1.2622  1.0574
  150MOL    H5918237   3.621   2.813   4.010  0.4574 -0.0043  0.4185
  150MOL    H6018238   3.853   2.989   3.968 -1.0831 -0.6284 -1.0506
  150MOL    H6118239   3.870   2.841   4.074  0.5622  0.4624 -0.5502
  150MOL    C6218240   3.841   2.828   3.853 -0.3857 -0.2743 -0.6160
  150MOL    C6318241   3.982   2.828   3.796 -0.0850 -0.2932  0.1817
  150MOL    H6418242   3.805   2.725   3.852 -0.6017 -0.1962 -1.4562
  150MOL    H6518243   3.775   2.884   3.786 -1.5699  1.3273  1.8157
  150MOL    H6618244   4.055   2.818   3.876 -0.6146 -0.1844  0.6833
  150MOL    H6718245   4.010   2.744   3.731 -1.7232 -1.1413  0.5504
  150MOL    C6818246   4.006   2.959   3.718  0.1956 -0.3160  0.1516
  150MOL    C6918247   4.138   2.976   3.642 -0.8356  0.1010  0.0998
  150MOL    H7018248   3.927   2.966   3.644 -0.2610  1.8575  0.8014
  150MOL    H7118249   3.993   3.042   3.787 -2.4032  1.5186 -2.4546
  150MOL    H7218250   4.223   2.966   3.709  1.3651  2.6132 -2.2239
  150MOL    H7318251   4.158   2.886   3.584  0.1830 -1.5022  2.8382
  150MOL    C7418252   4.142   3.101   3.560 -0.2366  0.5884 -0.1409
  150MOL    C7518253   4.289   3.145   3.545  0.3161 -0.1209 -0.3661
  150MOL    H7618254   4.084   3.100   3.468 -1.5247 -1.5727  0.6643
  150MOL    H7718255   4.105   3.180   3.625 -0.4263 -0.4730  1.0609
  150MOL    H7818256   4.352   3.127   3.632  0.5168  0.2454 -0.4356
  150MOL    H7918257   4.337   3.083   3.469  0.8545 -0.7325  0.4612
  150MOL    C8018258   4.312   3.292   3.492  0.3621 -0.1593  0.4187
  150MOL    C8118259   4.464   3.324   3.497  0.1143 -0.1420  0.5261
  150MOL    H8218260   4.258   3.305   3.399 -2.3094 -0.8771  1.8320
  150MOL    H8318261   4.262   3.351   3.568 -0.8279  1.8666 -1.8851
  150MOL    H8418262   4.506   3.317   3.597  0.0595 -0.4411  0.5290
  150MOL    H8518263   4.519   3.250   3.439  0.1736  0.5558 -0.3218
  150MOL    C8618264   4.482   3.467   3.447  0.2699 -0.0074  0.4416
  150MOL    C8718265   4.631   3.508   3.429 -0.1469  0.4407 -0.4730
  150MOL    H8818266   4.436   3.482   3.349  0.6486  1.3747  0.4560
  150MOL    H8918267   4.425   3.543   3.501  1.3127  0.7059  0.5415
  150MOL    H9018268   4.679   3.509   3.527 -0.6172 -0.7393 -0.2170
  150MOL    H9118269   4.683   3.435   3.367 -2.3103 -1.1401 -0.5231
  150MOL    C9218270   4.652   3.643   3.361  0.6634 -0.4676  0.4520
  150MOL    C9318271   4.793   3.659   3.313 -0.2377  0.3327  0.2308
  150MOL    H9418272   4.594   3.644   3.268  1.1004 -1.8107  0.1515
  150MOL    H9518273   4.612   3.725   3.420 -1.1770 -1.0117  0.0007
  150MOL    H9618274   4.853   3.631   3.399 -0.7137 -2.0019 -0.1713
  150MOL    H9718275   4.817   3.576   3.246 -3.0028 -1.1841  1.0423
  150MOL    C9818276   4.839   3.799   3.260 -0.0577 -0.0224  0.4885
  150MOL    C9918277   4.826   3.909   3.369  0.2887  0.9284 -0.6616
  150MOL   H10018278   4.943   3.787   3.233  0.2811 -2.4951  2.7150
  150MOL   H10118279   4.785   3.825   3.169 -1.7923 -1.6028  1.0252
  150MOL   H10218280   4.721   3.925   3.390  0.0717 -3.6749  2.3524
  150MOL   H10318281   4.861   3.860   3.459 -1.0048 -1.1310 -1.2495
  150MOL   C10418282   4.895   4.042   3.340 -0.0609 -1.1049  0.2239
  150MOL   C10518283   4.846   4.164   3.426  0.0559 -0.0460 -0.1525
  150MOL   H10618284   5.000   4.020   3.359  0.5056  1.1441 -0.2294
  150MOL   H10718285   4.882   4.055   3.232 -3.5054 -1.7649  0.5250
  150MOL   H10818286   4.743   4.191   3.400 -0.1460  0.7467  1.3962
  150MOL   H10918287   4.845   4.128   3.529 -0.5495  0.7200  0.1145
  150MOL   C11018288   4.943   4.278   3.414  0.6594  0.1632  0.4228
  150MOL   C11118289   4.900   4.407   3.488 -0.4566 -0.1088  0.1420
  150MOL   H11218290   5.033   4.233   3.455  0.2329 -1.5519 -0.4624
  150MOL   H11318291   4.960   4.308   3.310 -1.9773  0.0301 -0.0811
  150MOL   H11418292   4.824   4.462   3.433  2.2240  1.7334 -1.8266
  150MOL   H11518293   4.860   4.376   3.585 -3.8278  0.8938 -0.8871
  150MOL   C11618294   5.018   4.497   3.521 -0.1462  0.8157 -0.3110
  150MOL   C11718295   4.991   4.605   3.618  0.1140 -0.2234 -0.2274
  150MOL   H11818296   5.091   4.429   3.564 -1.7531 -2.8036 -3.0311
  150MOL   H11918297   5.052   4.544   3.428 -0.6307  0.3192 -0.7447
  150MOL   H12018298   4.918   4.676   3.578  1.0603  1.6724  1.3075
  150MOL   H12118299   4.969   4.563   3.716  1.3770 -1.3953 -0.4268
  150MOL   H12218300   5.077   4.667   3.646 -2.4075  2.5575  1.6621
  151MOL     C118301   4.657   3.379   5.812 -0.6141 -0.3399 -0.3395
  151MOL     C218302   4.657   3.501   5.905  0.0011  0.4039  0.3657
  151MOL     H318303   4.575   3.388   5.741 -0.1405 -0.2453 -0.8899
  151MOL     H418304   4.658   3.283   5.863  0.1545 -1.6255 -2.6770
  151MOL     H518305   4.638   3.593   5.849 -1.1317  0.2053  0.4197
  151MOL     H618306   4.574   3.498   5.976 -0.7214  2.0808 -0.3862
  151MOL     H718307   4.747   3.365   5.751 -0.9415 -0.5193 -0.7820
  151MOL     C818308   4.780   3.516   5.994  0.6743 -0.4909 -0.3054
  151MOL     C918309   4.920   3.487   5.944  0.3752  0.4562  0.2996
  151MOL    H1018310   4.768   3.606   6.054 -0.2043  1.8041 -3.7805
  151MOL    H1118311   4.768   3.436   6.068  0.2338 -1.1754 -1.1107
  151MOL    H1218312   4.933   3.389   5.899  0.6296  0.3915  0.5160
  151MOL    H1318313   4.945   3.563   5.870  0.4711 -0.0548 -0.1964
  151MOL    C1418314   5.023   3.502   6.057  0.0799 -0.5007  0.1615
  151MOL    C1518315   5.170   3.466   6.029  0.1482  0.0986 -0.6232
  151MOL    H1618316   5.024   3.601   6.104  2.1227 -0.9114  1.0643
  151MOL    H1718317   4.986   3.450   6.145 -1.9511 -0.1963 -0.4990
  151MOL    H1818318   5.172   3.358   6.014  1.4054  0.0188  0.0389
  151MOL    H1918319   5.198   3.514   5.935 -0.5514 -0.1149 -0.9419
  151MOL    C2018320   5.260   3.490   6.154 -0.9296  0.1977  0.6702
  151MOL    C2118321   5.408   3.458   6.122 -0.5398 -0.4621 -0.2418
  151MOL    H2218322   5.245   3.596   6.179 -2.6444  0.3955 -1.0368
  151MOL    H2318323   5.218   3.426   6.232  0.4128 -2.2562 -0.5780
  151MOL    H2418324   5.418   3.358   6.080 -0.7047 -0.3996 -0.4348
  151MOL    H2518325   5.446   3.525   6.045  2.9542  0.0356  1.8222
  151MOL    C2618326   5.497   3.486   6.247 -0.1464 -0.9228 -0.1041
  151MOL    C2718327   5.645   3.454   6.220  0.3673  0.8322 -0.4618
  151MOL    H2818328   5.481   3.590   6.274  2.2470 -0.7555  0.8078
  151MOL    H2918329   5.468   3.418   6.326  0.3984  1.6449  2.3768
  151MOL    H3018330   5.649   3.358   6.167 -0.0567  0.2260  0.5826
  151MOL    H3118331   5.685   3.522   6.146  1.3947 -0.6333 -1.2834
  151MOL    C3218332   5.743   3.438   6.344  0.0481  0.2548  0.4179
  151MOL    C3318333   5.697   3.345   6.453  0.2720 -0.4067 -0.2875
  151MOL    H3418334   5.845   3.406   6.323  0.1196  1.6521 -1.5404
  151MOL    H3518335   5.745   3.539   6.384  0.5656  0.7638 -0.8482
  151MOL    H3618336   5.769   3.351   6.534  0.7410  2.6590 -0.8900
  151MOL    H3718337   5.610   3.389   6.502  0.1341 -1.3618  0.3469
  151MOL    C3818338   5.673   3.200   6.404  0.0586  0.7979 -0.4366
  151MOL    C3918339   5.649   3.098   6.517  0.6028  0.3203 -0.1003
  151MOL    H4018340   5.595   3.191   6.328 -0.8266  1.7708  0.3368
  151MOL    H4118341   5.769   3.178   6.357  0.3961  0.5028  0.3829
  151MOL    H4218342   5.680   3.005   6.470 -1.8924 -0.3762 -0.4769
  151MOL    H4318343   5.703   3.115   6.610 -0.1014  1.5703  0.0979
  151MOL    C4418344   5.497   3.089   6.548  0.6775  0.3358 -1.0117
  151MOL    C4518345   5.423   2.987   6.458  0.6750  0.7259  0.1522
  151MOL    H4618346   5.483   3.049   6.648 -1.3574 -0.3576 -1.5573
  151MOL    H4718347   5.456   3.190   6.547  0.9038  0.4319 -0.5850
  151MOL    H4818348   5.450   3.016   6.357 -2.0929  0.7021 -0.6382
  151MOL    H4918349   5.455   2.884   6.477  0.4012  0.0626 -2.7756
  151MOL    C5018350   5.271   2.999   6.460  0.9209  0.0650  0.0474
  151MOL    C5118351   5.199   2.890   6.389  0.8914  0.2196  0.1136
  151MOL    H5218352   5.242   2.998   6.565 -0.0681 -0.4945 -0.2187
  151MOL    H5318353   5.249   3.100   6.426  1.4623 -0.3852 -1.6615
  151MOL    H5418354   5.232   2.887   6.286  1.3932 -1.0402  0.3043
  151MOL    H5518355   5.221   2.791   6.430 -0.3979 -0.1119  0.0516
  151MOL    C5618356   5.052   2.911   6.399  0.0431  0.1859 -0.3484
  151MOL    C5718357   4.968   2.823   6.310  0.5186 -0.1601  0.4187
  151MOL    H5818358   5.016   2.907   6.502  1.6118 -0.6001  0.1851
  151MOL    H5918359   5.035   3.013   6.363 -0.3455  0.2731  0.0867
  151MOL    H6018360   4.972   2.846   6.203 -2.9464 -0.6279  0.1555
  151MOL    H6118361   4.995   2.718   6.313 -0.7347 -0.4775  0.4233
  151MOL    C6218362   4.818   2.830   6.345 -0.0501  0.4569  1.0493
  151MOL    C6318363   4.726   2.759   6.245 -0.3605 -0.4982 -0.6791
  151MOL    H6418364   4.796   2.796   6.446 -0.6087 -1.8152  0.1847
  151MOL    H6518365   4.793   2.936   6.352 -0.4244  0.3877  0.7944
  151MOL    H6618366   4.783   2.723   6.159 -0.1857  1.7960 -1.5787
  151MOL    H6718367   4.688   2.668   6.290 -1.3928  0.4951  0.4620
  151MOL    C6818368   4.608   2.838   6.189 -0.1978  0.1719 -0.6535
  151MOL    C6918369   4.520   2.741   6.105 -1.0027 -0.2961  0.5961
  151MOL    H7018370   4.545   2.880   6.268 -3.1001 -1.6783 -1.9278
  151MOL    H7118371   4.635   2.920   6.122 -0.9049  2.1785  1.4352
  151MOL    H7218372   4.481   2.657   6.161  0.8880 -0.6171  1.4826
  151MOL    H7318373   4.450   2.809   6.057 -1.5437 -0.6104  0.9499
  151MOL    C7418374   4.585   2.685   5.978 -0.2857  0.3513 -0.3534
  151MOL    C7518375   4.478   2.640   5.878  0.5259  0.2611 -0.3662
  151MOL    H7618376   4.642   2.765   5.931 -2.0185  1.9316  0.1860
  151MOL    H7718377   4.653   2.600   5.990 -1.5263 -0.4014  1.6234
  151MOL    H7818378   4.416   2.562   5.921  1.3254 -1.0112 -1.4879
  151MOL    H7918379   4.410   2.721   5.852  1.8677  0.4724 -3.4231
  151MOL    C8018380   4.537   2.572   5.753  0.0776 -0.2082 -0.1507
  151MOL    C8118381   4.420   2.525   5.659 -0.1258  1.0160 -0.3016
  151MOL    H8218382   4.601   2.642   5.699  0.2564 -0.5358 -0.3657
  151MOL    H8318383   4.594   2.483   5.781 -0.5443 -0.3940  0.5633
  151MOL    H8418384   4.348   2.463   5.713 -1.9096  2.4193 -1.0139
  151MOL    H8518385   4.357   2.601   5.613 -2.2759 -0.7332 -0.3387
  151MOL    C8618386   4.468   2.446   5.537 -0.1222 -0.1033 -0.5771
  151MOL    C8718387   4.365   2.409   5.424 -0.7209  0.1452 -0.4685
  151MOL    H8818388   4.545   2.501   5.481 -2.4689  1.4586 -2.3651
  151MOL    H8918389   4.515   2.358   5.581 -0.2711  1.0857  2.1023
  151MOL    H9018390   4.273   2.371   5.468 -1.6565  0.8775 -1.7539
  151MOL    H9118391   4.330   2.501   5.377  0.2393 -0.1160 -1.7394
  151MOL    C9218392   4.420   2.328   5.308 -0.6220 -0.1821  0.1479
  151MOL    C9318393   4.488   2.198   5.346 -0.1798  0.4661 -0.0871
  151MOL    H9418394   4.335   2.303   5.244  0.4727 -0.0604 -1.3537
  151MOL    H9518395   4.482   2.395   5.250  1.5614 -0.6546  1.8611
  151MOL    H9618396   4.495   2.139   5.255  0.2053  1.6711 -0.8596
  151MOL    H9718397   4.590   2.226   5.373  0.2725  0.3403 -1.5836
  151MOL    C9818398   4.429   2.113   5.458  0.5349 -0.5404  0.5509
  151MOL    C9918399   4.533   2.013   5.507 -0.2941  0.1429 -0.1873
  151MOL   H10018400   4.375   2.164   5.538 -1.6484 -0.0506 -1.1802
  151MOL   H10118401   4.354   2.062   5.397 -0.8455  1.4316  0.5525
  151MOL   H10218402   4.584   1.973   5.419 -1.6444  0.4474 -1.1148
  151MOL   H10318403   4.609   2.067   5.564 -0.4926 -1.0651  1.2441
  151MOL   C10418404   4.479   1.894   5.588 -0.3046  0.2406 -0.4404
  151MOL   C10518405   4.589   1.813   5.646  0.2767  0.2828 -0.0378
  151MOL   H10618406   4.411   1.936   5.662  0.4341 -0.4060  0.6016
  151MOL   H10718407   4.411   1.831   5.532  0.1036 -0.9135  0.3558
  151MOL   H10818408   4.651   1.786   5.561 -0.2000 -0.0858 -0.2674
  151MOL   H10918409   4.656   1.874   5.707  0.3603  1.1542 -0.9989
  151MOL   C11018410   4.531   1.703   5.732  0.3330  0.1672 -0.2747
  151MOL   C11118411   4.629   1.615   5.796 -0.0736 -0.1315  0.8807
  151MOL   H11218412   4.466   1.741   5.810 -0.7031  0.5857 -1.3213
  151MOL   H11318413   4.459   1.646   5.673  2.6909 -1.0466 -2.0843
  151MOL   H11418414   4.693   1.552   5.734 -1.0895 -3.1920  2.8302
  151MOL   H11518415   4.688   1.682   5.858 -2.0502  1.7692  0.7876
  151MOL   C11618416   4.548   1.510   5.876 -0.1519  0.1762  0.4128
  151MOL   C11718417   4.643   1.427   5.960  0.3863  0.0201  0.0008
  151MOL   H11818418   4.475   1.559   5.939 -1.4944  0.3083 -1.2202
  151MOL   H11918419   4.500   1.445   5.802 -0.9412  1.0422  0.1622
  151MOL   H12018420   4.576   1.351   6.002 -0.6216  1.6089  1.3138
  151MOL   H12118421   4.717   1.369   5.906 -0.4476 -2.3127  1.2782
  151MOL   H12218422   4.690   1.487   6.037  0.4459 -0.0470  0.0162
  152MOL     C118423   4.508   3.172   1.622  0.1270  0.0146 -0.3216
  152MOL     C218424   4.426   3.090   1.521 -0.3776  0.4072  0.3761
  152MOL     H318425   4.453   3.250   1.674  0.5325  0.7067 -0.9243
  152MOL     H418426   4.580   3.228   1.562  1.3920 -1.2413 -0.0177
  152MOL     H518427   4.487   3.027   1.456 -0.5937 -0.1617  0.7142
  152MOL     H618428   4.361   3.014   1.565 -1.2952 -1.0231 -3.2841
  152MOL     H718429   4.566   3.120   1.699 -1.1284 -0.0852  0.5696
  152MOL     C818430   4.344   3.182   1.430 -0.6517 -0.4764 -0.8539
  152MOL     C918431   4.239   3.116   1.338  0.5595  0.5495  0.2668
  152MOL    H1018432   4.283   3.249   1.490 -0.0128  0.3546 -1.1181
  152MOL    H1118433   4.417   3.243   1.377  1.1300  0.0226  2.0805
  152MOL    H1218434   4.288   3.043   1.274  0.4508 -0.3685  1.2147
  152MOL    H1318435   4.167   3.063   1.400 -0.3308  2.0744  0.5651
  152MOL    C1418436   4.160   3.219   1.252 -0.1039  0.1902  0.3060
  152MOL    C1518437   4.087   3.155   1.131 -0.4148 -0.2179  0.1628
  152MOL    H1618438   4.091   3.275   1.315  0.7070  0.6273  0.8182
  152MOL    H1718439   4.231   3.293   1.216  0.5992  0.2821  1.8068
  152MOL    H1818440   4.166   3.120   1.064  0.8805  0.2190  1.4588
  152MOL    H1918441   4.013   3.080   1.158 -0.2118 -1.1747 -1.7916
  152MOL    C2018442   4.018   3.265   1.047  0.6779  0.0875 -0.0850
  152MOL    C2118443   3.937   3.200   0.927  0.1265 -0.5563  0.8751
  152MOL    H2218444   3.941   3.321   1.102  0.7464  1.8624 -1.7459
  152MOL    H2318445   4.088   3.345   1.023  0.0406  0.8872  0.6439
  152MOL    H2418446   4.009   3.150   0.863  0.0999 -0.1459  0.5197
  152MOL    H2518447   3.880   3.120   0.974 -0.2696 -1.8373 -1.7511
  152MOL    C2618448   3.861   3.303   0.850 -0.1892 -0.2219  0.3421
  152MOL    C2718449   3.805   3.253   0.719 -1.1897  0.0470 -0.7026
  152MOL    H2818450   3.792   3.345   0.922  1.7309  0.8500  1.6020
  152MOL    H2918451   3.939   3.378   0.832  0.2507 -0.7621 -0.0225
  152MOL    H3018452   3.882   3.198   0.664  0.3516  1.1204  0.3490
  152MOL    H3118453   3.719   3.188   0.736 -0.3468 -0.3867  2.0415
  152MOL    C3218454   3.768   3.368   0.626  0.1545  0.7976  0.2723
  152MOL    C3318455   3.667   3.331   0.510  0.4475  0.2319 -0.1399
  152MOL    H3418456   3.723   3.450   0.680  1.5310  1.5747  0.2661
  152MOL    H3518457   3.860   3.412   0.587  1.4770 -0.4984  1.8389
  152MOL    H3618458   3.707   3.241   0.465 -1.9755 -1.1069  0.2526
  152MOL    H3718459   3.566   3.319   0.551  0.3978 -1.0937 -0.6452
  152MOL    C3818460   3.661   3.442   0.403 -0.1282 -0.4956  0.4570
  152MOL    C3918461   3.586   3.391   0.280 -0.3505 -0.3634 -0.0377
  152MOL    H4018462   3.611   3.530   0.444 -0.4604 -1.4913  2.2277
  152MOL    H4118463   3.765   3.470   0.385 -0.6494  1.2239  0.0514
  152MOL    H4218464   3.627   3.432   0.188  1.8936 -1.0476  0.6016
  152MOL    H4318465   3.603   3.283   0.278 -2.3443 -0.7538  1.6417
  152MOL    C4418466   3.433   3.427   0.274  0.1105  0.6865 -0.3479
  152MOL    C4518467   3.358   3.334   0.164  0.1955  0.1108 -0.9578
  152MOL    H4618468   3.377   3.416   0.368 -0.7212 -0.1207 -0.9238
  152MOL    H4718469   3.417   3.532   0.253 -1.7701  0.4771 -0.0916
  152MOL    H4818470   3.393   3.370   0.067 -0.4007  1.9982 -0.5019
  152MOL    H4918471   3.389   3.230   0.169  3.7102  1.1968  1.9533
  152MOL    C5018472   3.205   3.351   0.176 -0.1264  0.1884  0.7812
  152MOL    C5118473   3.131   3.286   0.058  0.7328 -0.8465 -0.1458
  152MOL    H5218474   3.163   3.315   0.270 -2.3518  0.0830 -0.2202
  152MOL    H5318475   3.186   3.457   0.157  0.3656  0.7492  3.3007
  152MOL    H5418476   3.168   3.332   7.658  1.9912 -0.0864  0.7225
  152MOL    H5518477   3.152   3.179   0.049 -3.7910 -1.9351  1.0859
  152MOL    C5618478   2.979   3.299   0.069 -0.1915 -0.4688 -0.0264
  152MOL    C5718479   2.908   3.241   7.637  0.1149  0.3104  0.1424
  152MOL    H5818480   2.941   3.244   0.155  0.6998 -1.1315 -0.0589
  152MOL    H5918481   2.960   3.405   0.086 -1.9481 -0.6729 -0.5480
  152MOL    H6018482   2.949   3.285   7.545  2.7243  1.0635  1.6085
  152MOL    H6118483   2.931   3.135   7.633 -1.4117 -0.0832  1.6571
  152MOL    C6218484   2.757   3.260   7.621 -0.1458  0.0803  0.1949
  152MOL    C6318485   2.701   3.208   7.489  0.0295 -0.1641 -0.2761
  152MOL    H6418486   2.706   3.209   0.012 -1.8169 -1.2455 -1.5882
  152MOL    H6518487   2.727   3.365   7.631  0.1673  0.1798  0.0621
  152MOL    H6618488   2.744   3.275   7.414  2.0064  0.0246  0.9846
  152MOL    H6718489   2.738   3.111   7.454 -0.9537 -0.8944  0.6747
  152MOL    C6818490   2.549   3.215   7.483  0.1434 -0.3145  0.5813
  152MOL    C6918491   2.490   3.157   7.349  0.4203 -0.1389 -0.9509
  152MOL    H7018492   2.526   3.153   7.570 -0.1342  0.6232  1.1864
  152MOL    H7118493   2.510   3.316   7.496 -0.4773 -0.4443 -0.2391
  152MOL    H7218494   2.527   3.225   7.273  0.8986  0.5734 -0.0870
  152MOL    H7318495   2.529   3.058   7.328 -0.6615 -0.0625 -3.5439
  152MOL    C7418496   2.336   3.128   7.344  0.2946  0.0151 -0.4492
  152MOL    C7518497   2.301   3.077   7.199 -0.1822  0.3634  0.1651
  152MOL    H7618498   2.314   3.050   7.416  2.3019  1.9919  2.3961
  152MOL    H7718499   2.278   3.217   7.369 -0.7945 -0.7471 -0.2179
  152MOL    H7818500   2.333   3.150   7.124 -0.1426 -0.2837 -0.4588
  152MOL    H7918501   2.349   2.981   7.180 -1.2954 -0.6803  2.4542
  152MOL    C8018502   2.151   3.064   7.198 -0.7562 -0.7311 -0.0586
  152MOL    C8118503   2.095   3.025   7.056  0.2362 -0.2697 -0.6818
  152MOL    H8218504   2.114   3.001   7.279 -2.3752  2.8793  2.1059
  152MOL    H8318505   2.105   3.159   7.226  0.4410  0.1842 -1.1796
  152MOL    H8418506   2.110   3.099   6.978  0.5909 -1.1552 -1.4657
  152MOL    H8518507   2.156   2.939   7.027 -0.0587 -0.4561 -0.7570
  152MOL    C8618508   1.957   2.969   7.071  0.1002 -0.1300  0.2393
  152MOL    C8718509   1.895   2.919   6.938  0.5341  0.8437  0.6787
  152MOL    H8818510   1.964   2.891   7.147  0.1951 -2.0987 -1.7363
  152MOL    H8918511   1.886   3.044   7.105  0.8356  1.1402 -0.9756
  152MOL    H9018512   1.957   2.846   6.887 -0.8126 -0.6379  1.1166
  152MOL    H9118513   1.805   2.863   6.962  0.8235 -0.0652 -0.3533
  152MOL    C9218514   1.859   3.028   6.845 -0.1858  0.0692 -0.1502
  152MOL    C9318515   1.778   2.986   6.720  0.1550 -0.3083  0.2384
  152MOL    H9418516   1.810   3.112   6.894 -1.0492  0.5901 -1.8720
  152MOL    H9518517   1.957   3.066   6.817 -0.1087 -0.3151 -0.4068
  152MOL    H9618518   1.820   2.905   6.660  0.5929  2.3486 -3.1446
  152MOL    H9718519   1.685   2.957   6.769 -1.2437  1.3286 -1.4266
  152MOL    C9818520   1.747   3.104   6.621 -0.0611 -0.1488 -0.5448
  152MOL    C9918521   1.877   3.145   6.542  0.5182  0.0669 -0.0967
  152MOL   H10018522   1.663   3.072   6.560 -0.1601 -0.1919 -0.3869
  152MOL   H10118523   1.711   3.184   6.686 -0.3772  0.1947 -1.1365
  152MOL   H10218524   1.965   3.166   6.603 -0.1986 -0.1589  1.0199
  152MOL   H10318525   1.900   3.055   6.484  0.9794  0.0171  0.1554
  152MOL   C10418526   1.839   3.262   6.455 -0.5758  0.6048  0.4565
  152MOL   C10518527   1.852   3.396   6.529 -0.0784  0.2750  0.5029
  152MOL   H10618528   1.913   3.261   6.374 -1.7636 -0.7575 -0.6376
  152MOL   H10718529   1.744   3.243   6.405 -0.0572 -1.3656  0.1781
  152MOL   H10818530   1.764   3.402   6.593 -1.0708  0.1465 -0.8318
  152MOL   H10918531   1.942   3.403   6.589 -1.6475 -0.5067  3.0352
  152MOL   C11018532   1.830   3.524   6.432  0.2955 -0.2040 -0.3037
  152MOL   C11118533   1.849   3.661   6.505  0.2363 -0.2467  0.3550
  152MOL   H11218534   1.906   3.516   6.355  0.6743  0.1671  0.0271
  152MOL   H11318535   1.733   3.524   6.383 -0.6473  1.8093  1.4811
  152MOL   H11418536   1.938   3.659   6.567 -0.5844 -1.7475  1.5287
  152MOL   H11518537   1.868   3.743   6.437 -0.2476  0.2538  0.8161
  152MOL   C11618538   1.716   3.706   6.568  0.1351  1.0075  0.5088
  152MOL   C11718539   1.731   3.834   6.654  0.1903 -0.2488 -0.5336
  152MOL   H11818540   1.638   3.716   6.493 -1.3771 -0.3030  1.8795
  152MOL   H11918541   1.681   3.625   6.632  4.0514 -2.5030 -1.5198
  152MOL   H12018542   1.802   3.817   6.735 -0.1674 -2.1421 -0.5906
  152MOL   H12118543   1.779   3.919   6.605  0.9205  1.0141  2.2760
  152MOL   H12218544   1.643   3.890   6.685  1.3295  2.9177 -2.6645
  153MOL     C118545   3.979   2.463   5.369 -0.7347 -0.0784 -0.7244
  153MOL     C218546   3.848   2.415   5.306 -0.6408 -0.0671  0.8890
  153MOL     H318547   4.066   2.414   5.326 -1.2431  0.4397 -2.3617
  153MOL     H418548   3.980   2.453   5.478  0.6398 -1.2696 -0.8430
  153MOL     H518549   3.757   2.454   5.352 -0.4243  0.3011  1.0058
  153MOL     H618550   3.836   2.447   5.202 -0.3538 -1.3743  0.4397
  153MOL     H718551   3.989   2.569   5.346  2.9474 -0.1418  0.2282
  153MOL     C818552   3.845   2.261   5.309 -0.4255 -0.1267  0.0911
  153MOL     C918553   3.723   2.184   5.254  0.4360  0.1702  0.2602
  153MOL    H1018554   3.932   2.218   5.260  0.7406  0.8454  1.2828
  153MOL    H1118555   3.844   2.245   5.417  3.1477  3.1364  0.6936
  153MOL    H1218556   3.624   2.209   5.290  0.0163  0.2016 -0.9006
  153MOL    H1318557   3.711   2.197   5.147  1.4812 -1.8810 -0.1390
  153MOL    C1418558   3.741   2.032   5.286  0.4587  0.3544  0.2909
  153MOL    C1518559   3.628   1.942   5.237 -0.1297 -0.1908  0.4389
  153MOL    H1618560   3.832   1.994   5.240 -0.1720  0.6524 -1.2340
  153MOL    H1718561   3.745   2.027   5.394 -1.4709  0.7904  0.3988
  153MOL    H1818562   3.533   1.989   5.263 -0.3796 -0.2303 -0.3668
  153MOL    H1918563   3.624   1.937   5.128  0.1364 -0.5693  0.4456
  153MOL    C2018564   3.650   1.800   5.296 -0.6875 -0.2626  0.0380
  153MOL    C2118565   3.537   1.702   5.273  0.0285 -0.1374  0.1201
  153MOL    H2218566   3.740   1.761   5.249 -1.3064 -1.1760 -0.4107
  153MOL    H2318567   3.675   1.823   5.400 -2.1466  0.0931  0.3292
  153MOL    H2418568   3.442   1.751   5.293  0.5844  0.6048  0.9972
  153MOL    H2518569   3.529   1.658   5.173  1.4228  0.6182 -0.3532
  153MOL    C2618570   3.529   1.581   5.375 -0.4874 -0.0838  0.2949
  153MOL    C2718571   3.594   1.450   5.325 -0.1212 -0.5842  0.1552
  153MOL    H2818572   3.570   1.609   5.472  1.0907  0.8657 -0.6158
  153MOL    H2918573   3.424   1.560   5.395  0.0991 -1.2912  2.3338
  153MOL    H3018574   3.532   1.433   5.237  1.2002  1.1364 -1.1560
  153MOL    H3118575   3.688   1.481   5.279  0.1477 -0.6294  0.6795
  153MOL    C3218576   3.607   1.330   5.425 -0.0986 -0.1461 -0.2726
  153MOL    C3318577   3.475   1.279   5.468  0.5139  0.1121  0.1109
  153MOL    H3418578   3.669   1.257   5.373  0.1566  0.0724 -0.2794
  153MOL    H3518579   3.663   1.377   5.507 -0.4432 -0.9008  0.4002
  153MOL    H3618580   3.428   1.345   5.541  0.1259  0.5962 -0.5763
  153MOL    H3718581   3.399   1.266   5.390 -0.2733  1.4846  0.6333
  153MOL    C3818582   3.501   1.151   5.550 -0.1621  0.3002 -0.0646
  153MOL    C3918583   3.381   1.043   5.566  0.2853 -0.3190  0.1839
  153MOL    H4018584   3.591   1.103   5.511 -0.6541 -0.4427 -0.2997
  153MOL    H4118585   3.540   1.177   5.649 -0.5286 -0.1566  0.2013
  153MOL    H4218586   3.330   1.026   5.471 -0.6763  0.4743  0.5552
  153MOL    H4318587   3.407   0.946   5.610  0.3223 -0.8749 -1.0574
  153MOL    C4418588   3.276   1.111   5.656 -1.0476 -0.0082 -0.2548
  153MOL    C4518589   3.168   1.024   5.726 -0.5516  0.0555 -0.3912
  153MOL    H4618590   3.328   1.149   5.744  0.0562  2.0506 -1.7622
  153MOL    H4718591   3.232   1.196   5.605  1.0706  1.1987 -0.1323
  153MOL    H4818592   3.115   0.965   5.651 -0.0000  0.8441 -1.4202
  153MOL    H4918593   3.213   0.955   5.797  1.0972  2.1744  0.6738
  153MOL    C5018594   3.071   1.112   5.807  0.1426  0.2520 -0.5542
  153MOL    C5118595   3.127   1.143   5.950 -0.1823 -0.5322  0.2993
  153MOL    H5218596   3.036   1.197   5.749 -2.0286 -0.9413 -1.0550
  153MOL    H5318597   2.980   1.056   5.825  0.8089 -1.7643 -3.1081
  153MOL    H5418598   3.117   1.056   6.016 -2.4832  0.7642  1.7479
  153MOL    H5518599   3.230   1.178   5.943 -1.1461  1.9411 -2.4002
  153MOL    C5618600   3.051   1.265   6.015  0.5646  0.2219 -0.6666
  153MOL    C5718601   2.912   1.233   6.062 -0.5833  0.4459 -0.5770
  153MOL    H5818602   3.098   1.306   6.105 -1.5000 -1.1930  1.1165
  153MOL    H5918603   3.049   1.345   5.942  3.2183  0.7533 -0.2165
  153MOL    H6018604   2.846   1.224   5.975  0.0605 -1.9115 -0.8733
  153MOL    H6118605   2.906   1.138   6.115  0.9676  0.6702  0.0127
  153MOL    C6218606   2.855   1.333   6.162  0.2005  0.1007 -0.1324
  153MOL    C6318607   2.809   1.469   6.111  0.4613 -0.4245 -0.0023
  153MOL    H6418608   2.759   1.289   6.190  0.2091  0.8934  1.1972
  153MOL    H6518609   2.929   1.352   6.240  2.1073 -3.1279 -1.0756
  153MOL    H6618610   2.898   1.528   6.089  0.3497 -0.0605  0.5107
  153MOL    H6718611   2.746   1.447   6.024  1.8342 -2.1428 -0.5980
  153MOL    C6818612   2.707   1.544   6.213  0.5255 -0.5944 -0.3305
  153MOL    C6918613   2.634   1.663   6.146 -0.8360 -0.8079  0.1808
  153MOL    H7018614   2.629   1.480   6.254 -0.7531  1.6223  0.7629
  153MOL    H7118615   2.767   1.588   6.293  0.2806  1.4174 -1.2299
  153MOL    H7218616   2.713   1.735   6.122 -0.1910 -1.7757 -0.6473
  153MOL    H7318617   2.581   1.624   6.059  0.1230 -0.1723 -0.6991
  153MOL    C7418618   2.535   1.731   6.246 -0.0146  0.2768  0.4926
  153MOL    C7518619   2.479   1.860   6.185 -0.5253 -0.3171  0.2415
  153MOL    H7618620   2.469   1.658   6.295  0.8042 -1.2134 -0.5681
  153MOL    H7718621   2.591   1.755   6.337 -1.2409 -2.1462  1.9583
  153MOL    H7818622   2.432   1.838   6.089 -0.8615 -0.2553  0.3918
  153MOL    H7918623   2.391   1.902   6.233  0.1057  1.2747  0.0358
  153MOL    C8018624   2.588   1.962   6.167  0.0710  0.2298 -0.0035
  153MOL    C8118625   2.533   2.099   6.124 -0.3376 -0.1034  0.1937
  153MOL    H8218626   2.645   1.976   6.259  2.8002 -1.1693 -1.4275
  153MOL    H8318627   2.648   1.926   6.083  0.8399  0.5930  0.3922
  153MOL    H8418628   2.467   2.080   6.039 -2.7729  0.5079  1.8767
  153MOL    H8518629   2.469   2.148   6.197 -1.5266 -0.6310 -0.4759
  153MOL    C8618630   2.643   2.197   6.061  0.1258 -0.1414 -0.2046
  153MOL    C8718631   2.719   2.251   6.183 -0.2999 -0.2014 -0.5013
  153MOL    H8818632   2.701   2.152   5.980 -0.5042 -0.8682 -0.2646
  153MOL    H8918633   2.588   2.276   6.009 -1.2530  0.6812  2.3868
  153MOL    H9018634   2.662   2.248   6.275 -0.5948  5.0154 -0.3888
  153MOL    H9118635   2.813   2.196   6.193 -0.8914 -1.5848 -2.1413
  153MOL    C9218636   2.755   2.401   6.161 -0.1829  1.2644 -0.0089
  153MOL    C9318637   2.877   2.446   6.241 -0.6313  0.0200 -0.1222
  153MOL    H9418638   2.778   2.400   6.054  0.7518  0.0980  0.1904
  153MOL    H9518639   2.667   2.460   6.186  0.4000  1.5037  1.5648
  153MOL    H9618640   2.851   2.441   6.346 -2.4521  2.1678 -0.4164
  153MOL    H9718641   2.964   2.382   6.228  0.0235  1.3066 -2.4706
  153MOL    C9818642   2.914   2.596   6.221 -0.0979 -0.0591  0.6556
  153MOL    C9918643   2.974   2.627   6.082  0.2570 -0.3876 -0.1944
  153MOL   H10018644   2.833   2.666   6.241  2.0712  2.4627  0.8976
  153MOL   H10118645   2.986   2.632   6.295 -1.1143  1.9785  0.6811
  153MOL   H10218646   3.052   2.553   6.062  0.9368  0.9359 -2.5432
  153MOL   H10318647   2.899   2.608   6.006 -1.8256 -0.1869  1.7623
  153MOL   C10418648   3.027   2.766   6.065 -0.0917 -0.0843 -0.4013
  153MOL   C10518649   3.103   2.787   5.932 -0.5369  0.0996 -0.5861
  153MOL   H10618650   2.941   2.832   6.067  0.4820  0.6429  1.6566
  153MOL   H10718651   3.085   2.790   6.154  1.5373 -0.6114 -1.3093
  153MOL   H10818652   3.190   2.722   5.926 -0.8326 -0.8308  3.4051
  153MOL   H10918653   3.029   2.775   5.854  0.6474  0.1742 -1.7385
  153MOL   C11018654   3.159   2.935   5.930  0.0446  0.4682  0.0587
  153MOL   C11118655   3.221   2.990   5.794  0.7139  0.3980  0.2035
  153MOL   H11218656   3.077   2.999   5.964  0.6182  0.3625  1.6658
  153MOL   H11318657   3.242   2.931   6.000  0.8506 -1.6698 -0.9664
  153MOL   H11418658   3.248   2.901   5.738 -0.0790 -1.6840  3.0686
  153MOL   H11518659   3.130   3.023   5.741 -0.6675 -0.4450  2.0109
  153MOL   C11618660   3.321   3.109   5.804 -0.0357 -0.4919  0.1033
  153MOL   C11718661   3.364   3.170   5.665 -0.1977  0.3850 -0.7891
  153MOL   H11818662   3.278   3.195   5.855  4.4538  0.8099  1.9413
  153MOL   H11918663   3.400   3.081   5.872 -0.2713  1.4415  1.2184
  153MOL   H12018664   3.271   3.211   5.625 -0.9023 -0.0025  0.4017
  153MOL   H12118665   3.437   3.249   5.677 -0.2511 -0.1171  3.6179
  153MOL   H12218666   3.420   3.088   5.619  1.5742  0.6284  0.8632
  154MOL     C118667   7.281   5.032   0.467  0.5510 -0.1733 -0.2458
  154MOL     C218668   7.168   5.094   0.384 -0.1860 -0.1325 -1.0687
  154MOL     H318669   7.362   5.100   0.494  2.3555 -2.1466 -0.5861
  154MOL     H418670   7.320   4.943   0.417  1.4371  0.0449  0.0392
  154MOL     H518671   7.209   5.127   0.289 -0.7073  0.9031 -0.9437
  154MOL     H618672   7.085   5.029   0.354  0.1807 -1.1351  0.0358
  154MOL     H718673   7.246   4.993   0.562 -2.1880  2.2269 -0.2015
  154MOL     C818674   7.111   5.213   0.463  0.3482  0.0226  0.0718
  154MOL     C918675   6.995   5.271   0.386 -0.0883  0.1853 -0.9295
  154MOL    H1018676   7.075   5.169   0.556  0.3278 -0.0995  0.0060
  154MOL    H1118677   7.187   5.290   0.476  1.2309 -0.1590 -3.4067
  154MOL    H1218678   7.015   5.320   0.290 -1.4903 -2.3553 -2.5518
  154MOL    H1318679   6.915   5.201   0.364 -0.3435  0.4985 -0.9965
  154MOL    C1418680   6.916   5.379   0.472  0.5688  0.6547 -0.1160
  154MOL    C1518681   6.982   5.517   0.472 -0.4246 -0.0475 -0.1583
  154MOL    H1618682   6.812   5.388   0.440  0.6024 -1.5233 -0.8751
  154MOL    H1718683   6.907   5.341   0.573  0.5616  2.9539  0.7809
  154MOL    H1818684   6.962   5.568   0.567 -0.9109 -0.1955 -0.1804
  154MOL    H1918685   7.091   5.516   0.469 -0.3265  0.7410  1.7737
  154MOL    C2018686   6.917   5.605   0.367 -0.2561  0.5020  0.1989
  154MOL    C2118687   6.993   5.735   0.342 -0.0845 -0.0199  0.1978
  154MOL    H2218688   6.914   5.544   0.277  1.7322  0.8125 -0.0988
  154MOL    H2318689   6.812   5.622   0.389 -0.9300 -1.2060 -1.5484
  154MOL    H2418690   7.011   5.774   0.442 -2.2217  0.2888  0.4972
  154MOL    H2518691   7.085   5.700   0.296 -1.3829 -2.1838 -0.7998
  154MOL    C2618692   6.929   5.843   0.251 -0.1019  0.5759 -0.5049
  154MOL    C2718693   7.030   5.953   0.205  0.0408  0.6645  0.5585
  154MOL    H2818694   6.888   5.788   0.167 -1.6992  4.2913 -2.2818
  154MOL    H2918695   6.853   5.892   0.312  1.2735  0.6266  1.2151
  154MOL    H3018696   7.074   5.994   0.296  0.2938 -0.3745  0.9075
  154MOL    H3118697   7.106   5.909   0.140 -1.8167 -1.8895  0.0385
  154MOL    C3218698   6.961   6.070   0.128  0.0963  0.1818  0.4326
  154MOL    C3318699   7.052   6.189   0.088  0.0587  0.6803 -0.0647
  154MOL    H3418700   6.917   6.025   0.039 -0.3558  2.4911 -0.5470
  154MOL    H3518701   6.878   6.111   0.186 -1.8665 -0.9553 -1.5489
  154MOL    H3618702   7.142   6.143   0.046 -1.9298 -1.4952 -2.1246
  154MOL    H3718703   6.993   6.229   0.006  0.4693  0.3392 -0.5355
  154MOL    C3818704   7.092   6.288   0.197  0.5077  0.7673  0.2029
  154MOL    C3918705   7.203   6.391   0.159 -0.1491 -0.6895  1.2316
  154MOL    H4018706   6.998   6.330   0.234  0.1084  2.4405 -2.5890
  154MOL    H4118707   7.125   6.227   0.281  1.0317  0.1000 -0.4801
  154MOL    H4218708   7.278   6.338   0.100  0.5455  1.6953 -0.0783
  154MOL    H4318709   7.173   6.483   0.110 -1.8669 -1.0547  1.5866
  154MOL    C4418710   7.300   6.444   0.272  0.3805  0.2259  0.5153
  154MOL    C4518711   7.381   6.567   0.230  0.1031  1.0537 -0.1369
  154MOL    H4618712   7.233   6.470   0.354 -1.4110 -1.7013 -0.2584
  154MOL    H4718713   7.369   6.367   0.307  0.7800  0.0460 -0.6462
  154MOL    H4818714   7.466   6.542   0.167  0.1767  0.9110  0.0195
  154MOL    H4918715   7.322   6.625   0.160  2.6525  0.2732 -3.0113
  154MOL    C5018716   7.445   6.641   0.338  0.6836  0.4393  0.9707
  154MOL    C5118717   7.576   6.721   0.291 -0.4497 -0.4087 -0.5705
  154MOL    H5218718   7.372   6.707   0.385  0.4209  0.3771  0.6531
  154MOL    H5318719   7.474   6.573   0.419 -0.7746  0.0900  1.2068
  154MOL    H5418720   7.644   6.657   0.235  0.4401  0.0344 -0.0080
  154MOL    H5518721   7.564   6.799   0.215 -2.1804 -0.1568 -0.0614
  154MOL    C5618722   7.653   6.780   0.411  0.4757 -0.1438  0.2160
  154MOL    C5718723   0.076   6.874   0.383 -0.2074  0.2046  0.0394
  154MOL    H5818724   7.581   6.841   0.465  1.3578  1.4772 -0.3978
  154MOL    H5918725   7.673   6.700   0.481  0.7048 -0.0004  0.3159
  154MOL    H6018726   0.151   6.825   0.320  0.4370  1.3490 -0.0937
  154MOL    H6118727   0.038   6.955   0.321 -0.8364  0.4994  0.8033
  154MOL    C6218728   0.148   6.921   0.512  0.2413 -0.4215 -0.3408
  154MOL    C6318729   0.274   7.010   0.502 -0.5054 -0.3526  0.1332
  154MOL    H6418730   0.065   6.979   0.553  0.7811 -0.6581  1.0912
  154MOL    H6518731   0.176   6.839   0.578 -1.1213 -0.3147  0.3994
  154MOL    H6618732   0.344   6.955   0.440 -0.8717 -0.6451 -0.0247
  154MOL    H6718733   0.242   7.098   0.445 -1.6542 -0.1627  1.0547
  154MOL    C6818734   0.337   7.058   0.637 -0.1954  0.9598 -0.8749
  154MOL    C6918735   0.470   7.133   0.632  0.1186 -0.5275 -0.1891
  154MOL    H7018736   0.264   7.119   0.689  2.2589  1.8606  1.6804
  154MOL    H7118737   0.358   6.975   0.705 -1.1219  1.7559  0.4023
  154MOL    H7218738   0.545   7.070   0.584 -0.1996  0.0847 -1.5290
  154MOL    H7318739   0.463   7.217   0.562  2.0928  0.4186  0.7287
  154MOL    C7418740   0.525   7.168   0.770  0.1890 -0.8554  0.7145
  154MOL    C7518741   0.641   7.267   0.764  0.2556 -0.0737  0.0113
  154MOL    H7618742   0.439   7.217   0.815  0.7775  2.1982 -1.2910
  154MOL    H7718743   0.552   7.076   0.822  1.2343  0.8514  3.2925
  154MOL    H7818744   0.718   7.218   0.704  1.5546 -0.2329  1.7872
  154MOL    H7918745   0.627   7.362   0.711 -1.0561 -0.6136 -0.6317
  154MOL    C8018746   0.688   7.302   0.907 -0.2909  0.4672  0.7839
  154MOL    C8118747   0.752   7.195   0.995 -0.0488 -0.4876 -0.1997
  154MOL    H8218748   0.764   7.380   0.896 -2.0268  1.8834 -1.7264
  154MOL    H8318749   0.603   7.343   0.962 -0.6620 -0.6732  1.0555
  154MOL    H8418750   0.679   7.116   1.011 -0.6774  0.3008  0.9082
  154MOL    H8518751   0.831   7.152   0.933  0.1651  0.0617 -0.3216
  154MOL    C8618752   0.797   7.260   1.126  0.1434 -0.1909 -0.4337
  154MOL    C8718753   0.837   7.152   1.229  0.3212 -0.6789  0.2061
  154MOL    H8818754   0.877   7.328   1.100  1.6557 -2.0118 -0.6678
  154MOL    H8918755   0.712   7.321   1.156 -0.1838 -0.6174 -0.4770
  154MOL    H9018756   0.747   7.092   1.245 -3.6737  4.6207 -1.0153
  154MOL    H9118757   0.911   7.085   1.186  1.9711  0.7303  0.7853
  154MOL    C9218758   0.905   7.224   1.346  0.6682 -0.2089  0.2579
  154MOL    C9318759   0.936   7.140   1.460 -0.2211 -0.3198 -1.5677
  154MOL    H9418760   0.985   7.290   1.314 -0.4741  0.2554 -1.7185
  154MOL    H9518761   0.831   7.297   1.378 -0.4551 -0.1740 -2.3464
  154MOL    H9618762   0.937   7.203   1.549  2.0236  2.7416 -3.6162
  154MOL    H9718763   0.848   7.078   1.474 -1.0319  1.1328 -0.1738
  154MOL    C9818764   1.066   7.057   1.441 -0.4768 -0.9237  0.5024
  154MOL    C9918765   1.102   6.981   1.570  0.6490 -0.2772  1.1606
  154MOL   H10018766   1.054   6.991   1.355  1.2793 -1.6620  0.7922
  154MOL   H10118767   1.142   7.133   1.422 -2.0154  1.0327  1.9448
  154MOL   H10218768   1.210   6.965   1.567  0.2888 -2.7676 -1.6059
  154MOL   H10318769   1.071   7.036   1.659 -1.5337  0.2353  0.1108
  154MOL   C10418770   1.029   6.846   1.573 -0.9241 -0.5454 -0.3178
  154MOL   C10518771   1.067   6.751   1.694  0.3244  0.7950 -0.7196
  154MOL   H10618772   0.921   6.845   1.564 -1.2128 -1.7873  2.7099
  154MOL   H10718773   1.063   6.801   1.479 -0.0666 -2.2510  0.7863
  154MOL   H10818774   1.029   6.652   1.667  1.1628  0.5227 -0.9229
  154MOL   H10918775   1.176   6.748   1.690  0.4553 -0.9396  2.4916
  154MOL   C11018776   1.014   6.802   1.837  0.6040 -0.2157  0.0095
  154MOL   C11118777   1.042   6.707   1.953 -0.7396  0.1221 -0.4995
  154MOL   H11218778   1.050   6.902   1.860  0.1664  0.0332 -0.3760
  154MOL   H11318779   0.906   6.801   1.821  0.8924 -2.6710 -2.1233
  154MOL   H11418780   1.001   6.608   1.932  0.0952 -0.2803 -0.2265
  154MOL   H11518781   1.150   6.695   1.953 -0.8375 -0.7615 -0.0559
  154MOL   C11618782   0.992   6.770   2.085  0.2028  0.9675 -0.8307
  154MOL   C11718783   1.103   6.856   2.148  0.3852  0.4846 -0.7457
  154MOL   H11818784   0.916   6.844   2.060 -2.6031 -1.4098  0.4104
  154MOL   H11918785   0.947   6.693   2.147  2.8541 -0.1391 -0.1982
  154MOL   H12018786   1.052   6.899   2.234 -0.0084 -0.3276 -0.5590
  154MOL   H12118787   1.182   6.794   2.190  0.1739  0.2578 -0.6750
  154MOL   H12218788   1.145   6.926   2.077  0.3290  1.2866  0.0069
  155MOL     C118789   5.722   4.860   3.147 -0.3483  0.0427  0.0980
  155MOL     C218790   5.792   4.854   3.013 -0.5273  0.2632  0.8713
  155MOL     H318791   5.715   4.965   3.175  1.9445  0.1580  0.3447
  155MOL     H418792   5.790   4.826   3.225  1.8483  1.1787 -1.2346
  155MOL     H518793   5.827   4.751   2.999 -1.1501  0.3278 -1.3436
  155MOL     H618794   5.719   4.863   2.932  2.0168  2.0217 -1.3084
  155MOL     H718795   5.634   4.798   3.158  1.1093 -1.7124  2.4372
  155MOL     C818796   5.905   4.965   3.002 -0.1820  0.1350  0.5661
  155MOL     C918797   5.860   5.105   2.968  0.5784  0.0828  0.0916
  155MOL    H1018798   5.967   4.973   3.091  2.3177 -1.2121 -0.9977
  155MOL    H1118799   5.969   4.926   2.923 -0.9592  2.6304 -1.3730
  155MOL    H1218800   5.825   5.086   2.866  1.0753  0.8075 -0.2205
  155MOL    H1318801   5.776   5.127   3.034  1.3834  0.3003  1.0461
  155MOL    C1418802   5.961   5.221   2.966 -0.0668  0.4040 -0.0920
  155MOL    C1518803   5.898   5.360   2.958 -0.1918 -0.1367  0.3291
  155MOL    H1618804   6.020   5.215   3.056  1.2473  0.3855 -0.9456
  155MOL    H1718805   6.030   5.202   2.884 -0.8718 -0.9450 -0.4761
  155MOL    H1818806   5.843   5.364   2.864  1.7964 -0.2612 -0.8651
  155MOL    H1918807   5.840   5.373   3.050 -1.0818 -1.4488 -0.0373
  155MOL    C2018808   6.008   5.464   2.947 -0.3221 -0.2838 -0.2781
  155MOL    C2118809   5.959   5.615   2.966  0.0674  0.2139  0.3772
  155MOL    H2218810   6.089   5.441   3.017  1.3707 -0.3894 -2.2299
  155MOL    H2318811   6.056   5.459   2.849  2.2894 -0.9702  0.9806
  155MOL    H2418812   5.898   5.652   2.883 -2.3913 -1.9857  1.1691
  155MOL    H2518813   5.912   5.621   3.063  1.6460  0.9611  1.1216
  155MOL    C2618814   6.080   5.702   2.970  0.9408  0.2336 -0.2600
  155MOL    C2718815   6.046   5.856   2.953  0.0732  0.5123 -0.3681
  155MOL    H2818816   6.131   5.685   3.065  0.2661 -2.6410 -0.3680
  155MOL    H2918817   6.151   5.663   2.897  0.2702 -1.2277 -0.1666
  155MOL    H3018818   6.039   5.847   2.845  0.5027  0.6291 -0.4065
  155MOL    H3118819   5.945   5.874   2.989  0.6487 -0.5833  1.8853
  155MOL    C3218820   6.157   5.956   2.992  0.4097  0.0632  0.5334
  155MOL    C3318821   6.112   6.104   2.978  0.4151 -0.1600 -0.4591
  155MOL    H3418822   6.186   5.949   3.096  1.1220  1.9050  0.4712
  155MOL    H3518823   6.249   5.945   2.935 -1.1827 -0.9996 -1.9613
  155MOL    H3618824   6.194   6.175   2.967  1.5174 -1.0322  1.7982
  155MOL    H3718825   6.070   6.104   2.877 -0.3905 -0.6152 -0.1270
  155MOL    C3818826   5.998   6.153   3.069  0.1634  0.5453  0.2032
  155MOL    C3918827   5.934   6.293   3.045  0.3452  0.2399 -0.0727
  155MOL    H4018828   5.919   6.080   3.051 -0.3782  1.4963 -1.3553
  155MOL    H4118829   6.021   6.138   3.175  0.4745  0.9516  0.1968
  155MOL    H4218830   5.986   6.380   3.088  0.5432  1.1217 -2.0250
  155MOL    H4318831   5.928   6.315   2.938 -2.7678 -0.6810 -0.1066
  155MOL    C4418832   5.787   6.316   3.084 -0.3693  0.1398 -0.0773
  155MOL    C4518833   5.746   6.466   3.103  0.1180  0.3051  0.0043
  155MOL    H4618834   5.708   6.268   3.026 -0.4244 -0.3934  0.4310
  155MOL    H4718835   5.772   6.253   3.171  0.7234  0.3766  0.2864
  155MOL    H4818836   5.811   6.512   3.178 -1.6871  1.1514  1.0662
  155MOL    H4918837   5.761   6.512   3.005 -0.1016  1.5923  0.5609
  155MOL    C5018838   5.598   6.501   3.135 -0.2991 -0.0894  0.0291
  155MOL    C5118839   5.576   6.649   3.180 -0.2467  0.2134  0.5212
  155MOL    H5218840   5.528   6.481   3.054  0.7468 -0.7342 -0.7306
  155MOL    H5318841   5.575   6.436   3.220  1.9662 -1.1750 -0.1428
  155MOL    H5418842   5.650   6.670   3.258 -1.2454 -0.0302  1.5402
  155MOL    H5518843   5.594   6.725   3.104 -0.7736 -0.9450 -0.7746
  155MOL    C5618844   5.431   6.664   3.228  0.2481 -0.0765  0.0976
  155MOL    C5718845   5.335   6.729   3.128  0.1496  0.1643  0.3526
  155MOL    H5818846   5.392   6.568   3.263 -4.2631  1.3965 -0.5590
  155MOL    H5918847   5.438   6.736   3.310 -2.5199  0.9482 -0.5212
  155MOL    H6018848   5.375   6.817   3.077  1.0360 -0.3572  0.1405
  155MOL    H6118849   5.312   6.657   3.050 -1.0210  0.2592  0.5923
  155MOL    C6218850   5.198   6.764   3.188 -0.6865 -0.3046  0.0661
  155MOL    C6318851   5.093   6.820   3.089 -0.4337 -0.5597  0.2001
  155MOL    H6418852   5.165   6.677   3.244 -0.2258  0.1348  1.0357
  155MOL    H6518853   5.217   6.840   3.263 -1.0495 -0.2426  0.0998
  155MOL    H6618854   5.134   6.918   3.060  0.2259 -0.7214  0.5759
  155MOL    H6718855   5.079   6.748   3.009  1.5574 -1.5981  0.7557
  155MOL    C6818856   4.969   6.851   3.166  0.1600  0.0379  0.0080
  155MOL    C6918857   4.869   6.957   3.104 -0.2697  0.1062  0.7911
  155MOL    H7018858   4.914   6.760   3.188  0.3333  0.2314  1.2736
  155MOL    H7118859   5.003   6.902   3.257  1.0996 -0.4914 -0.0438
  155MOL    H7218860   4.924   7.040   3.060  0.8882 -0.1882  1.6638
  155MOL    H7318861   4.829   6.908   3.015 -2.3660  0.5469  1.4686
  155MOL    C7418862   4.753   7.005   3.192  0.4687 -0.4575 -0.1205
  155MOL    C7518863   4.794   7.077   3.323  0.7085  0.4616 -0.5355
  155MOL    H7618864   4.699   7.078   3.131 -0.7298 -1.8666 -0.7722
  155MOL    H7718865   4.679   6.926   3.208 -0.2209 -0.4668 -3.1191
  155MOL    H7818866   4.828   7.003   3.397 -1.1343 -1.1836 -1.2937
  155MOL    H7918867   4.863   7.159   3.302 -1.7569  3.3513  2.1606
  155MOL    C8018868   4.679   7.148   3.393 -0.2864  0.6976  0.0973
  155MOL    C8118869   4.700   7.299   3.419  0.3806 -0.1449 -0.1864
  155MOL    H8218870   4.595   7.126   3.327 -2.0654 -1.8411  3.0415
  155MOL    H8318871   4.646   7.095   3.483  0.7259  0.0893  0.1074
  155MOL    H8418872   4.772   7.301   3.501  0.1160 -1.1275  0.0728
  155MOL    H8518873   4.732   7.348   3.326 -2.1520  2.3064  0.1488
  155MOL    C8618874   4.575   7.378   3.461 -0.2819 -0.0174  0.1077
  155MOL    C8718875   4.604   7.531   3.468  0.4815  0.7288  0.1382
  155MOL    H8818876   4.502   7.363   3.381 -0.0910 -1.1087  0.1220
  155MOL    H8918877   4.541   7.340   3.557 -2.2706 -1.7065 -1.2204
  155MOL    H9018878   4.657   7.549   3.374 -0.9706  0.5036 -0.7520
  155MOL    H9118879   4.519   7.599   3.461 -0.7824 -1.0285 -2.5752
  155MOL    C9218880   4.673   7.557   3.601 -0.0944  0.0884  0.5944
  155MOL    C9318881   4.772   7.670   3.605  0.1832  0.3982  0.3513
  155MOL    H9418882   4.591   7.587   3.667 -2.5001 -2.7682 -0.9434
  155MOL    H9518883   4.724   7.470   3.642  0.3702  1.2155  2.4675
  155MOL    H9618884   4.741   0.076   3.570 -1.8498  0.3393  1.9038
  155MOL    H9718885   4.780   7.690   3.712 -3.7032  1.5512  0.4993
  155MOL    C9818886   4.903   7.635   3.539 -0.1568  0.2202  0.0661
  155MOL    C9918887   5.011   0.049   3.550 -0.3361  0.7832 -0.2230
  155MOL   H10018888   4.940   7.543   3.585 -0.6990 -0.1337 -0.2093
  155MOL   H10118889   4.891   7.614   3.432 -0.5089  0.3104  0.0895
  155MOL   H10218890   4.972   0.146   3.518 -0.5091  0.3787 -1.2494
  155MOL   H10318891   5.032   0.065   3.656 -1.7628  1.0706  0.0309
  155MOL   C10418892   5.137   0.006   3.476 -0.8968 -0.4541 -0.4556
  155MOL   C10518893   5.211   7.588   3.548 -0.2040 -0.0554 -0.0277
  155MOL   H10618894   5.114   7.678   3.371 -0.9993 -1.7368 -0.2035
  155MOL   H10718895   5.209   0.086   3.458 -0.3727 -0.9486 -0.5794
  155MOL   H10818896   5.195   7.586   3.656  2.4979  0.3797  0.4008
  155MOL   H10918897   5.152   7.501   3.517 -2.7987  1.0652  1.5827
  155MOL   C11018898   5.364   7.584   3.517 -0.1797 -0.5610  0.1754
  155MOL   C11118899   5.429   7.455   3.568  0.3767 -0.1999 -0.3175
  155MOL   H11218900   5.366   7.571   3.409 -0.6573 -0.7667  0.1867
  155MOL   H11318901   5.413   7.680   3.532 -1.4910  0.0591  0.5676
  155MOL   H11418902   5.425   7.448   3.676  1.3655  0.1376 -0.2476
  155MOL   H11518903   5.380   7.366   3.529  0.4252 -0.7702  0.9156
  155MOL   C11618904   5.576   7.459   3.525  0.8463 -0.2294 -0.1883
  155MOL   C11718905   5.656   7.347   3.581  0.2042 -1.1492 -0.1208
  155MOL   H11818906   5.580   7.460   3.416 -0.6007 -1.7464 -0.2828
  155MOL   H11918907   5.623   7.552   3.554  1.5324 -0.7198  0.3052
  155MOL   H12018908   5.613   7.247   3.573 -0.1793 -1.1801  2.0452
  155MOL   H12118909   5.757   7.339   3.541  0.5937 -0.5198  0.7039
  155MOL   H12218910   5.662   7.363   3.689  0.5379 -0.7531 -0.1979
  156MOL     C118911   2.595   7.679   4.760  0.2481 -0.6688  0.1391
  156MOL     C218912   2.711   7.598   4.700  0.1833 -0.0634 -0.4747
  156MOL     H318913   2.636   0.036   4.849 -0.7788  2.0785 -0.8538
  156MOL     H418914   2.501   7.625   4.771 -0.0053 -0.1552  0.5252
  156MOL     H518915   2.805   7.651   4.716 -0.2829 -0.1076  2.7786
  156MOL     H618916   2.738   7.517   4.768 -0.3076 -0.6750 -1.0087
  156MOL     H718917   2.596   0.069   4.688 -0.8099 -0.5359  0.2663
  156MOL     C818918   2.687   7.542   4.561 -0.5193  0.0789  0.6030
  156MOL     C918919   2.795   7.440   4.525 -0.0601 -0.2804  0.3878
  156MOL    H1018920   2.587   7.498   4.556 -0.0834 -0.7515 -1.3629
  156MOL    H1118921   2.678   7.632   4.499 -0.8936 -0.8672 -0.7359
  156MOL    H1218922   2.880   7.492   4.481 -0.3123 -0.8164 -0.7316
  156MOL    H1318923   2.831   7.396   4.618  0.6725  0.5538  0.5075
  156MOL    C1418924   2.750   7.329   4.427 -0.4120  0.0148 -0.9069
  156MOL    C1518925   2.843   7.210   4.409 -0.7090  0.7274 -0.0750
  156MOL    H1618926   2.655   7.290   4.463 -1.1426  0.7235 -2.0228
  156MOL    H1718927   2.732   7.374   4.329  1.1747  1.1479 -0.6907
  156MOL    H1818928   2.942   7.226   4.366  0.6337 -0.5249  2.4455
  156MOL    H1918929   2.871   7.156   4.500  0.0689 -0.0327 -0.7473
  156MOL    C2018930   2.777   7.097   4.325 -0.0999 -0.7262 -0.4405
  156MOL    C2118931   2.871   6.978   4.303 -0.2534 -0.2199 -0.0820
  156MOL    H2218932   2.690   7.054   4.376 -0.5387  1.2854  0.5649
  156MOL    H2318933   2.748   7.144   4.231 -1.6711  0.9639  0.8328
  156MOL    H2418934   2.970   7.011   4.272 -0.8615  1.3662 -0.3883
  156MOL    H2518935   2.881   6.932   4.402 -0.2039  0.7101  0.3565
  156MOL    C2618936   2.815   6.868   4.203  0.2132 -0.0996  0.2777
  156MOL    C2718937   2.890   6.733   4.202 -0.5683 -0.1766 -0.7271
  156MOL    H2818938   2.716   6.853   4.246  0.2027  0.6178  0.5178
  156MOL    H2918939   2.796   6.911   4.105 -0.0117 -0.1492  0.2980
  156MOL    H3018940   2.994   6.741   4.170 -0.1780 -1.6396  0.1512
  156MOL    H3118941   2.892   6.692   4.302  1.4380 -1.8258 -1.4238
  156MOL    C3218942   2.822   6.623   4.108 -0.5737  0.9955  0.0382
  156MOL    C3318943   2.918   6.506   4.083 -0.3294  0.1138 -0.3214
  156MOL    H3418944   2.725   6.584   4.139  1.2482 -4.4545 -0.5505
  156MOL    H3518945   2.813   6.667   4.009  0.2422  0.4208 -0.3002
  156MOL    H3618946   3.010   6.537   4.034 -1.6118 -0.5271 -3.2194
  156MOL    H3718947   2.943   6.464   4.180 -1.9001 -1.7932 -0.7017
  156MOL    C3818948   2.861   6.388   4.000  0.0299 -0.1180  0.2123
  156MOL    C3918949   2.961   6.281   3.968  0.1620 -0.8082  0.0922
  156MOL    H4018950   2.775   6.353   4.058  1.3357  0.2330  2.4338
  156MOL    H4118951   2.819   6.431   3.909 -1.3546 -2.7066 -0.4155
  156MOL    H4218952   3.052   6.323   3.924 -0.2276 -0.0217  0.0190
  156MOL    H4318953   2.999   6.239   4.060  0.6715 -2.6764 -0.9430
  156MOL    C4418954   2.912   6.167   3.876  0.0162  0.3781 -0.2983
  156MOL    C4518955   2.987   6.034   3.902 -0.6591  0.8031  0.3804
  156MOL    H4618956   2.807   6.140   3.889  0.1436  0.1295  0.2346
  156MOL    H4718957   2.905   6.192   3.770 -0.8389  0.9271 -0.1158
  156MOL    H4818958   3.091   6.054   3.879 -0.1021 -0.1460  1.9699
  156MOL    H4918959   2.972   6.004   4.006 -1.7959 -1.7475 -0.4739
  156MOL    C5018960   2.946   5.917   3.805  0.1828  0.1866  0.7965
  156MOL    C5118961   3.035   5.794   3.800  0.3249 -0.1798 -0.3070
  156MOL    H5218962   2.844   5.892   3.835 -0.6685  0.8202 -1.4214
  156MOL    H5318963   2.940   5.956   3.703  3.3713  0.0748  0.5333
  156MOL    H5418964   3.135   5.819   3.767  0.8794  0.4048  1.7334
  156MOL    H5518965   3.042   5.757   3.903 -1.6639 -0.4157 -0.2307
  156MOL    C5618966   2.972   5.679   3.718 -0.2361  0.0865  0.4671
  156MOL    C5718967   3.083   5.583   3.674  0.0880  0.0167 -0.2526
  156MOL    H5818968   2.905   5.623   3.783 -1.2790  0.9123  0.1164
  156MOL    H5918969   2.911   5.715   3.635 -1.1867 -1.2659  0.5520
  156MOL    H6018970   3.137   5.627   3.589  0.0002 -1.8462 -1.2955
  156MOL    H6118971   3.156   5.568   3.754 -0.5304  0.2348  0.3581
  156MOL    C6218972   3.022   5.449   3.632 -0.2639 -0.2781 -0.1156
  156MOL    C6318973   3.126   5.348   3.604  0.6006 -0.3086  0.3242
  156MOL    H6418974   2.963   5.413   3.716  2.7873 -0.5388  2.0147
  156MOL    H6518975   2.953   5.463   3.549 -0.6850  0.5106  0.3608
  156MOL    H6618976   3.198   5.372   3.526  1.6457 -0.2672  1.2835
  156MOL    H6718977   3.190   5.336   3.691  2.4597 -2.6143 -1.3120
  156MOL    C6818978   3.055   5.217   3.563  0.3132  0.1415  0.1394
  156MOL    C6918979   3.156   5.103   3.559 -0.4332  0.2399 -0.3382
  156MOL    H7018980   2.993   5.198   3.650 -0.9763  1.8491 -0.3766
  156MOL    H7118981   3.000   5.233   3.470 -0.6083  1.2559  0.8587
  156MOL    H7218982   3.240   5.142   3.501 -1.1056 -0.1185 -1.5813
  156MOL    H7318983   3.199   5.089   3.658  0.5978  1.0080 -0.6721
  156MOL    C7418984   3.113   4.974   3.492  0.4536 -0.0041 -0.7226
  156MOL    C7518985   3.223   4.873   3.471  1.2432  0.5130 -0.6010
  156MOL    H7618986   3.031   4.928   3.547 -0.2494 -1.3153 -2.8211
  156MOL    H7718987   3.075   5.006   3.395  0.3547  1.5967 -0.1726
  156MOL    H7818988   3.305   4.906   3.407  0.2625  2.8266 -0.7210
  156MOL    H7918989   3.269   4.854   3.568  2.8772  3.1582 -0.8284
  156MOL    C8018990   3.158   4.736   3.418 -0.0008 -0.0884 -0.2541
  156MOL    C8118991   3.237   4.604   3.426  0.2141  0.7651 -0.3105
  156MOL    H8218992   3.062   4.731   3.470 -0.0979  0.3075 -0.3924
  156MOL    H8318993   3.126   4.756   3.316 -0.7528 -0.6767 -0.1336
  156MOL    H8418994   3.325   4.619   3.365 -0.0002 -1.4973 -1.2172
  156MOL    H8518995   3.275   4.577   3.525  3.3787 -2.8398 -2.3806
  156MOL    C8618996   3.157   4.497   3.356 -0.2043 -0.0692  0.9504
  156MOL    C8718997   3.212   4.354   3.382  0.7844 -0.0164 -0.2988
  156MOL    H8818998   3.052   4.494   3.387 -0.7927 -0.5891 -0.9999
  156MOL    H8918999   3.151   4.513   3.248  1.3501 -2.0333  0.5420
  156MOL    H9019000   3.321   4.350   3.383  0.7204 -2.7073 -0.0351
  156MOL    H9119001   3.178   4.331   3.483 -1.0732  0.3722 -0.8281
  156MOL    C9219002   3.159   4.240   3.286  0.4186 -0.1886  0.2106
  156MOL    C9319003   3.236   4.110   3.296 -0.0847 -0.2962  0.4415
  156MOL    H9419004   3.057   4.220   3.319  0.3908  1.6028  1.2728
  156MOL    H9519005   3.157   4.268   3.181  0.8243  4.4036  1.3453
  156MOL    H9619006   3.342   4.134   3.301  0.0721 -0.6106 -1.0301
  156MOL    H9719007   3.199   4.057   3.384 -0.9941 -3.1942 -1.5585
  156MOL    C9819008   3.209   4.016   3.179  0.1096 -0.0859  0.7180
  156MOL    C9919009   3.270   3.874   3.201  0.4743 -0.6187  0.3431
  156MOL   H10019010   3.103   3.995   3.167  0.0599 -0.4818  1.7823
  156MOL   H10119011   3.245   4.062   3.086  1.4587  0.8052  1.6504
  156MOL   H10219012   3.232   3.820   3.288 -0.7107  3.0175  2.1637
  156MOL   H10319013   3.240   3.814   3.115  1.6246  0.8203 -1.0751
  156MOL   C10419014   3.425   3.880   3.205  0.9149 -0.8230 -0.1703
  156MOL   C10519015   3.483   3.740   3.186 -1.1557  0.0305 -0.3367
  156MOL   H10619016   3.452   3.950   3.126 -0.7687  0.1651  0.1063
  156MOL   H10719017   3.449   3.918   3.304  2.2950 -1.8038 -0.1136
  156MOL   H10819018   3.437   3.686   3.103  0.9262  0.5832 -1.8839
  156MOL   H10919019   3.588   3.750   3.160 -0.7887 -2.7609 -0.0644
  156MOL   C11019020   3.468   3.650   3.314  0.6558 -0.9343 -0.6129
  156MOL   C11119021   3.544   3.515   3.302  0.2981  0.1838 -0.1824
  156MOL   H11219022   3.515   3.710   3.392 -2.3230 -0.1424  0.6509
  156MOL   H11319023   3.366   3.637   3.352  0.7152  1.5802  0.5313
  156MOL   H11419024   3.649   3.539   3.283  0.2006 -0.2643 -1.3253
  156MOL   H11519025   3.545   3.472   3.402 -1.1900 -0.0562 -0.2592
  156MOL   C11619026   3.491   3.420   3.191 -0.1560  0.0213 -0.2307
  156MOL   C11719027   3.350   3.376   3.219  0.8506  0.6784  0.5545
  156MOL   H11819028   3.489   3.458   3.089 -0.6161 -0.1951 -0.3025
  156MOL   H11919029   3.549   3.329   3.177  2.6465  1.9606 -1.5868
  156MOL   H12019030   3.355   3.302   3.299 -2.4069 -3.1599 -2.5627
  156MOL   H12119031   3.291   3.464   3.245  1.6240  0.7913  1.9673
  156MOL   H12219032   3.302   3.331   3.132  0.7375 -4.6572  3.1482
  157MOL     C119033   3.080   7.419   5.115  0.0478  0.0307 -0.2691
  157MOL     C219034   3.087   7.275   5.165 -0.0871  0.6550  0.3470
  157MOL     H319035   3.170   7.477   5.133  0.5400 -0.6367 -0.5294
  157MOL     H419036   2.996   7.474   5.157 -0.1497  0.7877 -1.6388
  157MOL     H519037   3.068   7.275   5.272 -2.4343 -0.4029 -0.0166
  157MOL     H619038   3.006   7.220   5.116  0.0205  2.6653 -2.1956
  157MOL     H719039   3.043   7.433   5.013 -3.2912  0.9059  1.0190
  157MOL     C819040   3.224   7.213   5.137 -1.3098  0.4663  0.2505
  157MOL     C919041   3.252   7.060   5.172 -0.1576  0.1427  0.5452
  157MOL    H1019042   3.261   7.228   5.036  4.5426 -1.2257  1.9146
  157MOL    H1119043   3.303   7.265   5.191 -0.1679 -0.1760 -0.7492
  157MOL    H1219044   3.194   7.027   5.259  0.2554  0.6444  1.0132
  157MOL    H1319045   3.205   7.000   5.094 -1.1502 -0.9201  1.9270
  157MOL    C1419046   3.403   7.018   5.202 -0.8200  0.3871  0.2373
  157MOL    C1519047   3.431   6.874   5.199 -0.5172  0.6210  0.2437
  157MOL    H1619048   3.485   7.060   5.143 -1.3562  0.8447 -0.1902
  157MOL    H1719049   3.427   7.041   5.306 -0.7023  2.9736 -0.3457
  157MOL    H1819050   3.529   6.845   5.237  0.1201 -0.9382 -2.4838
  157MOL    H1919051   3.367   6.819   5.269 -2.7637  2.0992 -0.5971
  157MOL    C2019052   3.425   6.821   5.055 -0.2360 -0.2213 -0.5321
  157MOL    C2119053   3.459   6.674   5.056 -0.7313 -0.9782  0.4913
  157MOL    H2219054   3.324   6.837   5.016  0.3663  1.1017 -1.5660
  157MOL    H2319055   3.478   6.882   4.982  1.7629  1.6611  2.4089
  157MOL    H2419056   3.556   6.664   5.104 -0.3110  1.3002  0.1682
  157MOL    H2519057   3.386   6.618   5.115 -0.8942 -0.5299  0.7151
  157MOL    C2619058   3.455   6.628   4.904  0.3983 -0.1165 -0.5411
  157MOL    C2719059   3.483   6.477   4.889  0.0834 -0.4377 -0.7900
  157MOL    H2819060   3.360   6.660   4.861  0.0735  3.3724  2.4608
  157MOL    H2919061   3.528   6.689   4.851  1.4858 -0.4054  0.5903
  157MOL    H3019062   3.584   6.472   4.929  1.1373  0.5565 -3.2623
  157MOL    H3119063   3.426   6.422   4.964  1.6627 -0.9929  0.0199
  157MOL    C3219064   3.474   6.430   4.749 -0.8968  0.7308 -1.0143
  157MOL    C3319065   3.510   6.287   4.740 -0.5594  0.1143 -0.7246
  157MOL    H3419066   3.375   6.444   4.706 -0.9493  0.7261 -0.8974
  157MOL    H3519067   3.543   6.491   4.692  0.3938 -1.7725 -2.2085
  157MOL    H3619068   3.611   6.265   4.776 -0.9300 -2.1335 -0.9475
  157MOL    H3719069   3.446   6.234   4.810 -1.9337  3.4531  0.6077
  157MOL    C3819070   3.495   6.236   4.597  0.7484 -0.2623 -0.3460
  157MOL    C3919071   3.559   6.099   4.575  0.0713  0.5727 -0.8570
  157MOL    H4019072   3.390   6.236   4.569 -0.3472  1.1859  3.4833
  157MOL    H4119073   3.531   6.314   4.530 -0.8447  0.0600 -0.8502
  157MOL    H4219074   3.661   6.093   4.614 -0.8182 -1.3107  1.3396
  157MOL    H4319075   3.509   6.032   4.645 -1.4658  1.4855 -1.0741
  157MOL    C4419076   3.566   6.042   4.442 -0.5257 -1.0365  0.4255
  157MOL    C4519077   3.637   5.902   4.435  0.5433 -0.0582  0.1889
  157MOL    H4619078   3.468   6.039   4.394 -0.6375 -0.2785  0.6063
  157MOL    H4719079   3.631   6.107   4.383 -0.6398 -1.3925 -0.0947
  157MOL    H4819080   3.737   5.919   4.475  0.5038  1.1689 -0.1948
  157MOL    H4919081   3.592   5.827   4.499 -0.5897  1.3958  1.1295
  157MOL    C5019082   3.658   5.855   4.291  0.0926  0.1496 -0.5520
  157MOL    C5119083   3.711   5.707   4.284  0.0643  0.1233 -0.0716
  157MOL    H5219084   3.563   5.867   4.238 -0.3133  0.9891  0.3358
  157MOL    H5319085   3.731   5.916   4.238  1.9811 -0.8140  0.9198
  157MOL    H5419086   3.803   5.702   4.342  0.1940  2.7597  0.0511
  157MOL    H5519087   3.633   5.639   4.317  1.1217 -2.5067 -2.8240
  157MOL    C5619088   3.769   5.668   4.149  0.3949 -0.5577  0.3470
  157MOL    C5719089   3.853   5.535   4.162 -0.1298 -0.3083 -0.0746
  157MOL    H5819090   3.695   5.652   4.070  1.0029 -2.2759  0.0996
  157MOL    H5919091   3.841   5.739   4.108  0.2457 -1.1534 -0.9723
  157MOL    H6019092   3.957   5.549   4.191 -0.3107  2.0903 -0.4313
  157MOL    H6119093   3.808   5.457   4.223  1.2849 -0.7182  0.4492
  157MOL    C6219094   3.852   5.460   4.024 -0.8767 -0.0113 -0.0411
  157MOL    C6319095   3.928   5.332   4.030 -0.0787  0.3777 -0.0079
  157MOL    H6419096   3.753   5.425   3.994 -0.0986 -1.5136 -0.9235
  157MOL    H6519097   3.898   5.509   3.939 -0.5063 -1.5427 -0.7400
  157MOL    H6619098   4.033   5.348   4.056  0.4596 -1.1296 -1.1873
  157MOL    H6719099   3.898   5.263   4.109  0.2451  1.7781  1.3740
  157MOL    C6819100   3.923   5.247   3.912  0.4277  0.3835 -0.6573
  157MOL    C6919101   4.000   5.117   3.925  0.0920  0.2567 -0.6040
  157MOL    H7019102   3.819   5.221   3.892  0.2894  0.1894  0.2862
  157MOL    H7119103   3.963   5.311   3.834  0.8088  0.5969 -0.2864
  157MOL    H7219104   4.104   5.148   3.941 -0.5141  0.3849  3.6504
  157MOL    H7319105   3.969   5.058   4.011 -3.4292  1.9601 -0.6084
  157MOL    C7419106   3.989   5.019   3.809  1.2907 -0.3048 -0.0070
  157MOL    C7519107   4.090   4.911   3.824  0.0863  0.0386 -0.3606
  157MOL    H7619108   3.884   4.993   3.804  1.0883  0.6963 -1.2881
  157MOL    H7719109   3.998   5.072   3.714  0.8781 -1.3586 -0.6368
  157MOL    H7819110   4.086   4.859   3.728 -1.3557 -0.3316 -0.1029
  157MOL    H7919111   4.192   4.949   3.830  1.0131 -2.7053  3.3210
  157MOL    C8019112   4.066   4.806   3.937  0.7364  0.2646 -0.0081
  157MOL    C8119113   4.142   4.672   3.913  0.7416  0.6628 -0.3231
  157MOL    H8219114   4.070   4.851   4.036 -1.1547 -2.4805  1.3781
  157MOL    H8319115   3.962   4.772   3.940  0.7315  0.2160 -0.6903
  157MOL    H8419116   4.113   4.602   3.992  0.7996  2.0299  0.9253
  157MOL    H8519117   4.102   4.622   3.825  0.6149  1.1887 -0.5621
  157MOL    C8619118   4.295   4.682   3.907 -0.1996  0.4897 -0.3377
  157MOL    C8719119   4.363   4.541   3.911 -0.7319 -0.2860 -0.2182
  157MOL    H8819120   4.326   4.732   3.816 -2.3199  0.6170 -1.0221
  157MOL    H8919121   4.330   4.733   3.997  3.5350 -0.2579 -1.3019
  157MOL    H9019122   4.315   4.482   3.989 -1.6611  1.1079  0.2902
  157MOL    H9119123   4.346   4.471   3.830  0.0909 -1.2713  0.4518
  157MOL    C9219124   4.519   4.555   3.927  0.8383 -0.4809  0.1902
  157MOL    C9319125   4.595   4.420   3.926  0.1984 -0.4703  0.2234
  157MOL    H9419126   4.555   4.622   3.850 -2.6183  0.2130 -0.9270
  157MOL    H9519127   4.534   4.596   4.027 -0.4003  0.1042  0.1480
  157MOL    H9619128   4.591   4.361   4.017 -0.5257 -2.9340 -1.3429
  157MOL    H9719129   4.556   4.349   3.852 -1.0842  0.9804 -0.5288
  157MOL    C9819130   4.739   4.452   3.883  0.3503 -0.6466 -0.2602
  157MOL    C9919131   4.834   4.326   3.885  0.4403 -0.6884 -0.6779
  157MOL   H10019132   4.746   4.496   3.784  1.2993  0.1657  0.1584
  157MOL   H10119133   4.765   4.527   3.958  0.2241  1.3477 -2.1462
  157MOL   H10219134   4.783   4.248   3.828 -0.2287 -0.5442 -0.2821
  157MOL   H10319135   4.922   4.350   3.825 -0.5419 -3.1287 -3.1822
  157MOL   C10419136   4.874   4.274   4.025 -0.0231  0.5096 -0.5160
  157MOL   C10519137   4.982   4.165   4.009 -0.2941 -0.4130 -0.0480
  157MOL   H10619138   4.914   4.357   4.083 -0.5999 -0.1070  0.7886
  157MOL   H10719139   4.786   4.236   4.079  0.2307  0.3977 -0.1790
  157MOL   H10819140   4.944   4.079   3.952 -1.6236 -0.8178  1.3955
  157MOL   H10919141   5.062   4.210   3.951 -0.4797  1.5109  1.1546
  157MOL   C11019142   5.035   4.120   4.148 -0.5586 -0.2726  0.0088
  157MOL   C11119143   5.126   4.002   4.142  0.5514  0.0794 -0.2136
  157MOL   H11219144   5.099   4.195   4.196 -0.6819 -0.3792  0.3386
  157MOL   H11319145   4.954   4.105   4.219  0.8591 -0.8090  1.5598
  157MOL   H11419146   5.070   3.910   4.128  0.7398  0.0177 -0.5485
  157MOL   H11519147   5.187   3.998   4.052 -0.2707 -1.4986 -0.7270
  157MOL   C11619148   5.206   3.969   4.268  0.0324  0.0333 -0.0244
  157MOL   C11719149   5.335   4.062   4.282 -0.0150  0.3250 -0.9045
  157MOL   H11819150   5.142   3.970   4.356 -1.5633 -1.1314 -1.1373
  157MOL   H11919151   5.229   3.864   4.252 -0.7621  0.1237 -1.8916
  157MOL   H12019152   5.385   4.057   4.186  1.0370 -3.1591 -0.2712
  157MOL   H12119153   5.291   4.161   4.291 -0.2635  0.2926 -1.7783
  157MOL   H12219154   5.405   4.036   4.362  0.4899 -2.5608 -2.2149
  158MOL     C119155   0.826   2.256   3.230 -0.1784 -0.1836  0.5665
  158MOL     C219156   0.894   2.151   3.142 -0.2727 -0.5255  0.3061
  158MOL     H319157   0.735   2.292   3.181 -0.0930 -3.4229 -2.1836
  158MOL     H419158   0.898   2.337   3.242  0.9344 -1.0759  0.0352
  158MOL     H519159   0.986   2.146   3.200  0.0471  3.1894  0.2049
  158MOL     H619160   0.848   2.052   3.133  0.5381 -0.8194 -0.7213
  158MOL     H719161   0.796   2.210   3.324  0.7197 -0.8663  0.5219
  158MOL     C819162   0.915   2.206   3.002 -0.4358  0.0595 -0.1363
  158MOL     C919163   0.785   2.201   2.915 -0.0533 -0.8656 -0.1181
  158MOL    H1019164   0.959   2.306   3.008  2.1457 -1.1254  1.5728
  158MOL    H1119165   0.987   2.137   2.958 -0.2853 -0.3596  0.7527
  158MOL    H1219166   0.752   2.099   2.935  0.9962 -1.3274 -0.7001
  158MOL    H1319167   0.708   2.268   2.954  1.1360  1.8631 -2.2850
  158MOL    C1419168   0.814   2.242   2.770  0.8999 -0.1584 -0.4462
  158MOL    C1519169   0.690   2.241   2.684  0.2857 -0.2082 -0.2964
  158MOL    H1619170   0.870   2.336   2.766  2.8285 -1.3385 -3.2260
  158MOL    H1719171   0.887   2.171   2.730  2.8473  2.0281 -0.9109
  158MOL    H1819172   0.625   2.314   2.732 -1.0992 -1.2775 -0.5242
  158MOL    H1919173   0.717   2.283   2.587 -2.6650  0.5953 -0.8137
  158MOL    C2019174   0.623   2.105   2.671  0.6343 -0.2475  0.5841
  158MOL    C2119175   0.517   2.101   2.570 -0.8871  0.3417  0.5249
  158MOL    H2219176   0.697   2.027   2.655 -0.5291 -1.1384 -0.5688
  158MOL    H2319177   0.589   2.080   2.771  2.2815 -2.2819  0.6712
  158MOL    H2419178   0.441   2.177   2.588 -0.8365  1.0199 -2.0273
  158MOL    H2519179   0.572   2.135   2.483 -2.2744  0.8253 -0.1679
  158MOL    C2619180   0.431   1.965   2.547 -0.4647 -0.6407 -0.8533
  158MOL    C2719181   0.339   1.953   2.421 -0.1648  0.3675 -0.2598
  158MOL    H2819182   0.506   1.886   2.539 -0.8790 -1.0266 -0.9804
  158MOL    H2919183   0.373   1.946   2.637  0.8277  2.4410  0.6906
  158MOL    H3019184   0.410   1.967   2.339 -0.4256 -0.8796 -0.6984
  158MOL    H3119185   0.284   1.860   2.422 -0.1514  0.3610 -0.0998
  158MOL    C3219186   0.240   2.076   2.416  0.3129  0.0201  0.8351
  158MOL    C3319187   0.128   2.039   2.324 -0.4415  0.0861 -0.0035
  158MOL    H3419188   0.201   2.097   2.515 -1.9433  2.1576 -0.4380
  158MOL    H3519189   0.277   2.174   2.384 -0.8724 -0.1030 -0.9735
  158MOL    H3619190   0.167   1.999   2.230 -1.2412 -1.6811  0.3949
  158MOL    H3719191   0.062   1.965   2.370 -0.6472 -0.7193 -1.5205
  158MOL    C3819192   0.036   2.151   2.283 -0.3328  0.3003  0.4907
  158MOL    C3919193   7.628   2.109   2.170 -0.0987 -0.0189  0.3991
  158MOL    H4019194   7.671   2.187   2.368  1.3891  0.1001  1.7544
  158MOL    H4119195   0.097   2.240   2.263 -0.5466  0.2916 -0.2206
  158MOL    H4219196   7.668   2.050   2.088  0.6710 -0.0540  0.8035
  158MOL    H4319197   7.561   2.042   2.224 -1.9971 -0.2287 -2.1122
  158MOL    C4419198   7.533   2.221   2.122  0.4689 -0.0394 -0.5910
  158MOL    C4519199   7.602   2.351   2.096  0.5117 -0.2178  0.0236
  158MOL    H4619200   7.478   2.187   2.035  0.6093 -0.3507 -0.5620
  158MOL    H4719201   7.457   2.250   2.195 -0.6393  3.3406 -2.9802
  158MOL    H4819202   7.634   2.402   2.186  0.8597  1.6350 -1.1217
  158MOL    H4919203   7.682   2.320   2.029  1.2444  0.1833  0.7123
  158MOL    C5019204   7.508   2.446   2.017  0.2906 -0.5130  0.2873
  158MOL    C5119205   7.568   2.592   2.011 -0.2636 -1.0224  0.4583
  158MOL    H5219206   7.475   2.395   1.927 -1.8329  0.0954  0.6833
  158MOL    H5319207   7.411   2.455   2.065  0.3724 -0.0909  0.3780
  158MOL    H5419208   7.551   2.636   2.109  2.1818  0.3178  0.3301
  158MOL    H5519209   7.670   2.594   1.971 -0.8277 -2.4036 -1.1188
  158MOL    C5619210   7.481   2.683   1.931  0.3568 -0.0093 -0.1089
  158MOL    C5719211   7.463   2.641   1.785 -0.3566 -0.1681  0.3481
  158MOL    H5819212   7.387   2.686   1.986  0.8182  2.2274  0.5858
  158MOL    H5919213   7.517   2.785   1.929 -0.5532  0.2971 -1.6917
  158MOL    H6019214   7.552   2.602   1.736 -1.3707 -0.9888 -0.8391
  158MOL    H6119215   7.404   2.550   1.783  0.2819 -0.6405  1.9242
  158MOL    C6219216   7.409   2.750   1.698  0.5394 -0.4537  0.3722
  158MOL    C6319217   7.339   2.704   1.562  0.2441  0.1953  0.3341
  158MOL    H6419218   7.332   2.802   1.756 -2.5073 -3.3047 -0.9712
  158MOL    H6519219   7.487   2.824   1.678  0.2971 -0.2726  0.0980
  158MOL    H6619220   7.246   2.653   1.585  0.0707 -0.1449 -1.0671
  158MOL    H6719221   7.334   2.795   1.501  0.2422 -0.7357 -1.0758
  158MOL    C6819222   7.424   2.609   1.478 -0.6829 -0.7857 -0.1214
  158MOL    C6919223   7.340   2.519   1.383 -0.8745 -0.4486 -0.3081
  158MOL    H7019224   7.488   2.668   1.411  1.1116 -1.9784  0.4885
  158MOL    H7119225   7.491   2.552   1.542 -1.7712 -0.6503  1.1375
  158MOL    H7219226   7.253   2.571   1.341 -0.9145 -0.6434 -0.4670
  158MOL    H7319227   7.408   2.490   1.303 -1.3608  0.2434 -0.9772
  158MOL    C7419228   7.289   2.393   1.462 -0.6174  0.7601  0.7654
  158MOL    C7519229   7.385   2.283   1.490  0.2880  0.5435 -0.0018
  158MOL    H7619230   7.234   2.429   1.549 -0.8756 -0.1539  0.9811
  158MOL    H7719231   7.215   2.333   1.409 -0.4996 -0.0464  1.5166
  158MOL    H7819232   7.432   2.246   1.399 -0.4817 -0.7580  0.1288
  158MOL    H7919233   7.471   2.328   1.541  2.1426 -2.7764 -0.0466
  158MOL    C8019234   7.322   2.169   1.577  0.1752  0.2053  0.2046
  158MOL    C8119235   7.429   2.079   1.642  0.6034  0.1254 -0.3653
  158MOL    H8219236   7.250   2.205   1.651 -0.1501 -0.1445  0.0623
  158MOL    H8319237   7.259   2.114   1.506 -0.7169 -0.5382  1.5615
  158MOL    H8419238   7.496   2.037   1.567 -0.8247 -0.5124 -1.3079
  158MOL    H8519239   7.485   2.147   1.706 -0.9519  0.0833  1.0727
  158MOL    C8619240   7.386   1.968   1.740  0.4946 -1.1010  0.2869
  158MOL    C8719241   7.518   1.895   1.785 -0.2870  0.0121 -0.6612
  158MOL    H8819242   7.332   2.009   1.825 -0.3184 -0.9808 -0.2823
  158MOL    H8919243   7.324   1.895   1.687 -0.1788  0.2159 -0.7497
  158MOL    H9019244   7.574   1.872   1.694 -1.4438  0.6698 -1.5475
  158MOL    H9119245   7.583   1.959   1.845 -1.2687  1.0957 -0.7398
  158MOL    C9219246   7.503   1.761   1.862  0.1090  0.4109 -0.0563
  158MOL    C9319247   7.474   1.767   2.016 -0.2905 -0.3745  0.1210
  158MOL    H9419248   7.427   1.698   1.816 -0.2209  0.5009  0.3653
  158MOL    H9519249   7.592   1.704   1.835  1.2982  1.8527  0.6885
  158MOL    H9619250   7.546   1.839   2.055  0.2719 -1.0268  0.3004
  158MOL    H9719251   7.385   1.824   2.042  0.5080  0.5255  0.9033
  158MOL    C9819252   7.475   1.630   2.082 -0.0115 -0.0099 -0.3249
  158MOL    C9919253   7.463   1.640   2.237  0.5333 -0.1928 -0.1552
  158MOL   H10019254   7.393   1.580   2.030 -1.9767  0.9322  1.7717
  158MOL   H10119255   7.566   1.573   2.062  0.0529 -0.2614  0.6276
  158MOL   H10219256   7.374   1.699   2.259  1.0699  1.5885 -2.4946
  158MOL   H10319257   7.430   1.545   2.279 -1.1923 -0.3512 -1.8052
  158MOL   C10419258   7.594   1.675   2.317  0.4669  0.4331  0.0446
  158MOL   C10519259   7.584   1.664   2.473 -0.2423  0.3775  0.3009
  158MOL   H10619260   7.670   1.606   2.280 -1.5039 -1.0238 -1.4906
  158MOL   H10719261   7.630   1.772   2.283  1.6087  0.5720  1.6018
  158MOL   H10819262   7.518   1.743   2.509  0.8206  2.5329 -2.3256
  158MOL   H10919263   7.530   1.572   2.496 -0.0529  0.3057  0.4549
  158MOL   C11019264   0.031   1.657   2.534 -0.5837 -0.0103  0.2088
  158MOL   C11119265   0.033   1.674   2.683 -0.1881 -0.4411  0.2959
  158MOL   H11219266   0.081   1.568   2.495 -2.2187 -0.6864 -0.4110
  158MOL   H11319267   0.087   1.746   2.508 -1.7959  0.7663  0.2180
  158MOL   H11419268   0.001   1.774   2.710  0.4135  0.2718 -1.6154
  158MOL   H11519269   7.642   1.618   2.728  0.1373 -0.6487  0.6377
  158MOL   C11619270   0.167   1.659   2.749  0.5975 -0.4034 -0.0581
  158MOL   C11719271   0.176   1.714   2.887 -0.0131  0.0182  0.0117
  158MOL   H11819272   0.184   1.552   2.761 -0.1191 -0.3472  1.5798
  158MOL   H11919273   0.249   1.691   2.685  1.8809 -0.3420  1.5716
  158MOL   H12019274   0.160   1.821   2.872 -0.3537  0.0157  0.3637
  158MOL   H12119275   0.096   1.674   2.948 -2.9838  3.3737 -1.4923
  158MOL   H12219276   0.273   1.702   2.935 -0.8712 -2.9410  1.0566
  159MOL     C119277   3.830   6.254   5.277  0.4278 -0.1759  0.1940
  159MOL     C219278   3.936   6.172   5.195  0.3315 -0.1510  0.0114
  159MOL     H319279   3.874   6.303   5.363  0.6381  1.8855 -1.0526
  159MOL     H419280   3.760   6.181   5.317 -3.0642  2.8551 -0.1071
  159MOL     H519281   4.005   6.251   5.165  2.3287 -1.1439  1.8931
  159MOL     H619282   3.984   6.111   5.271 -0.6864  1.0111  1.6252
  159MOL     H719283   3.767   6.327   5.226  0.3570 -0.8148 -0.6359
  159MOL     C819284   3.869   6.085   5.084 -0.3532 -0.2552 -0.2360
  159MOL     C919285   3.974   6.008   5.007 -0.0254 -0.9416 -0.7852
  159MOL    H1019286   3.780   6.035   5.122  0.2404 -0.4151  0.9812
  159MOL    H1119287   3.838   6.154   5.005  0.0305  1.4921  1.0945
  159MOL    H1219288   4.062   6.072   5.005 -2.2220  2.1381 -0.9048
  159MOL    H1319289   3.999   5.919   5.065 -0.7156 -0.8962 -0.4136
  159MOL    C1419290   3.945   5.963   4.867  0.0086  0.0626 -0.2043
  159MOL    C1519291   4.066   5.935   4.773  0.4387 -0.1008 -1.2748
  159MOL    H1619292   3.881   5.875   4.861  1.0773 -0.6427 -1.7130
  159MOL    H1719293   3.890   6.037   4.809  3.0812  0.8113 -2.3108
  159MOL    H1819294   4.139   6.015   4.764 -0.1329  0.4514 -1.0727
  159MOL    H1919295   4.122   5.853   4.818 -0.6918 -0.6616 -0.8621
  159MOL    C2019296   4.034   5.901   4.630  0.0860 -0.0860  0.6546
  159MOL    C2119297   4.166   5.869   4.553 -0.3241  0.7611  0.8894
  159MOL    H2219298   3.959   5.823   4.638 -1.5370  1.3272 -0.3622
  159MOL    H2319299   3.995   5.995   4.591  1.4866  0.1005 -0.3350
  159MOL    H2419300   4.239   5.948   4.568  0.7763  0.2518 -1.4581
  159MOL    H2519301   4.214   5.785   4.604  1.3229  0.2190 -1.4593
  159MOL    C2619302   4.140   5.822   4.406  0.2508  0.4919  0.5883
  159MOL    C2719303   4.251   5.735   4.348 -1.1050  0.3899  0.5390
  159MOL    H2819304   4.045   5.769   4.409  0.8084 -0.4513  1.5541
  159MOL    H2919305   4.121   5.907   4.340 -0.8016  0.1192  0.3954
  159MOL    H3019306   4.259   5.658   4.425 -2.3904 -0.0981  0.2052
  159MOL    H3119307   4.228   5.676   4.259  3.7783  0.2671 -0.7558
  159MOL    C3219308   4.374   5.813   4.329 -0.0627 -0.1540  0.5754
  159MOL    C3319309   4.373   5.918   4.212 -0.8497 -0.1367  0.3456
  159MOL    H3419310   4.389   5.871   4.420 -0.6851 -1.0073  1.2321
  159MOL    H3519311   4.459   5.746   4.318  0.3709  0.8942 -3.1030
  159MOL    H3619312   4.376   5.864   4.118 -1.3538 -1.0270  0.8338
  159MOL    H3719313   4.271   5.958   4.213 -2.1038 -3.1277 -0.8305
  159MOL    C3819314   4.480   6.028   4.216 -0.4531 -0.3159  0.3671
  159MOL    C3919315   4.461   6.136   4.324 -0.4157 -0.1582  0.3893
  159MOL    H4019316   4.575   5.976   4.232  0.2025 -0.0485 -2.3767
  159MOL    H4119317   4.486   6.077   4.119 -1.7124 -1.2859 -0.2037
  159MOL    H4219318   4.447   6.091   4.422  0.8654  0.4469  0.8559
  159MOL    H4319319   4.557   6.184   4.342 -0.9046  0.7226  0.6782
  159MOL    C4419320   4.365   6.245   4.274  0.5593 -0.0516  1.0501
  159MOL    C4519321   4.373   6.379   4.361 -0.4421  0.1711 -0.2288
  159MOL    H4619322   4.388   6.276   4.172  1.2270 -0.8526  0.9596
  159MOL    H4719323   4.265   6.204   4.266  0.7066  0.0461 -1.7766
  159MOL    H4819324   4.328   6.364   4.459 -1.1209  1.0895 -0.3960
  159MOL    H4919325   4.478   6.405   4.375 -0.8744  2.2861 -0.7214
  159MOL    C5019326   4.305   6.504   4.290 -0.0738  0.1040 -0.7059
  159MOL    C5119327   4.314   6.634   4.369  0.2147  0.4401  0.4017
  159MOL    H5219328   4.354   6.521   4.195  0.7039 -1.0116 -0.5146
  159MOL    H5319329   4.200   6.483   4.268 -0.2812  1.2151 -0.8221
  159MOL    H5419330   4.281   6.608   4.470 -2.1898 -1.0812 -0.7377
  159MOL    H5519331   4.416   6.673   4.361  0.9469 -1.8033 -1.9723
  159MOL    C5619332   4.218   6.739   4.317 -0.2000 -0.0477  0.4905
  159MOL    C5719333   4.197   6.856   4.421 -0.3428  0.3079  0.1544
  159MOL    H5819334   4.252   6.767   4.218 -1.6127 -2.0462 -0.5905
  159MOL    H5919335   4.121   6.691   4.308  0.1270 -0.4475 -0.9646
  159MOL    H6019336   4.169   6.809   4.516  0.7706  1.9911  1.3561
  159MOL    H6119337   4.290   6.912   4.425 -0.9915  1.3324  1.1444
  159MOL    C6219338   4.078   6.948   4.381 -0.2268 -0.0748 -0.2713
  159MOL    C6319339   4.069   7.053   4.497  0.0592 -0.7182  0.1235
  159MOL    H6419340   4.098   6.997   4.286 -0.0112  1.9009  0.7505
  159MOL    H6519341   3.983   6.894   4.381 -0.8422  0.9754 -0.0504
  159MOL    H6619342   4.053   7.001   4.592  1.7130 -1.9855 -0.2600
  159MOL    H6719343   4.161   7.110   4.506  0.0449 -0.4339 -1.4803
  159MOL    C6819344   3.947   7.148   4.473  0.3400  0.9821  0.0697
  159MOL    C6919345   3.941   7.252   4.582  0.0996 -0.5125 -1.0113
  159MOL    H7019346   3.961   7.199   4.378 -2.1714  0.9585 -0.3560
  159MOL    H7119347   3.854   7.092   4.468 -0.8590  2.9033  0.5325
  159MOL    H7219348   3.927   7.208   4.681  2.2720  1.3357  0.1528
  159MOL    H7319349   4.035   7.304   4.598  0.3668 -0.8812 -1.3767
  159MOL    C7419350   3.835   7.350   4.548 -0.2336  0.3720  0.3428
  159MOL    C7519351   3.821   7.459   4.647  0.1963  0.9975  0.5382
  159MOL    H7619352   3.867   7.390   4.452  1.2646  1.5570  1.3178
  159MOL    H7719353   3.738   7.301   4.536 -0.5854  1.3403 -0.9652
  159MOL    H7819354   3.781   7.417   4.740  0.4871  0.2702  0.3301
  159MOL    H7919355   3.919   7.506   4.655  0.1670  0.9680  1.1359
  159MOL    C8019356   3.716   7.569   4.609  0.4016  0.2444 -0.0511
  159MOL    C8119357   3.698   7.687   4.701  0.0055 -0.0077  0.0445
  159MOL    H8219358   3.719   7.599   4.505 -1.7711  0.7020 -0.0101
  159MOL    H8319359   3.620   7.517   4.609  0.9979 -0.9182 -2.1929
  159MOL    H8419360   3.646   7.652   4.790 -2.9446  0.0547 -1.5944
  159MOL    H8519361   3.791   0.038   4.737 -0.1601  0.5806 -0.2224
  159MOL    C8619362   3.597   0.094   4.642 -0.6760  0.2699  0.4460
  159MOL    C8719363   3.579   0.223   4.729  0.7299 -0.4954  0.1880
  159MOL    H8819364   3.628   0.134   4.545 -0.4378 -2.5728 -0.7083
  159MOL    H8919365   3.502   0.049   4.615 -1.5012  0.6521  2.6640
  159MOL    H9019366   3.569   0.194   4.833  0.6052  0.0444  0.3255
  159MOL    H9119367   3.666   0.289   4.730  1.0242 -0.8855  1.0774
  159MOL    C9219368   3.455   0.302   4.686 -0.2590 -0.7945  0.4214
  159MOL    C9319369   3.483   0.455   4.719 -0.6545  0.2462  0.1899
  159MOL    H9419370   3.439   0.300   4.578  1.0788 -0.7737  0.2088
  159MOL    H9519371   3.361   0.257   4.719 -0.4949  0.4939  1.5516
  159MOL    H9619372   3.531   0.466   4.816 -0.7605 -0.5900  0.3461
  159MOL    H9719373   3.563   0.477   4.648  0.6841 -1.9121  0.9792
  159MOL    C9819374   3.349   0.534   4.709  0.0842  0.3328  0.0167
  159MOL    C9919375   3.372   0.677   4.741 -0.6266  0.0510 -0.3385
  159MOL   H10019376   3.299   0.518   4.613  0.0018  0.9876 -0.0521
  159MOL   H10119377   3.297   0.488   4.793 -1.1968  0.9094 -0.4376
  159MOL   H10219378   3.450   0.687   4.817  0.0518 -1.6185 -0.7840
  159MOL   H10319379   3.414   0.732   4.657 -1.0335  1.8177  0.6068
  159MOL   C10419380   3.246   0.755   4.776  0.0371  0.0589  0.4569
  159MOL   C10519381   3.141   0.766   4.663 -0.0499 -0.3814  0.3136
  159MOL   H10619382   3.194   0.710   4.860 -1.8767  1.0759 -0.1450
  159MOL   H10719383   3.279   0.848   4.822  1.9219 -1.0260  1.3413
  159MOL   H10819384   3.200   0.800   4.577  0.2596  0.2799  0.7826
  159MOL   H10919385   3.122   0.662   4.635 -0.2278 -1.0140  2.7103
  159MOL   C11019386   3.022   0.864   4.683  0.3274  0.0285  0.3183
  159MOL   C11119387   3.066   1.007   4.696 -0.4854  0.1486 -0.0191
  159MOL   H11219388   2.962   0.851   4.592  1.0481  0.4327 -0.2240
  159MOL   H11319389   2.971   0.831   4.773  0.3659 -1.5015 -0.1918
  159MOL   H11419390   3.122   1.017   4.789 -0.9853 -0.1616  0.3207
  159MOL   H11519391   3.139   1.037   4.621 -1.7651 -0.8125 -1.6941
  159MOL   C11619392   2.943   1.097   4.702  0.4588  0.1801  0.8405
  159MOL   C11719393   2.977   1.245   4.723 -0.1843 -0.1267 -0.1999
  159MOL   H11819394   2.880   1.094   4.613  2.6102 -2.3856 -0.6693
  159MOL   H11919395   2.868   1.064   4.774 -1.8216  1.9391 -0.6122
  159MOL   H12019396   3.072   1.271   4.676 -0.6667  1.0347 -0.5415
  159MOL   H12119397   2.911   1.317   4.676  0.4153  0.9845  0.6434
  159MOL   H12219398   2.991   1.279   4.826 -1.8087 -0.8402  0.2739
  160MOL     C119399   6.278   5.026   4.890 -0.2467 -0.8593  0.8557
  160MOL     C219400   6.282   5.018   5.045 -0.4663 -0.2440 -0.4910
  160MOL     H319401   6.272   4.933   4.834  0.7519 -0.4719  0.0993
  160MOL     H419402   6.370   5.078   4.864 -0.3220 -2.5417 -3.0472
  160MOL     H519403   6.367   4.963   5.085 -0.5740  0.8921  1.3962
  160MOL     H619404   6.280   5.110   5.104 -0.9469 -0.0209 -0.8513
  160MOL     H719405   6.187   5.077   4.857  1.0244 -1.1912 -3.4625
  160MOL     C819406   6.166   4.924   5.088  0.0578  0.2530  0.3271
  160MOL     C919407   6.183   4.866   5.228 -0.0060  0.3671 -0.1241
  160MOL    H1019408   6.077   4.982   5.065  0.1642  0.7518  1.1488
  160MOL    H1119409   6.173   4.841   5.018  0.5729 -0.2213  0.9339
  160MOL    H1219410   6.117   4.779   5.231 -0.4350  0.7431  1.6756
  160MOL    H1319411   6.287   4.844   5.253  0.4490  1.1055 -1.3410
  160MOL    C1419412   6.152   4.966   5.337  0.1107  0.4903 -0.2093
  160MOL    C1519413   6.129   4.894   5.476  0.1977 -0.2095 -0.1069
  160MOL    H1619414   6.221   5.048   5.358  1.5195 -1.2477  2.2206
  160MOL    H1719415   6.054   5.006   5.310 -0.4900 -0.3035  0.7633
  160MOL    H1819416   6.064   4.951   5.542  1.2709  1.0892 -0.1545
  160MOL    H1919417   6.073   4.801   5.462  0.7044 -0.6913  1.0799
  160MOL    C2019418   6.270   4.859   5.540  0.5326 -0.9425  0.7544
  160MOL    C2119419   6.268   4.829   5.690  0.7338  0.1879  0.6984
  160MOL    H2219420   6.306   4.776   5.480 -1.6740 -1.4169  0.0494
  160MOL    H2319421   6.344   4.938   5.525 -0.3007  0.0921  1.9231
  160MOL    H2419422   6.207   4.903   5.742 -2.4885 -1.8405 -0.0131
  160MOL    H2519423   6.210   4.737   5.699 -1.5470  1.4622 -0.5380
  160MOL    C2619424   6.401   4.825   5.753 -0.3199  0.5557 -0.2139
  160MOL    C2719425   6.398   4.817   5.905  0.3816 -0.2427  0.4646
  160MOL    H2819426   6.450   4.733   5.720 -1.9836 -0.4960  0.1779
  160MOL    H2919427   6.455   4.912   5.717  1.3674 -0.3346  0.0971
  160MOL    H3019428   6.331   4.893   5.945 -1.5935 -1.5433 -0.2781
  160MOL    H3119429   6.354   4.724   5.941  0.8337  0.2267  2.2387
  160MOL    C3219430   6.535   4.838   5.973 -0.4640  0.2057 -0.4069
  160MOL    C3319431   6.651   4.740   5.922 -0.5660  0.1268  0.3579
  160MOL    H3419432   6.575   4.939   5.969 -1.6192  1.0077  4.9534
  160MOL    H3519433   6.529   4.825   6.081  0.2947  1.1978 -0.2395
  160MOL    H3619434   6.620   4.638   5.902  0.0362 -0.0788  0.4532
  160MOL    H3719435   6.686   4.786   5.829 -0.4078  1.5461  1.0921
  160MOL    C3819436   6.763   4.738   6.023  0.1932 -0.4503  0.4870
  160MOL    C3919437   6.872   4.636   5.997 -0.5620 -0.7181 -0.0519
  160MOL    H4019438   6.799   4.841   6.023  0.2502 -0.4170 -2.3335
  160MOL    H4119439   6.720   4.717   6.121 -0.3991 -1.4999  0.0100
  160MOL    H4219440   6.837   4.533   5.989  1.0082 -1.1209 -2.1461
  160MOL    H4319441   6.927   4.652   5.904  0.5894 -1.4839  0.5020
  160MOL    C4419442   6.985   4.639   6.103  0.3413  0.1063 -0.3850
  160MOL    C4519443   7.093   4.537   6.080 -0.2666 -0.9890  0.4024
  160MOL    H4619444   7.023   4.741   6.099  1.9477 -0.5017 -0.5989
  160MOL    H4719445   6.945   4.636   6.205  1.2472  1.7264  0.0340
  160MOL    H4819446   7.053   4.437   6.087 -1.5734 -0.3825  1.7454
  160MOL    H4919447   7.118   4.547   5.974  0.9152 -0.7119  0.6960
  160MOL    C5019448   7.212   4.554   6.175 -0.8967  0.1761  0.1746
  160MOL    C5119449   7.327   4.460   6.134  0.2640 -0.0375 -1.3171
  160MOL    H5219450   7.248   4.657   6.169 -1.6423  0.3741 -1.0395
  160MOL    H5319451   7.171   4.542   6.275  0.4688  2.0107  0.9840
  160MOL    H5419452   7.286   4.361   6.111  0.4902 -0.4419 -0.0244
  160MOL    H5519453   7.386   4.493   6.049  2.9470  0.1433  0.5762
  160MOL    C5619454   7.428   4.432   6.250  1.0137  0.5500 -0.3925
  160MOL    C5719455   7.530   4.319   6.225 -0.2427  0.5105  0.5628
  160MOL    H5819456   7.477   4.528   6.267  0.4846  0.7005  0.3250
  160MOL    H5919457   7.372   4.416   6.343 -1.0022 -1.1403 -1.8654
  160MOL    H6019458   7.488   4.218   6.220 -0.3424  0.5555  0.4867
  160MOL    H6119459   7.565   4.341   6.124  2.1410 -2.5402  0.6655
  160MOL    C6219460   7.649   4.321   6.318  0.7698 -0.5605 -0.5623
  160MOL    C6319461   0.027   4.453   6.357  0.0324  0.3306  1.2605
  160MOL    H6419462   7.619   4.275   6.412  2.1121  0.1792  0.2452
  160MOL    H6519463   0.039   4.257   6.285 -0.6474 -3.4466  1.3143
  160MOL    H6619464   0.053   4.504   6.264 -1.5860 -0.1291  0.5349
  160MOL    H6719465   7.653   4.525   6.406  1.1449  1.2801  1.3786
  160MOL    C6819466   0.146   4.438   6.450  0.0780 -0.6980 -0.5053
  160MOL    C6919467   0.217   4.577   6.485 -0.4140  0.6212 -0.2688
  160MOL    H7019468   0.118   4.393   6.545  2.3309  0.9152  0.9898
  160MOL    H7119469   0.211   4.363   6.405 -0.6949  0.3811 -3.5200
  160MOL    H7219470   0.235   4.634   6.394  0.2412  1.5158  0.3963
  160MOL    H7319471   0.157   4.651   6.539  0.7552  2.2930 -1.2077
  160MOL    C7419472   0.342   4.558   6.565  0.1515  0.2538 -0.4913
  160MOL    C7519473   0.395   4.693   6.613  0.1866 -0.0767 -0.0894
  160MOL    H7619474   0.324   4.495   6.652  1.0248  0.2600 -0.2971
  160MOL    H7719475   0.422   4.506   6.512  0.1593 -0.7467  0.4677
  160MOL    H7819476   0.454   4.739   6.533  2.2344 -0.2026  1.3116
  160MOL    H7919477   0.315   4.761   6.640  0.9095  1.5612 -1.9297
  160MOL    C8019478   0.495   4.671   6.728  0.8423 -0.1551  0.2447
  160MOL    C8119479   0.580   4.794   6.759 -0.9193  0.0187  0.7746
  160MOL    H8219480   0.442   4.637   6.817 -0.9035  1.1246 -0.2708
  160MOL    H8319481   0.562   4.592   6.696 -0.0062 -1.4531  1.5948
  160MOL    H8419482   0.625   4.836   6.669  0.9050 -2.5606  0.4171
  160MOL    H8519483   0.518   4.871   6.805 -1.6440  0.5252 -1.0018
  160MOL    C8619484   0.696   4.771   6.863 -0.2455  0.9157  0.5236
  160MOL    C8719485   0.784   4.896   6.885 -0.4402  0.3752  0.2485
  160MOL    H8819486   0.658   4.725   6.955  1.8751  0.2514  1.1171
  160MOL    H8919487   0.767   4.696   6.827  1.4500  2.4737  0.5344
  160MOL    H9019488   0.823   4.933   6.790 -0.7349 -2.5938 -1.0979
  160MOL    H9119489   0.734   4.988   6.916 -0.5199  0.5582 -0.4182
  160MOL    C9219490   0.894   4.888   6.999  0.4397 -0.0110  0.1783
  160MOL    C9319491   0.974   5.022   7.014 -0.0318  0.5809  0.3046
  160MOL    H9419492   0.857   4.833   7.086 -0.6838  0.7103  0.1735
  160MOL    H9519493   0.974   4.824   6.962  1.0328  2.3813 -2.7891
  160MOL    H9619494   1.011   5.064   6.921 -2.0327  1.8571  0.0626
  160MOL    H9719495   0.909   5.099   7.055  0.0566  1.2320 -0.7730
  160MOL    C9819496   1.087   5.012   7.118 -0.2523  0.0966 -0.8673
  160MOL    C9919497   1.168   5.145   7.141  0.3321  0.8396 -0.2366
  160MOL   H10019498   1.049   4.975   7.213  2.8368 -1.7121 -0.2798
  160MOL   H10119499   1.154   4.929   7.098 -0.2748 -0.1808  0.1851
  160MOL   H10219500   1.219   5.164   7.046 -0.6004 -0.6102 -1.0359
  160MOL   H10319501   1.103   5.228   7.167 -2.7973 -1.0676 -1.7371
  160MOL   C10419502   1.275   5.129   7.248 -1.0436 -0.1188  0.1627
  160MOL   C10519503   1.370   5.243   7.258  0.1498  0.3672 -1.2512
  160MOL   H10619504   1.234   5.106   7.346  1.2340  0.2103  1.2036
  160MOL   H10719505   1.331   5.039   7.221  2.0233  0.8993  2.9904
  160MOL   H10819506   1.416   5.259   7.161  3.5355  1.0178  0.3637
  160MOL   H10919507   1.314   5.334   7.277 -2.9225 -1.4447 -1.3801
  160MOL   C11019508   1.476   5.222   7.366  0.0253 -0.4138  0.5983
  160MOL   C11119509   1.563   5.351   7.387  0.2424  0.0829  0.3010
  160MOL   H11219510   1.426   5.194   7.459 -0.1595 -0.6418  0.4294
  160MOL   H11319511   1.537   5.133   7.349 -3.2656 -2.4971 -0.6731
  160MOL   H11419512   1.637   5.367   7.309  0.2056  0.9726  0.4518
  160MOL   H11519513   1.494   5.435   7.387 -2.3748 -2.0063 -0.4075
  160MOL   C11619514   1.640   5.348   7.521 -0.2379  0.1151 -0.3577
  160MOL   C11719515   1.717   5.483   7.564  0.2419 -0.5412  0.2202
  160MOL   H11819516   1.563   5.337   7.598  0.8911  0.7055  0.8926
  160MOL   H11919517   1.706   5.262   7.536 -1.4609 -0.6106  1.0433
  160MOL   H12019518   1.765   5.469   7.661 -2.5484 -0.0315  1.7179
  160MOL   H12119519   1.780   5.523   7.484 -1.7467  0.7678 -0.7310
  160MOL   H12219520   1.647   5.563   7.588 -0.6877 -1.0207 -0.8496
  161MOL     C119521   4.579   5.387   7.229 -1.0957  0.0935  0.3218
  161MOL     C219522   4.515   5.408   7.365 -0.2697 -0.1489 -0.7611
  161MOL     H319523   4.682   5.423   7.225 -0.5314 -1.6676 -2.9042
  161MOL     H419524   4.526   5.424   7.141  1.2910 -1.6882 -1.9610
  161MOL     H519525   4.411   5.379   7.356 -0.2179 -0.5079 -0.1804
  161MOL     H619526   4.570   5.344   7.434  1.2120  0.8113 -1.0132
  161MOL     H719527   4.595   5.281   7.210  3.9250  1.2149 -2.9216
  161MOL     C819528   4.529   5.559   7.402  0.3510 -0.0663  0.3943
  161MOL     C919529   4.464   5.656   7.301 -0.3413  0.0803  0.1385
  161MOL    H1019530   4.506   5.580   7.507 -0.3541  0.1809  0.1930
  161MOL    H1119531   4.634   5.584   7.385  0.0638  0.9738  0.1238
  161MOL    H1219532   4.510   5.645   7.203 -1.3371  1.9635 -0.5572
  161MOL    H1319533   4.359   5.629   7.292 -0.2241  0.1523 -1.5914
  161MOL    C1419534   4.465   5.802   7.339 -0.1021 -0.0174  0.9337
  161MOL    C1519535   4.384   5.883   7.242 -0.1354 -0.3253 -0.2262
  161MOL    H1619536   4.439   5.821   7.443  0.7425  1.0496  0.9518
  161MOL    H1719537   4.568   5.836   7.334  0.5788 -2.2643 -1.7864
  161MOL    H1819538   4.410   5.853   7.141  1.3263  0.6236 -0.1480
  161MOL    H1919539   4.278   5.877   7.264  0.2238  1.1211  2.1437
  161MOL    C2019540   4.423   6.033   7.251  0.1371 -0.9262  0.1303
  161MOL    C2119541   4.355   6.120   7.144  0.6167  0.4304  0.1579
  161MOL    H2219542   4.388   6.078   7.344 -0.8544  0.4827 -0.9266
  161MOL    H2319543   4.530   6.041   7.233  0.2191  0.8406  1.2331
  161MOL    H2419544   4.393   6.105   7.043 -0.5550 -0.0786 -0.2118
  161MOL    H2519545   4.248   6.100   7.142  0.4018  1.6165 -1.0802
  161MOL    C2619546   4.353   6.270   7.180 -0.3599 -0.3461  0.3789
  161MOL    C2719547   4.269   6.361   7.079 -0.3664 -0.5501 -0.7405
  161MOL    H2819548   4.320   6.273   7.283  1.0987  1.0523  0.8283
  161MOL    H2919549   4.455   6.308   7.178  0.0485 -1.4456 -0.5606
  161MOL    H3019550   4.304   6.352   6.976 -0.4421  0.0589 -0.8191
  161MOL    H3119551   4.164   6.333   7.074 -1.2319  1.8275  2.6187
  161MOL    C3219552   4.277   6.513   7.116  0.3538  0.6267  0.3412
  161MOL    C3319553   4.234   6.593   6.991 -0.1695  0.6208  0.2409
  161MOL    H3419554   4.199   6.539   7.187  0.7668 -0.5552  1.2435
  161MOL    H3519555   4.375   6.549   7.147  0.6671 -0.8345  1.0695
  161MOL    H3619556   4.311   6.578   6.915  0.8613 -0.7363  1.5386
  161MOL    H3719557   4.141   6.547   6.956 -0.8297  1.2659  1.1523
  161MOL    C3819558   4.198   6.743   7.004 -0.0218 -0.2298  0.1859
  161MOL    C3919559   4.110   6.795   6.887 -0.1693 -0.5102  0.6690
  161MOL    H4019560   4.141   6.758   7.096 -2.7661 -0.7912 -1.3891
  161MOL    H4119561   4.288   6.802   7.021  0.7161 -1.4063  0.4219
  161MOL    H4219562   4.161   6.779   6.792  0.3992 -0.4706  0.9652
  161MOL    H4319563   4.022   6.732   6.878 -0.7801  0.5657 -1.1735
  161MOL    C4419564   4.064   6.938   6.903  0.2485 -0.5278 -0.8524
  161MOL    C4519565   3.977   6.992   6.790  0.4946  0.1811 -0.3115
  161MOL    H4619566   4.003   6.947   6.993 -0.9159  0.1494 -1.6843
  161MOL    H4719567   4.142   7.011   6.926 -1.8093  0.7907  2.2410
  161MOL    H4819568   4.026   6.985   6.693  2.1471 -0.7400  0.5625
  161MOL    H4919569   3.887   6.931   6.785 -1.8038  3.5562 -1.9771
  161MOL    C5019570   3.940   7.141   6.815 -0.2323  0.2626 -0.6478
  161MOL    C5119571   3.849   7.201   6.706 -0.3077 -0.0101  0.7991
  161MOL    H5219572   3.894   7.154   6.913  2.3249 -0.9289  0.7724
  161MOL    H5319573   4.031   7.200   6.820 -2.0389  2.9554  2.8693
  161MOL    H5419574   3.893   7.184   6.608 -2.6489 -1.7316 -0.0069
  161MOL    H5519575   3.757   7.143   6.712 -1.3819  1.4057 -1.2367
  161MOL    C5619576   3.834   7.355   6.718  0.4224  0.2805 -0.2081
  161MOL    C5719577   3.782   7.422   6.585 -0.0291  0.1180 -0.1245
  161MOL    H5819578   3.766   7.371   6.801  2.1262  0.1272  1.2415
  161MOL    H5919579   3.925   7.411   6.737  1.0548 -1.1994  1.1966
  161MOL    H6019580   3.860   7.425   6.509 -1.0658  2.5428 -1.1433
  161MOL    H6119581   3.698   7.365   6.547  0.3001 -0.7604  0.4489
  161MOL    C6219582   3.746   7.567   6.598  0.1423  0.1061  0.4917
  161MOL    C6319583   3.674   7.633   6.476 -0.0102  0.5657 -0.3915
  161MOL    H6419584   3.707   7.594   6.696  2.2464 -0.4300  1.5050
  161MOL    H6519585   3.846   7.611   6.604  1.4148 -2.1198 -2.5212
  161MOL    H6619586   3.751   7.636   6.398  2.6761  2.3459  2.1905
  161MOL    H6719587   3.591   7.570   6.445  0.0058 -0.6138  1.8600
  161MOL    C6819588   3.631   0.083   6.506  0.3950  0.2036  0.0003
  161MOL    C6919589   3.537   0.133   6.395  0.4113  0.3526  0.1426
  161MOL    H7019590   3.576   0.084   6.600  0.6580 -2.1035  0.2073
  161MOL    H7119591   3.717   0.148   6.516  1.9711 -2.1433  2.2617
  161MOL    H7219592   3.577   0.098   6.300  1.1313 -0.9087  0.8948
  161MOL    H7319593   3.436   0.095   6.404  1.0712 -1.6025 -0.4091
  161MOL    C7419594   3.525   0.285   6.390  0.3843 -0.7003 -0.7570
  161MOL    C7519595   3.430   0.330   6.289 -0.2329 -0.2065  0.2981
  161MOL    H7619596   3.494   0.320   6.489  1.0439  0.3823 -0.9213
  161MOL    H7719597   3.623   0.330   6.374  0.1087  0.3010  0.3207
  161MOL    H7819598   3.465   0.289   6.194  0.6819 -1.4964  1.1726
  161MOL    H7919599   3.332   0.284   6.305 -0.3568 -0.3968 -0.9980
  161MOL    C8019600   3.428   0.483   6.278  0.9650 -0.0849  0.1336
  161MOL    C8119601   3.317   0.523   6.179 -0.4640  0.4595 -0.0719
  161MOL    H8219602   3.402   0.530   6.373 -0.1390  0.8635 -0.6131
  161MOL    H8319603   3.526   0.524   6.252  0.8280  0.4688  0.4860
  161MOL    H8419604   3.340   0.484   6.080  1.5078  2.7506 -0.5518
  161MOL    H8519605   3.231   0.465   6.213  0.3219 -0.0006  1.1468
  161MOL    C8619606   3.303   0.679   6.174  0.4154 -0.1569 -1.1763
  161MOL    C8719607   3.227   0.720   6.044  0.4917  0.0398 -0.2063
  161MOL    H8819608   3.257   0.718   6.264 -2.6030 -1.2713 -2.1552
  161MOL    H8919609   3.403   0.721   6.168 -0.3987  2.0793  0.4344
  161MOL    H9019610   3.226   0.827   6.024  2.1721 -0.0038 -0.5514
  161MOL    H9119611   3.265   0.669   5.956 -0.1211  0.4591 -0.7177
  161MOL    C9219612   3.076   0.675   6.050 -0.1429 -1.1244 -0.1296
  161MOL    C9319613   2.997   0.720   5.925  0.0604 -0.6218 -0.1923
  161MOL    H9419614   3.069   0.569   6.073 -1.7718 -1.1188 -0.5798
  161MOL    H9519615   3.051   0.718   6.147  0.5086 -0.4548 -0.2518
  161MOL    H9619616   2.891   0.731   5.948  0.1211 -0.5151  0.0403
  161MOL    H9719617   3.030   0.819   5.894  1.3190 -1.4141 -1.4169
  161MOL    C9819618   2.987   0.629   5.805  0.0811 -0.3098  0.2785
  161MOL    C9919619   2.902   0.680   5.687 -0.5694 -0.1824  0.6614
  161MOL   H10019620   3.088   0.606   5.771  0.1506 -2.8223  1.9926
  161MOL   H10119621   2.962   0.528   5.838 -1.6287  0.5447  1.7028
  161MOL   H10219622   2.800   0.673   5.724 -0.8380 -1.6164 -0.3292
  161MOL   H10319623   2.909   0.785   5.657 -2.2562 -0.4625 -0.7818
  161MOL   C10419624   2.925   0.589   5.562  1.1679 -0.2827  0.6306
  161MOL   C10519625   2.836   0.613   5.442  0.0155 -0.1382 -0.1134
  161MOL   H10619626   3.029   0.604   5.533  1.5215 -2.6577  0.5066
  161MOL   H10719627   2.921   0.484   5.594 -2.0098 -0.8561 -1.4646
  161MOL   H10819628   2.736   0.613   5.484  0.3000  0.6872  0.5870
  161MOL   H10919629   2.851   0.716   5.410  2.6925 -0.5245 -0.2303
  161MOL   C11019630   2.874   0.517   5.326 -0.6373 -0.0541  0.4472
  161MOL   C11119631   3.024   0.506   5.295  0.1801 -0.4512  0.2991
  161MOL   H11219632   2.824   0.421   5.341 -1.1116  0.0793 -0.2395
  161MOL   H11319633   2.822   0.549   5.235  0.7674  0.9475 -0.0266
  161MOL   H11419634   3.055   0.611   5.297 -0.3421 -0.2642 -0.9623
  161MOL   H11519635   3.081   0.452   5.370 -0.2867  0.6464  1.4677
  161MOL   C11619636   3.048   0.468   5.148  0.0882 -0.6271 -0.9010
  161MOL   C11719637   3.188   0.521   5.116 -0.4094 -0.2776  0.0609
  161MOL   H11819638   3.050   0.360   5.134 -1.5823 -0.9930  1.3941
  161MOL   H11919639   2.966   0.509   5.089  1.3479  0.5719 -1.8602
  161MOL   H12019640   3.236   0.459   5.041  1.5434  2.0772 -0.6946
  161MOL   H12119641   3.185   0.624   5.080  1.6347 -0.1618  0.1876
  161MOL   H12219642   3.252   0.514   5.204 -2.9298  2.4788  2.2125
  162MOL     C119643   0.052   3.961   7.605 -0.0758 -0.4786 -0.2586
  162MOL     C219644   0.119   3.862   7.517 -0.3642 -0.3098 -0.4904
  162MOL     H319645   7.643   3.926   7.626 -0.0891 -1.2941 -1.6404
  162MOL     H419646   0.066   4.058   7.557 -2.9980 -0.7899 -1.8522
  162MOL     H519647   0.063   3.864   7.424 -1.3848  0.9199  0.1419
  162MOL     H619648   0.219   3.893   7.487  0.1637 -1.3678  0.1391
  162MOL     H719649   0.116   3.975   7.692  0.0041  1.2678 -0.5792
  162MOL     C819650   0.141   3.722   7.573  0.0310 -1.0539 -0.4742
  162MOL     C919651   0.025   3.637   7.630  0.8303 -1.0270  0.2201
  162MOL    H1019652   0.208   3.664   7.510  0.4926  0.0573 -1.0180
  162MOL    H1119653   0.200   3.740   7.663  0.1691 -1.5476 -0.4670
  162MOL    H1219654   7.674   3.674   0.032 -0.5142 -3.1065  0.4491
  162MOL    H1319655   7.635   3.633   7.558  1.4740  2.6668 -0.8371
  162MOL    C1419656   0.074   3.492   7.669  0.1651  0.1638 -0.5482
  162MOL    C1519657   7.661   3.428   0.075 -0.3007 -0.1873  0.0031
  162MOL    H1619658   0.074   3.430   7.580 -0.3823 -1.5389  0.6059
  162MOL    H1719659   0.177   3.497   0.015 -0.0503 -0.0570  0.0802
  162MOL    H1819660   7.658   3.478   0.171 -0.2642 -1.0986  0.4862
  162MOL    H1919661   7.569   3.444   0.018  0.0570 -1.7001 -1.0205
  162MOL    C2019662   0.011   3.282   0.103  0.4803  0.3734  0.1637
  162MOL    C2119663   7.617   3.212   0.219  0.4571 -0.0792  0.5284
  162MOL    H2219664   0.011   3.229   0.007  0.2046  1.9884 -0.7543
  162MOL    H2319665   0.118   3.274   0.121  0.0662 -2.2637  1.7623
  162MOL    H2419666   7.624   3.271   0.311 -2.0753 -0.9257  1.3061
  162MOL    H2519667   7.516   3.219   0.178  0.8874 -0.3684 -0.6026
  162MOL    C2619668   7.659   3.071   0.240 -0.2517 -0.3386  0.2679
  162MOL    C2719669   7.579   2.996   0.344 -0.3523  0.5467 -0.0201
  162MOL    H2819670   7.646   3.018   0.145 -1.2879 -3.0112  1.8297
  162MOL    H2919671   0.070   3.068   0.273 -0.4784  3.8687  1.5819
  162MOL    H3019672   7.552   3.059   0.429  1.4467  0.6740  0.4803
  162MOL    H3119673   7.485   2.969   0.296 -0.7990  1.7548  0.1484
  162MOL    C3219674   7.653   2.876   0.412 -0.5322  0.7090  0.0985
  162MOL    C3319675   7.578   2.814   0.537  0.1733 -0.7203  0.1566
  162MOL    H3419676   7.670   2.794   0.343 -0.3848  2.2655 -1.7696
  162MOL    H3519677   0.057   2.907   0.452 -0.4340  0.3815  0.1162
  162MOL    H3619678   7.563   2.882   0.621 -3.4479  0.9349 -1.7014
  162MOL    H3719679   7.477   2.788   0.504  0.1606 -1.2268  0.5879
  162MOL    C3819680   7.652   2.681   0.575 -0.4995  0.6193  0.4460
  162MOL    C3919681   7.566   2.618   0.687  0.5770 -0.1731  0.1943
  162MOL    H4019682   7.655   2.608   0.494 -0.0216  0.2365  0.8144
  162MOL    H4119683   0.064   2.690   0.606 -1.2618 -1.1401  3.7063
  162MOL    H4219684   7.553   2.680   0.776  0.2057 -1.7391  1.2443
  162MOL    H4319685   7.467   2.603   0.644  1.1318  0.2398 -1.2537
  162MOL    C4419686   7.622   2.490   0.747 -0.2861  0.2003  0.0417
  162MOL    C4519687   7.536   2.427   0.864  0.1922 -0.1841 -0.0274
  162MOL    H4619688   7.658   2.413   0.679 -0.5967  0.3302 -0.2710
  162MOL    H4719689   0.021   2.520   0.800 -0.4848 -1.0961  1.1360
  162MOL    H4819690   7.499   2.500   0.935  0.3761  1.3302 -1.4591
  162MOL    H4919691   7.452   2.387   0.807  1.1088 -0.8733 -0.9054
  162MOL    C5019692   7.610   2.319   0.950  0.2018 -0.8546  0.1301
  162MOL    C5119693   7.525   2.263   1.070  0.5212 -0.3208  0.5170
  162MOL    H5219694   7.632   2.233   0.887  3.0351  0.2059 -0.3958
  162MOL    H5319695   0.011   2.365   0.984  0.5028 -1.0326 -0.4416
  162MOL    H5419696   7.458   2.339   1.109 -1.4127 -1.2156 -0.9667
  162MOL    H5519697   7.457   2.185   1.035  0.2779 -0.1854  0.6910
  162MOL    C5619698   7.605   2.177   1.166  0.4365 -0.0683 -0.0392
  162MOL    C5719699   0.005   2.257   1.259 -0.3258  0.0809  0.3515
  162MOL    H5819700   7.539   2.117   1.229 -1.0425 -0.4733 -1.9181
  162MOL    H5919701   7.665   2.110   1.104 -0.0275 -2.0868  1.6115
  162MOL    H6019702   0.077   2.316   1.201  0.4587  0.5928  1.8218
  162MOL    H6119703   7.630   2.331   1.304  1.2034  0.0345  2.8087
  162MOL    C6219704   0.076   2.175   1.364  0.4015 -0.1815  0.2496
  162MOL    C6319705   0.171   2.264   1.450  0.1543 -0.3967  0.2526
  162MOL    H6419706   0.003   2.124   1.427  0.1270  0.5799  0.5547
  162MOL    H6519707   0.132   2.095   1.315  0.8084 -0.3771  1.0267
  162MOL    H6619708   0.233   2.197   1.510 -0.4547 -0.4562  0.8280
  162MOL    H6719709   0.247   2.317   1.393  0.7516  0.4765  1.8424
  162MOL    C6819710   0.086   2.373   1.517  0.1069 -0.2301 -0.3463
  162MOL    C6919711   0.150   2.461   1.626 -0.2037 -0.5252  0.0462
  162MOL    H7019712   0.029   2.440   1.452 -0.5161 -0.5427 -0.1199
  162MOL    H7119713   0.003   2.318   1.562  0.2476 -0.3089 -0.1851
  162MOL    H7219714   0.066   2.512   1.674  0.9775  2.2385 -0.7303
  162MOL    H7319715   0.205   2.390   1.688 -0.3566 -0.3136  0.4292
  162MOL    C7419716   0.244   2.563   1.567 -0.4672 -0.1744 -0.0974
  162MOL    C7519717   0.341   2.628   1.671 -0.2760  0.6835  0.1902
  162MOL    H7619718   0.309   2.511   1.497  0.7574  1.2915 -0.0906
  162MOL    H7719719   0.193   2.642   1.512  0.6938  0.0582 -0.8556
  162MOL    H7819720   0.274   2.684   1.736  1.7048  1.5249  1.5312
  162MOL    H7919721   0.385   2.552   1.735  1.0042 -0.7358 -2.2879
  162MOL    C8019722   0.446   2.724   1.609  0.1435  0.3514  0.6225
  162MOL    C8119723   0.492   2.835   1.691 -0.1387  0.4239 -0.0481
  162MOL    H8219724   0.537   2.676   1.573  0.1045  2.0567 -1.9020
  162MOL    H8319725   0.412   2.766   1.515 -0.3822  0.4375  0.8461
  162MOL    H8419726   0.404   2.899   1.689 -0.8984 -0.6376 -1.5427
  162MOL    H8519727   0.503   2.800   1.793 -0.6289  1.3914  0.3367
  162MOL    C8619728   0.616   2.910   1.638 -0.0932 -0.1786 -0.2039
  162MOL    C8719729   0.594   2.996   1.515  0.1468 -0.0462 -0.3046
  162MOL    H8819730   0.642   2.979   1.718 -0.6649  0.2924 -0.4216
  162MOL    H8919731   0.700   2.845   1.612 -0.5331 -0.2369 -1.5405
  162MOL    H9019732   0.567   2.931   1.431  0.2143  1.2034 -1.3188
  162MOL    H9119733   0.513   3.063   1.544  1.1599  1.6299 -1.2220
  162MOL    C9219734   0.710   3.094   1.488  0.3718 -0.9252 -1.0673
  162MOL    C9319735   0.695   3.178   1.360  0.6156 -0.3653  0.1665
  162MOL    H9419736   0.725   3.157   1.576 -2.8917 -1.9148  0.3023
  162MOL    H9519737   0.807   3.044   1.482 -0.0821 -1.6869 -2.3060
  162MOL    H9619738   0.710   3.113   1.274  2.2426 -0.2646  0.3708
  162MOL    H9719739   0.596   3.223   1.353  0.0578 -1.3669  1.4098
  162MOL    C9819740   0.799   3.287   1.356  0.0021 -0.9665 -0.0400
  162MOL    C9919741   0.767   3.376   1.243  0.2001  0.3246 -0.3300
  162MOL   H10019742   0.813   3.346   1.447 -1.7853 -1.0308  0.2923
  162MOL   H10119743   0.892   3.237   1.331  0.7770 -0.1865  1.1844
  162MOL   H10219744   0.758   3.317   1.151  0.6114 -0.0497 -0.1342
  162MOL   H10319745   0.672   3.428   1.254  0.2034  0.5963 -1.4645
  162MOL   C10419746   0.881   3.472   1.213  0.0235  0.0021  0.8304
  162MOL   C10519747   0.854   3.541   1.079  0.3480  0.1863 -0.5265
  162MOL   H10619748   0.894   3.544   1.295 -0.1921  1.1297 -0.1138
  162MOL   H10719749   0.975   3.419   1.206  0.4680  0.7125  1.3407
  162MOL   H10819750   0.858   3.461   1.004  1.0066 -1.9105  1.6828
  162MOL   H10919751   0.761   3.598   1.082  0.2208 -0.1063  1.7849
  162MOL   C11019752   0.961   3.643   1.045 -0.1159 -0.6342 -0.2307
  162MOL   C11119753   0.943   3.699   0.905 -0.0399  0.6796  0.2541
  162MOL   H11219754   0.948   3.721   1.120 -0.1974 -0.3518 -0.5375
  162MOL   H11319755   1.066   3.612   1.052  0.2220  0.6926  0.6835
  162MOL   H11419756   0.917   3.615   0.841 -1.2924 -0.5476  2.3498
  162MOL   H11519757   0.847   3.750   0.918 -1.2803 -1.8257  1.1763
  162MOL   C11619758   1.035   3.789   0.829 -0.1420 -0.2826  0.4511
  162MOL   C11719759   1.174   3.722   0.799 -0.0919  0.7964  1.0292
  162MOL   H11819760   0.989   3.836   0.742  3.2958 -1.7046 -2.2431
  162MOL   H11919761   1.061   3.872   0.895 -1.3551 -0.5678  1.3028
  162MOL   H12019762   1.234   3.778   0.727 -1.6943 -0.7512 -1.5852
  162MOL   H12119763   1.239   3.714   0.886  3.3381 -1.8722 -1.6447
  162MOL   H12219764   1.159   3.622   0.759  0.4734  1.0419  0.1741
  163MOL     C119765   4.078   6.264   1.135 -0.1058 -0.1058  0.3452
  163MOL     C219766   3.984   6.312   1.018 -0.0488 -0.3023  0.3547
  163MOL     H319767   4.158   6.203   1.092  3.4182  2.3470  3.1030
  163MOL     H419768   4.025   6.216   1.218  1.3975  1.5649  2.3313
  163MOL     H519769   3.905   6.364   1.071 -1.1744  1.0947 -2.5789
  163MOL     H619770   4.036   6.379   0.949 -1.4572  1.4794  0.9841
  163MOL     H719771   4.124   6.346   1.190  1.5049  0.3704 -1.6350
  163MOL     C819772   3.909   6.203   0.937 -0.1882 -0.2108  0.0492
  163MOL     C919773   3.830   6.260   0.820 -0.5686  0.3449  0.1905
  163MOL    H1019774   3.993   6.143   0.900 -0.5895 -0.3436 -0.6342
  163MOL    H1119775   3.850   6.134   0.997 -1.3174  1.2674  0.6539
  163MOL    H1219776   3.764   6.336   0.861 -2.0557 -0.3970 -0.7822
  163MOL    H1319777   3.908   6.310   0.763  0.2880  1.7018  2.4913
  163MOL    C1419778   3.751   6.154   0.746 -0.1578  0.3047 -0.1588
  163MOL    C1519779   3.688   6.226   0.627  0.5417 -0.6073  0.5139
  163MOL    H1619780   3.819   6.077   0.708  3.3820  2.2764  1.8872
  163MOL    H1719781   3.688   6.100   0.817  0.4515 -1.4665 -0.9269
  163MOL    H1819782   3.638   6.314   0.669 -1.3003 -1.5988  0.4074
  163MOL    H1919783   3.774   6.251   0.564 -0.1121 -0.0705 -0.1643
  163MOL    C2019784   3.595   6.133   0.548  0.4749  0.8657 -0.3637
  163MOL    C2119785   3.497   6.208   0.454 -0.7304 -0.0408 -0.6372
  163MOL    H2219786   3.667   6.076   0.489  0.8714  1.5550 -0.5433
  163MOL    H2319787   3.535   6.069   0.613  2.6663  0.0870  0.9466
  163MOL    H2419788   3.428   6.261   0.520 -1.5689 -0.2234 -1.3537
  163MOL    H2519789   3.553   6.282   0.397  1.4033 -1.1655 -0.0676
  163MOL    C2619790   3.422   6.110   0.363  0.1651 -0.1309 -0.7492
  163MOL    C2719791   3.340   6.195   0.270  0.2911 -0.4217 -0.0178
  163MOL    H2819792   3.488   6.051   0.298 -0.0059  0.2223 -1.2397
  163MOL    H2919793   3.365   6.040   0.424  0.7775 -0.4934 -0.5812
  163MOL    H3019794   3.268   6.252   0.330 -1.6386 -0.9157 -1.8203
  163MOL    H3119795   3.410   6.257   0.214 -0.1321 -1.1844 -1.3929
  163MOL    C3219796   3.250   6.129   0.168  0.4654 -0.2944 -0.4516
  163MOL    C3319797   3.177   6.224   0.081  0.9073 -0.8320  0.0513
  163MOL    H3419798   3.292   6.072   0.085 -0.1093  2.6276 -2.8494
  163MOL    H3519799   3.182   6.057   0.214 -0.8820 -0.2006 -2.2476
  163MOL    H3619800   3.135   6.305   0.141  0.5655 -1.8840  1.2598
  163MOL    H3719801   3.253   6.274   0.022  0.7460  1.5283  1.7650
  163MOL    C3819802   3.071   6.167   7.682 -0.0970 -0.1422 -0.0598
  163MOL    C3919803   2.970   6.270   7.630 -0.4891  0.1948 -0.1216
  163MOL    H4019804   3.116   6.110   7.601  1.2794  2.2836 -1.0469
  163MOL    H4119805   3.015   6.095   0.049 -1.9295  3.0385  2.2805
  163MOL    H4219806   2.933   6.328   0.023 -1.4007 -2.2212  1.1854
  163MOL    H4319807   3.025   6.326   7.554 -1.8211  0.4445 -0.9354
  163MOL    C4419808   2.855   6.199   7.558  0.2505  0.3760  0.3847
  163MOL    C4519809   2.740   6.295   7.517  0.0444  0.2370  0.0266
  163MOL    H4619810   2.870   6.155   7.460 -2.2210  1.0460 -0.3377
  163MOL    H4719811   2.805   6.131   7.628  0.4166  2.8644  3.0017
  163MOL    H4819812   2.701   6.357   7.598 -0.1507  0.3302 -0.1377
  163MOL    H4919813   2.769   6.367   7.440  1.0556 -0.6561 -0.4325
  163MOL    C5019814   2.612   6.226   7.453  0.0331  0.2012  0.1934
  163MOL    C5119815   2.500   6.333   7.445  0.0672 -0.0461  0.5957
  163MOL    H5219816   2.632   6.195   7.351  1.6225 -0.6732  0.7565
  163MOL    H5319817   2.566   6.145   7.510 -0.6317  0.0787 -0.5142
  163MOL    H5419818   2.485   6.376   7.544 -1.3841  0.8497  0.0030
  163MOL    H5519819   2.543   6.409   7.380  1.3712 -1.1251  0.1818
  163MOL    C5619820   2.362   6.285   7.389  0.0735  0.2876  0.3247
  163MOL    C5719821   2.248   6.392   7.396  0.3153 -0.0746 -0.3943
  163MOL    H5819822   2.367   6.246   7.288 -1.5543  1.7205 -0.3328
  163MOL    H5919823   2.329   6.197   7.445 -0.4381  1.3027  1.6582
  163MOL    H6019824   2.223   6.426   7.496 -0.8387 -0.8428 -0.4167
  163MOL    H6119825   2.262   6.480   7.333 -1.1133  1.8046  1.8405
  163MOL    C6219826   2.116   6.327   7.340 -0.0246  0.0123 -0.0044
  163MOL    C6319827   2.001   6.423   7.318 -0.3394  0.5625  0.2674
  163MOL    H6419828   2.134   6.277   7.245 -0.6759  0.3363 -0.3060
  163MOL    H6519829   2.100   6.246   7.410  1.0767 -0.2571 -0.0511
  163MOL    H6619830   1.985   6.480   7.410  0.2390 -0.5328  1.0578
  163MOL    H6719831   2.025   6.496   7.240  1.7941  1.4863  1.7208
  163MOL    C6819832   1.877   6.345   7.283 -0.4459 -0.6176 -0.0987
  163MOL    C6919833   1.758   6.435   7.275  0.2584 -0.4652 -0.5158
  163MOL    H7019834   1.891   6.291   7.189 -1.4668 -0.4305 -0.3606
  163MOL    H7119835   1.862   6.263   7.353  3.7862 -0.7256  0.8106
  163MOL    H7219836   1.765   6.494   7.367  3.7413 -0.4939 -0.6600
  163MOL    H7319837   1.778   6.515   7.203  0.3555  0.6283  0.6981
  163MOL    C7419838   1.623   6.372   7.242 -0.0641 -0.2694 -0.2233
  163MOL    C7519839   1.511   6.473   7.196  0.2480 -0.6859  0.1295
  163MOL    H7619840   1.640   6.294   7.168 -3.4536 -0.7054 -0.6163
  163MOL    H7719841   1.589   6.324   7.334 -2.0864  1.1057 -0.2198
  163MOL    H7819842   1.478   6.519   7.289 -3.6300 -0.0981 -1.4151
  163MOL    H7919843   1.565   6.550   7.139 -0.8131 -0.4794 -0.6160
  163MOL    C8019844   1.387   6.405   7.127  0.2743  0.4705 -0.9473
  163MOL    C8119845   1.323   6.296   7.212 -0.3828 -0.0332  0.2259
  163MOL    H8219846   1.314   6.484   7.110  0.5077  0.8398 -0.2744
  163MOL    H8319847   1.408   6.366   7.028 -2.6927 -1.5200 -0.8418
  163MOL    H8419848   1.381   6.205   7.222 -1.2029 -0.5052  0.7148
  163MOL    H8519849   1.318   6.338   7.313  0.3157  2.9559 -0.9221
  163MOL    C8619850   1.180   6.265   7.160 -0.1293  0.5711 -0.9052
  163MOL    C8719851   1.126   6.134   7.218 -0.6770 -0.1136  0.0941
  163MOL    H8819852   1.113   6.349   7.175 -2.3829 -1.6778  2.2378
  163MOL    H8919853   1.184   6.262   7.051 -0.1789  0.3302 -0.9000
  163MOL    H9019854   1.171   6.047   7.170  1.9778  1.2221  0.0255
  163MOL    H9119855   1.152   6.139   7.324  1.7103 -1.4184 -0.3819
  163MOL    C9219856   0.978   6.112   7.191  0.4145 -0.2029  0.3846
  163MOL    C9319857   0.938   5.972   7.218  0.3569 -0.0893 -0.5446
  163MOL    H9419858   0.931   6.197   7.239  0.6381  0.4353 -0.5203
  163MOL    H9519859   0.958   6.130   7.085  0.3989 -2.2517  0.0142
  163MOL    H9619860   1.000   5.909   7.154  2.0746  1.7186 -0.6834
  163MOL    H9719861   0.959   5.953   7.324  1.9476 -0.1145 -0.8566
  163MOL    C9819862   0.781   5.946   7.200  0.0394 -0.1260 -0.4424
  163MOL    C9919863   0.754   5.793   7.205 -0.2661 -0.3317 -0.2075
  163MOL   H10019864   0.735   6.002   7.281  0.7199  0.1266 -0.2294
  163MOL   H10119865   0.749   5.999   7.110  0.9860  1.5864  0.2158
  163MOL   H10219866   0.777   5.744   7.111 -0.0050 -1.7364  0.5676
  163MOL   H10319867   0.817   5.750   7.282 -1.7474  0.9464  1.7675
  163MOL   C10419868   0.604   5.765   7.222  0.3083  0.2785  0.3846
  163MOL   C10519869   0.571   5.621   7.259  0.4843 -0.1433 -0.0536
  163MOL   H10619870   0.561   5.830   7.298  1.5431  0.5143  0.8921
  163MOL   H10719871   0.553   5.791   7.129 -0.3907 -0.8691  0.4286
  163MOL   H10819872   0.613   5.560   7.178  0.8199 -0.5567  0.4249
  163MOL   H10919873   0.633   5.587   7.343  2.4176  0.9409 -1.0133
  163MOL   C11019874   0.429   5.583   7.282 -0.1842  0.2246  0.0929
  163MOL   C11119875   0.352   5.565   7.145 -0.2647  0.2669  0.9678
  163MOL   H11219876   0.425   5.495   7.345  0.3325  0.8252  0.9720
  163MOL   H11319877   0.379   5.663   7.337 -2.4552 -1.3513  0.3805
  163MOL   H11419878   0.246   5.540   7.159 -0.3457 -0.6362 -0.9858
  163MOL   H11519879   0.343   5.662   7.096 -1.1086 -0.9369 -1.3378
  163MOL   C11619880   0.390   5.448   7.048  0.3919  0.0109 -0.4820
  163MOL   C11719881   0.360   5.310   7.111 -0.4510 -0.4490 -0.1943
  163MOL   H11819882   0.325   5.465   6.962 -1.8473 -0.2835  1.0990
  163MOL   H11919883   0.492   5.470   7.016  0.2935  1.9190  0.4535
  163MOL   H12019884   0.252   5.305   7.120 -0.5297  0.7385 -0.3436
  163MOL   H12119885   0.384   5.222   7.051 -1.2311 -0.5089 -0.4305
  163MOL   H12219886   0.402   5.305   7.211 -0.6945 -0.2522 -0.0831
  164MOL     C119887   4.845   6.102   4.480 -0.1502  0.6942  0.5914
  164MOL     C219888   4.960   6.004   4.498  0.0959 -0.9120  0.2491
  164MOL     H319889   4.872   6.180   4.409  0.8516  0.2338  0.4568
  164MOL     H419890   4.831   6.151   4.576  0.2979  0.3389  0.8337
  164MOL     H519891   5.040   6.056   4.549 -1.7049  0.5006  1.7065
  164MOL     H619892   4.922   5.924   4.563 -0.0865 -0.1645  1.0695
  164MOL     H719893   4.756   6.049   4.444  0.5141  0.3725 -0.6173
  164MOL     C819894   4.995   5.941   4.364  0.0736  0.2088 -0.2695
  164MOL     C919895   5.099   5.822   4.378  0.5585  0.1483  1.0900
  164MOL    H1019896   4.902   5.903   4.322  0.8183 -2.7190  0.6181
  164MOL    H1119897   5.030   6.005   4.283 -0.7391 -2.0829 -2.5049
  164MOL    H1219898   5.196   5.845   4.424  1.0476 -0.2930  0.2801
  164MOL    H1319899   5.057   5.747   4.446  1.0748  0.1785  1.4435
  164MOL    C1419900   5.141   5.768   4.245  0.5629 -0.8626 -0.5019
  164MOL    C1519901   5.239   5.652   4.245  0.5393 -1.1597 -0.1800
  164MOL    H1619902   5.057   5.761   4.176  0.1024  1.0575 -0.1406
  164MOL    H1719903   5.186   5.858   4.204  0.2995 -1.0884 -1.2912
  164MOL    H1819904   5.317   5.672   4.319  0.7252 -1.6319 -0.2459
  164MOL    H1919905   5.188   5.567   4.289  0.2071 -0.8304  0.0796
  164MOL    C2019906   5.302   5.626   4.110 -0.5834  0.2270 -0.9640
  164MOL    C2119907   5.393   5.501   4.108 -0.5968  0.4469 -0.1210
  164MOL    H2219908   5.229   5.611   4.030 -1.3629 -1.1083 -0.0274
  164MOL    H2319909   5.361   5.713   4.084  0.5897 -1.0247 -2.5438
  164MOL    H2419910   5.425   5.471   4.208 -2.0866  0.9455  0.5183
  164MOL    H2519911   5.331   5.420   4.070  0.4374 -0.1973 -0.4553
  164MOL    C2619912   5.517   5.512   4.015 -0.1419 -0.8132 -0.0036
  164MOL    C2719913   5.621   5.400   4.037 -0.0171  0.1269 -0.4634
  164MOL    H2819914   5.485   5.515   3.910 -0.3893  0.4394  0.0979
  164MOL    H2919915   5.558   5.611   4.034 -0.3702 -0.9720  1.3227
  164MOL    H3019916   5.580   5.299   4.033  0.4374 -0.0288 -1.1303
  164MOL    H3119917   5.693   5.402   3.956 -1.4959 -1.6725 -1.8358
  164MOL    C3219918   5.701   5.406   4.166  0.7429  0.0376 -0.1837
  164MOL    C3319919   5.806   5.297   4.168  0.1957 -0.3716 -0.5457
  164MOL    H3419920   5.755   5.501   4.162 -2.4079  1.9779  0.9017
  164MOL    H3519921   5.636   5.403   4.254 -0.5435 -0.9195 -1.1376
  164MOL    H3619922   5.753   5.203   4.183 -0.9207  0.5507  1.4493
  164MOL    H3719923   5.872   5.309   4.082  0.6908  1.6982  0.0919
  164MOL    C3819924   5.902   5.306   4.294 -0.2167 -0.3083 -0.1450
  164MOL    C3919925   5.828   5.317   4.431  0.0703  0.5085  0.4134
  164MOL    H4019926   5.976   5.226   4.298 -0.1992 -0.3376 -0.9690
  164MOL    H4119927   5.959   5.398   4.285  0.8479 -0.5919  3.1909
  164MOL    H4219928   5.761   5.403   4.430 -3.1011 -1.8810 -0.7578
  164MOL    H4319929   5.757   5.234   4.431  1.2295 -0.5413 -1.1452
  164MOL    C4419930   5.934   5.307   4.541  1.0110 -0.0348  0.1822
  164MOL    C4519931   5.870   5.298   4.671  0.1207  0.9310 -0.2683
  164MOL    H4619932   5.993   5.217   4.527  1.1899 -0.0381  0.9399
  164MOL    H4719933   6.003   5.392   4.539  0.5820  0.2925 -1.5860
  164MOL    H4819934   5.812   5.388   4.688 -1.4421 -0.0059 -0.5009
  164MOL    H4919935   5.804   5.211   4.675 -1.0767  1.8785  0.8387
  164MOL    C5019936   5.984   5.295   4.777  0.3960  0.4213 -0.3031
  164MOL    C5119937   5.929   5.347   4.909  0.3899 -0.8720 -0.0268
  164MOL    H5219938   6.022   5.193   4.784 -1.9610 -0.7305 -3.1038
  164MOL    H5319939   6.076   5.342   4.742 -0.7399  1.1799 -2.3654
  164MOL    H5419940   5.897   5.451   4.900  2.4591 -0.1930  0.1428
  164MOL    H5519941   5.837   5.301   4.944 -1.3343  3.1484  0.9626
  164MOL    C5619942   6.035   5.333   5.012 -0.4491  0.0179 -0.4104
  164MOL    C5719943   6.007   5.390   5.152  0.1356 -0.0823  0.3882
  164MOL    H5819944   6.049   5.225   5.022  0.1649  0.3151  2.3312
  164MOL    H5919945   6.128   5.379   4.977 -0.9409  1.8501  0.5880
  164MOL    H6019946   6.010   5.498   5.139 -0.2088  0.1000  1.7972
  164MOL    H6119947   5.911   5.353   5.188 -0.8113  0.3413 -1.6368
  164MOL    C6219948   6.112   5.341   5.252 -0.0968  0.2191 -1.1248
  164MOL    C6319949   6.083   5.399   5.395 -0.6622 -0.6602  0.1659
  164MOL    H6419950   6.104   5.233   5.262 -0.7071  0.4593  1.2181
  164MOL    H6519951   6.214   5.366   5.222  0.0322 -0.1248 -0.9789
  164MOL    H6619952   6.109   5.504   5.401 -0.9269 -0.6340  0.8984
  164MOL    H6719953   5.976   5.398   5.416 -0.3067  1.2657  2.3014
  164MOL    C6819954   6.167   5.316   5.501 -1.0010 -0.1725  0.5231
  164MOL    C6919955   6.151   5.356   5.641  0.2094  0.3300  0.3811
  164MOL    H7019956   6.132   5.213   5.497 -0.8367 -0.2400  0.7816
  164MOL    H7119957   6.273   5.304   5.481 -0.5801 -1.0383  3.0465
  164MOL    H7219958   6.216   5.443   5.655 -2.1530  1.7924  2.7527
  164MOL    H7319959   6.048   5.389   5.658 -0.2810 -1.6806  1.5039
  164MOL    C7419960   6.202   5.249   5.738 -0.2498 -0.4420  0.8196
  164MOL    C7519961   6.183   5.291   5.883 -0.4429 -0.0249  0.1831
  164MOL    H7619962   6.163   5.150   5.714 -1.7226 -0.0844  1.6605
  164MOL    H7719963   6.306   5.227   5.716  0.0929  1.4494  0.5142
  164MOL    H7819964   6.230   5.388   5.901  2.1777 -1.2708  0.2620
  164MOL    H7919965   6.078   5.306   5.908 -0.5686  2.1774 -1.5380
  164MOL    C8019966   6.234   5.184   5.978  0.2841 -0.2518 -0.6666
  164MOL    C8119967   6.236   5.233   6.125  0.1549 -0.6793  0.0754
  164MOL    H8219968   6.176   5.092   5.968 -0.3129  0.1570 -0.9261
  164MOL    H8319969   6.337   5.158   5.951  0.7704  0.0718  0.8296
  164MOL    H8419970   6.318   5.300   6.147 -0.3197 -0.1401  0.2055
  164MOL    H8519971   6.143   5.289   6.141  0.8180  0.1999  0.8518
  164MOL    C8619972   6.268   5.110   6.217  0.2390 -0.3585 -0.2188
  164MOL    C8719973   6.294   5.147   6.363  0.0959  0.0532 -0.5397
  164MOL    H8819974   6.190   5.035   6.209 -0.7358  0.4691  1.3913
  164MOL    H8919975   6.364   5.072   6.180 -0.1993  0.2268 -2.0145
  164MOL    H9019976   6.364   5.230   6.372 -1.0171  1.0940 -1.3442
  164MOL    H9119977   6.201   5.193   6.396  0.9906  1.1793  0.4614
  164MOL    C9219978   6.331   5.036   6.467  0.4136  0.5795  0.8301
  164MOL    C9319979   6.470   4.990   6.464  0.0795  0.2882 -0.3039
  164MOL    H9419980   6.306   5.076   6.565  1.7086  1.4586  0.8140
  164MOL    H9519981   6.265   4.950   6.455  0.3319  0.7205  0.2937
  164MOL    H9619982   6.490   4.940   6.370 -0.3187 -1.6317  0.6071
  164MOL    H9719983   6.529   5.078   6.488  0.7922 -0.6435  1.4488
  164MOL    C9819984   6.510   4.866   6.561  0.1958  0.4566 -0.0062
  164MOL    C9919985   6.660   4.819   6.534  0.0685 -0.7177 -0.3374
  164MOL   H10019986   6.500   4.906   6.662 -3.9388 -1.8515  0.6149
  164MOL   H10119987   6.446   4.778   6.561  1.3532 -0.4070 -0.5968
  164MOL   H10219988   6.672   4.784   6.431  0.2204 -1.9941  0.1118
  164MOL   H10319989   6.724   4.906   6.545 -2.3499  1.3399 -1.9055
  164MOL   C10419990   6.697   4.702   6.633  0.4870  0.7030  0.5034
  164MOL   C10519991   6.841   4.660   6.637  0.2002 -0.2699 -0.6005
  164MOL   H10619992   6.659   4.710   6.735  1.5722  0.4436  0.9316
  164MOL   H10719993   6.636   4.618   6.600  0.1337  0.4654  1.7135
  164MOL   H10819994   6.875   4.612   6.546 -1.6702 -0.2848 -1.3028
  164MOL   H10919995   6.899   4.752   6.630  0.1867 -0.2769 -0.7823
  164MOL   C11019996   6.881   4.580   6.760 -0.2595 -0.0162 -1.3991
  164MOL   C11119997   7.019   4.519   6.752 -0.1522 -0.2192 -0.5303
  164MOL   H11219998   6.873   4.648   6.845 -2.2940 -2.0149  0.0673
  164MOL   H11319999   6.816   4.498   6.791  0.3024  0.4656  1.1812
  164MOL   H11420000   7.008   4.452   6.667 -1.9924 -0.0613 -0.4245
  164MOL   H11520001   7.096   4.587   6.717 -0.6302 -0.3363 -1.7997
  164MOL   C11620002   7.058   4.441   6.881 -0.0834  0.4217 -1.0939
  164MOL   C11720003   7.208   4.408   6.891  0.0584 -0.0214  0.1270
  164MOL   H11820004   7.023   4.498   6.967  2.4312  1.1499 -0.5078
  164MOL   H11920005   7.000   4.349   6.890 -0.2919  0.6613  0.0887
  164MOL   H12020006   7.238   4.368   6.793 -0.4756 -2.0783  0.7854
  164MOL   H12120007   7.261   4.497   6.924  2.6172 -1.0656 -1.0089
  164MOL   H12220008   7.229   4.333   6.967 -3.4922 -0.3020  0.8934
  165MOL     C120009   2.963   2.324   4.390  0.8418  0.1586  0.0941
  165MOL     C220010   2.890   2.294   4.265 -0.1787  0.4308  0.3593
  165MOL     H320011   3.049   2.259   4.409  1.2051  1.1395  1.9152
  165MOL     H420012   2.887   2.299   4.463  0.6976 -2.7060 -0.9909
  165MOL     H520013   2.833   2.204   4.241  0.7809 -0.1591  0.2686
  165MOL     H620014   2.806   2.362   4.280  0.4753  1.7351 -1.6555
  165MOL     H720015   2.987   2.430   4.380 -0.0104  0.3596  0.2109
  165MOL     C820016   2.963   2.319   4.128  0.3564  0.5054 -0.1575
  165MOL     C920017   3.031   2.194   4.082  0.4864 -0.3294  0.6973
  165MOL    H1020018   2.889   2.341   4.052  0.1263 -0.0502 -0.0932
  165MOL    H1120019   3.026   2.408   4.133 -0.0401  0.7065  1.8185
  165MOL    H1220020   3.096   2.167   4.165  0.4886  2.3762  1.6274
  165MOL    H1320021   2.959   2.114   4.064  1.7328 -1.4635  0.6166
  165MOL    C1420022   3.103   2.204   3.949 -0.4841 -0.5680  0.4264
  165MOL    C1520023   3.191   2.333   3.943  0.1426  0.3490  0.0066
  165MOL    H1620024   3.170   2.119   3.936 -0.0527 -0.2642  0.6679
  165MOL    H1720025   3.031   2.208   3.867  0.2175 -1.7620 -0.2569
  165MOL    H1820026   3.129   2.423   3.941 -0.7233 -0.1947  1.3273
  165MOL    H1920027   3.253   2.344   4.032 -0.3597  1.4266  0.2316
  165MOL    C2020028   3.266   2.344   3.807 -0.3925 -0.2067  0.4637
  165MOL    C2120029   3.381   2.445   3.805 -0.5712  0.8148  0.1977
  165MOL    H2220030   3.292   2.247   3.763 -0.0987  0.0261  0.1170
  165MOL    H2320031   3.201   2.378   3.725 -2.5166 -4.0532  0.4376
  165MOL    H2420032   3.336   2.543   3.817 -1.1297  0.3086  2.4183
  165MOL    H2520033   3.445   2.429   3.891 -1.4914  1.8282  1.0798
  165MOL    C2620034   3.473   2.435   3.679  1.0286 -0.1290  0.6951
  165MOL    C2720035   3.587   2.530   3.669  0.1913  0.2411 -0.4964
  165MOL    H2820036   3.513   2.334   3.672  1.3899  0.1132 -0.9823
  165MOL    H2920037   3.411   2.454   3.592  1.8415  0.1021  0.1646
  165MOL    H3020038   3.546   2.630   3.685 -0.4941 -0.0598 -0.3388
  165MOL    H3120039   3.649   2.506   3.755  1.1737  1.4062 -0.8758
  165MOL    C3220040   3.665   2.538   3.535  0.1237  0.2531  0.5357
  165MOL    C3320041   3.760   2.660   3.535  0.4145 -0.2632 -0.0384
  165MOL    H3420042   3.719   2.444   3.527  0.6007  0.7205 -2.7822
  165MOL    H3520043   3.594   2.537   3.451 -0.6014  1.8411  1.1057
  165MOL    H3620044   3.711   2.757   3.545  0.6641 -0.0026 -1.2133
  165MOL    H3720045   3.826   2.646   3.620 -0.4237 -1.0597  0.5003
  165MOL    C3820046   3.838   2.664   3.398 -0.4563  0.0600  0.8456
  165MOL    C3920047   3.978   2.723   3.418  0.3157  0.2895 -0.5980
  165MOL    H4020048   3.849   2.561   3.365  0.4861 -0.5061  2.8556
  165MOL    H4120049   3.786   2.721   3.322 -0.5180 -0.8240  0.2208
  165MOL    H4220050   3.973   2.824   3.458  1.4905 -0.5992  1.9105
  165MOL    H4320051   4.032   2.662   3.490  0.8917  1.0112 -0.4201
  165MOL    C4420052   4.073   2.725   3.296  0.4575  0.8670 -0.0253
  165MOL    C4520053   4.200   2.799   3.333 -0.1301 -0.4103 -0.3769
  165MOL    H4620054   4.090   2.620   3.275 -2.5556 -0.2044  2.4617
  165MOL    H4720055   4.011   2.773   3.221 -2.5963 -1.3431  0.9884
  165MOL    H4820056   4.182   2.905   3.350  1.3974  0.5052 -3.8877
  165MOL    H4920057   4.229   2.750   3.425 -1.9207  0.5900  0.7571
  165MOL    C5020058   4.310   2.805   3.226  0.6021 -0.2580 -0.0637
  165MOL    C5120059   4.430   2.890   3.256 -0.2497 -0.1377  0.4294
  165MOL    H5220060   4.347   2.706   3.198  0.9290 -0.2834  0.4448
  165MOL    H5320061   4.272   2.846   3.132  0.3525  0.0078  0.1531
  165MOL    H5420062   4.391   2.990   3.274 -1.1046 -0.1870 -1.1297
  165MOL    H5520063   4.481   2.870   3.351  0.7143 -1.6634 -0.3850
  165MOL    C5620064   4.538   2.902   3.142  0.4924 -0.5860 -0.1704
  165MOL    C5720065   4.663   2.976   3.176  0.3533  0.7362 -0.9928
  165MOL    H5820066   4.555   2.799   3.111  0.2852 -0.5865 -0.2833
  165MOL    H5920067   4.490   2.952   3.058 -2.2798 -1.2968  0.9264
  165MOL    H6020068   4.648   3.077   3.214  2.5622  0.9760 -0.6856
  165MOL    H6120069   4.713   2.927   3.259 -1.9187  0.1196  0.0615
  165MOL    C6220070   4.759   2.989   3.057 -0.8011  0.6066 -0.3349
  165MOL    C6320071   4.885   3.070   3.070  0.3618  0.0805  0.3832
  165MOL    H6420072   4.787   2.889   3.024  0.0064  0.2670  1.3283
  165MOL    H6520073   4.715   3.033   2.968 -0.6638  1.7761  0.1720
  165MOL    H6620074   4.854   3.174   3.077  0.8242  0.2381  0.1222
  165MOL    H6720075   4.940   3.054   3.163 -1.1741  3.1934  1.8742
  165MOL    C6820076   4.980   3.060   2.950 -0.2113 -0.4497  0.0873
  165MOL    C6920077   5.122   3.124   2.982 -0.5436 -0.0642  0.8318
  165MOL    H7020078   4.997   2.956   2.921 -1.6672 -0.3735 -1.0948
  165MOL    H7120079   4.930   3.105   2.864 -0.5042 -2.5748 -0.9047
  165MOL    H7220080   5.112   3.223   3.027  0.3919  0.6680 -0.5024
  165MOL    H7320081   5.174   3.067   3.059 -0.6527 -0.8893  0.2922
  165MOL    C7420082   5.214   3.120   2.853  1.0256 -0.5748 -0.1337
  165MOL    C7520083   5.352   3.188   2.877  0.2143 -0.5809  0.6118
  165MOL    H7620084   5.219   3.013   2.829 -1.5452 -1.0347  1.1459
  165MOL    H7720085   5.168   3.166   2.765  1.6394  2.7262  1.1995
  165MOL    H7820086   5.344   3.292   2.908 -2.1735 -0.2311 -1.0697
  165MOL    H7920087   5.406   3.141   2.960  1.3868  0.2300  0.3172
  165MOL    C8020088   5.434   3.173   2.753 -0.0325 -0.1882  0.1479
  165MOL    C8120089   5.577   3.231   2.768  0.5169 -0.4327 -0.5133
  165MOL    H8220090   5.441   3.067   2.729 -0.4509  0.1774 -1.6852
  165MOL    H8320091   5.384   3.227   2.672  0.1842  2.1944  1.5449
  165MOL    H8420092   5.569   3.336   2.796 -0.9107 -0.8124  0.5331
  165MOL    H8520093   5.630   3.181   2.849 -1.0124 -1.4415 -0.1281
  165MOL    C8620094   5.668   3.220   2.641  0.1624 -0.2597 -0.6205
  165MOL    C8720095   5.800   3.304   2.666 -0.4764 -0.7076  0.2798
  165MOL    H8820096   5.699   3.117   2.621 -1.1133 -0.8343  0.3303
  165MOL    H8920097   5.609   3.260   2.558  0.8516  0.9134 -0.5525
  165MOL    H9020098   5.787   3.402   2.619 -1.7496 -0.5977  0.8534
  165MOL    H9120099   5.821   3.328   2.770 -2.0236  2.7766 -0.1464
  165MOL    C9220100   5.921   3.236   2.606  0.6765 -0.1341 -1.1704
  165MOL    C9320101   6.048   3.320   2.600 -0.0801 -0.2780 -0.6758
  165MOL    H9420102   5.940   3.147   2.666  0.9071  2.9011  3.4978
  165MOL    H9520103   5.892   3.211   2.504 -2.4401 -0.7948 -0.1715
  165MOL    H9620104   6.026   3.402   2.531 -0.3420 -0.5449 -0.9101
  165MOL    H9720105   6.067   3.357   2.701  2.6063 -0.0659 -1.2372
  165MOL    C9820106   6.179   3.253   2.557 -0.0751 -0.3708 -0.3201
  165MOL    C9920107   6.304   3.344   2.563  0.8063 -0.3732 -0.4006
  165MOL   H10020108   6.194   3.172   2.628  0.6150  0.7016  0.7555
  165MOL   H10120109   6.172   3.200   2.462 -0.1299 -0.2901 -0.3610
  165MOL   H10220110   6.318   3.402   2.472 -1.1857  0.1228 -0.4152
  165MOL   H10320111   6.292   3.416   2.645  3.2774 -1.2296  0.7928
  165MOL   C10420112   6.431   3.260   2.598  0.2374 -0.2296 -0.5378
  165MOL   C10520113   6.546   3.343   2.663  0.1076  0.0987 -0.3192
  165MOL   H10620114   6.399   3.182   2.667 -1.9800  0.8539 -0.2755
  165MOL   H10720115   6.477   3.215   2.510  1.1742  0.3093 -0.3281
  165MOL   H10820116   6.629   3.273   2.664 -0.0912 -0.1387  1.3353
  165MOL   H10920117   6.573   3.427   2.599  1.3986 -0.7070 -0.8527
  165MOL   C11020118   6.526   3.398   2.807  0.2733  0.0136  0.1184
  165MOL   C11120119   6.654   3.460   2.856  0.5990 -0.3581 -0.2289
  165MOL   H11220120   6.456   3.482   2.797 -0.7785 -0.9461 -0.6991
  165MOL   H11320121   6.492   3.323   2.878 -3.3704  0.8846 -0.6202
  165MOL   H11420122   6.741   3.407   2.819  0.3219 -0.1987 -1.1177
  165MOL   H11520123   6.666   3.554   2.803  1.0218 -0.5862 -0.5357
  165MOL   C11620124   6.672   3.478   3.008  0.0919 -0.2170  0.3065
  165MOL   C11720125   6.679   3.342   3.072  0.6468  0.0449 -0.3879
  165MOL   H11820126   6.755   3.543   3.032 -0.7995  0.3325  1.9332
  165MOL   H11920127   6.586   3.529   3.051 -0.4191  0.2935 -1.2795
  165MOL   H12020128   6.583   3.291   3.069 -0.2121  1.6682 -1.1567
  165MOL   H12120129   6.756   3.275   3.033  0.6349  0.4875 -1.1594
  165MOL   H12220130   6.700   3.342   3.180 -0.9553 -2.0909 -0.0517
  166MOL     C120131   0.210   5.982   6.089 -0.0488 -0.0540  0.1447
  166MOL     C220132   0.187   5.827   6.088 -0.6972 -0.3105  0.3893
  166MOL     H320133   0.305   6.007   6.042 -0.6582  0.9123 -0.6011
  166MOL     H420134   0.207   6.029   6.187  1.0172 -1.1119  0.6907
  166MOL     H520135   0.210   5.785   5.990 -1.2610  0.4227 -0.0658
  166MOL     H620136   0.260   5.784   6.157  1.2448  1.5580 -0.4374
  166MOL     H720137   0.132   6.025   6.026  1.6226  1.1658 -1.1251
  166MOL     C820138   0.044   5.798   6.130 -0.7492 -0.0219 -0.3076
  166MOL     C920139   7.690   5.659   6.083 -0.1379  0.1597 -0.3641
  166MOL    H1020140   0.035   5.810   6.238 -1.5063 -0.5544 -0.3025
  166MOL    H1120141   7.680   5.877   6.079  0.2962  1.1425  0.3304
  166MOL    H1220142   0.030   5.644   5.980 -1.2786  0.8361 -0.8203
  166MOL    H1320143   0.055   5.587   6.142  1.3828  1.3675 -0.3318
  166MOL    C1420144   7.540   5.627   6.105  0.3911 -0.4100 -0.5306
  166MOL    C1520145   7.515   5.605   6.255 -0.8353  0.1030  0.3252
  166MOL    H1620146   7.482   5.701   6.049  1.0837 -0.0256 -0.7514
  166MOL    H1720147   7.519   5.530   6.060 -0.3276 -0.0474 -0.9819
  166MOL    H1820148   7.598   5.542   6.289  1.0709  2.9797  1.2233
  166MOL    H1920149   7.512   5.700   6.308 -3.2008 -0.4010  1.1546
  166MOL    C2020150   7.374   5.548   6.277 -0.2828 -0.5598  0.0103
  166MOL    C2120151   7.367   5.466   6.406 -0.0802  0.1579  0.5678
  166MOL    H2220152   7.316   5.638   6.297  2.7818  2.0003 -2.0638
  166MOL    H2320153   7.335   5.482   6.198  3.0444 -0.7963 -1.5192
  166MOL    H2420154   7.418   5.371   6.399 -1.5688 -0.5347 -1.2346
  166MOL    H2520155   7.432   5.515   6.478  0.8746  0.7270 -0.6550
  166MOL    C2620156   7.218   5.434   6.441 -0.0191 -0.5245 -0.3391
  166MOL    C2720157   7.211   5.328   6.548 -0.2500 -0.1212 -0.5083
  166MOL    H2820158   7.167   5.525   6.472  1.9170  0.3112  0.4344
  166MOL    H2920159   7.156   5.390   6.362  0.1984  1.3600 -1.6057
  166MOL    H3020160   7.243   5.230   6.511 -0.0307  0.0401 -0.7470
  166MOL    H3120161   7.275   5.366   6.628 -0.9214 -0.9412  0.4323
  166MOL    C3220162   7.070   5.303   6.615  0.3849 -0.1472 -0.3034
  166MOL    C3320163   7.064   5.185   6.714 -0.2816  0.2310 -0.0356
  166MOL    H3420164   7.046   5.400   6.658  0.3294 -0.3703  0.1667
  166MOL    H3520165   6.996   5.283   6.537 -1.0502  1.8565  0.5010
  166MOL    H3620166   7.106   5.094   6.671 -4.5542 -0.8474 -2.2147
  166MOL    H3720167   7.120   5.201   6.806 -1.6621 -0.6547  0.9842
  166MOL    C3820168   6.921   5.151   6.745 -0.0845  0.1155 -0.5392
  166MOL    C3920169   6.920   5.015   6.816 -0.5943  0.3443 -0.1077
  166MOL    H4020170   6.869   5.226   6.805 -2.8386 -2.6029  0.5822
  166MOL    H4120171   6.859   5.148   6.656 -0.0224  1.9885 -0.6687
  166MOL    H4220172   6.830   4.958   6.795 -0.8135  0.9365 -0.7848
  166MOL    H4320173   6.994   4.954   6.764 -0.3830  0.7978 -0.3464
  166MOL    C4420174   6.958   5.025   6.964 -0.1134  0.5274  0.2861
  166MOL    C4520175   6.969   4.883   7.024  0.3063  0.3689  1.0388
  166MOL    H4620176   7.051   5.081   6.972 -0.5268  1.1346  0.9022
  166MOL    H4720177   6.879   5.079   7.015 -0.9007  1.2950 -1.6829
  166MOL    H4820178   6.891   4.821   6.981 -0.7409  2.9483 -0.8513
  166MOL    H4920179   7.061   4.836   6.989 -0.2267 -0.0707  0.2348
  166MOL    C5020180   6.965   4.884   7.174  0.5281  0.0695  0.7179
  166MOL    C5120181   6.991   4.747   7.238 -0.5021 -0.4464  0.5538
  166MOL    H5220182   7.039   4.956   7.209 -0.2317  0.9411  0.5580
  166MOL    H5320183   6.870   4.922   7.213 -0.1434 -1.7406  0.8886
  166MOL    H5420184   6.917   4.670   7.217 -0.1305 -0.4510 -0.7699
  166MOL    H5520185   7.088   4.713   7.204 -0.1988  3.1091 -2.3963
  166MOL    C5620186   6.991   4.756   7.389 -0.2225 -0.1545 -0.1733
  166MOL    C5720187   7.046   4.628   7.459 -0.7823  0.0773 -0.6170
  166MOL    H5820188   7.040   4.846   7.424 -0.3501  0.0352 -0.4862
  166MOL    H5920189   6.885   4.769   7.413  0.3585  1.0233  1.8911
  166MOL    H6020190   6.984   4.539   7.460  0.9166 -1.1341  1.2511
  166MOL    H6120191   7.137   4.605   7.404  0.6603  0.4926  1.5405
  166MOL    C6220192   7.078   4.650   7.607 -0.6826 -0.2587 -0.4033
  166MOL    C6320193   7.136   4.539   7.691  0.3538  0.2600 -0.7369
  166MOL    H6420194   7.131   4.744   7.620 -1.1735  0.0587 -0.6525
  166MOL    H6520195   6.987   4.673   7.663 -1.3248 -1.6412 -0.8650
  166MOL    H6620196   7.059   4.463   0.015 -0.8506  1.0158 -2.8150
  166MOL    H6720197   7.221   4.500   7.635 -0.2666  0.1444 -1.6077
  166MOL    C6820198   7.187   4.590   0.136 -0.1025 -0.1397 -0.5445
  166MOL    C6920199   7.231   4.472   0.228  0.7469  0.2794 -0.2368
  166MOL    H7020200   7.267   4.661   0.115  1.6095 -1.9644 -0.3978
  166MOL    H7120201   7.110   4.645   0.190 -1.2019 -0.9113 -1.3150
  166MOL    H7220202   7.138   4.421   0.251  0.7546  0.8302  1.0444
  166MOL    H7320203   7.297   4.405   0.172 -0.9030 -1.2531 -0.3702
  166MOL    C7420204   7.278   4.505   0.370  0.2909 -0.2792 -0.0306
  166MOL    C7520205   7.403   4.600   0.377  0.9075 -0.4993 -0.1525
  166MOL    H7620206   7.198   4.559   0.421 -0.1555 -0.8779 -0.0946
  166MOL    H7720207   7.292   4.413   0.427  0.5774 -0.8651 -1.0326
  166MOL    H7820208   7.475   4.553   0.311  0.7842 -0.5379 -0.2603
  166MOL    H7920209   7.381   4.701   0.343  0.5186 -0.5396 -0.0264
  166MOL    C8020210   7.461   4.609   0.520  0.6325 -0.2559  0.3953
  166MOL    C8120211   7.573   4.709   0.538 -0.2737 -0.7460  0.2468
  166MOL    H8220212   7.381   4.648   0.584  0.7751  1.2752 -0.3629
  166MOL    H8320213   7.494   4.511   0.557  1.0574  0.3642  1.6860
  166MOL    H8420214   7.658   4.686   0.475 -0.7425  2.1140 -1.5170
  166MOL    H8520215   7.540   4.812   0.525 -3.0475 -1.2575  2.7679
  166MOL    C8620216   7.636   4.700   0.685  0.2421  0.3879  0.0106
  166MOL    C8720217   0.093   4.751   0.676  0.5425  0.6063  0.4209
  166MOL    H8820218   7.590   4.767   0.758  0.2793  1.6030 -1.0572
  166MOL    H8920219   7.643   4.598   0.721 -1.7024  0.7235  1.4291
  166MOL    H9020220   0.139   4.709   0.587  2.2611  3.9495 -0.3576
  166MOL    H9120221   0.093   4.858   0.656  0.1865  0.9525  2.1580
  166MOL    C9220222   0.190   4.710   0.794  0.2170  0.4753 -0.5192
  166MOL    C9320223   0.336   4.754   0.769  0.1946  0.2310  0.0413
  166MOL    H9420224   0.152   4.754   0.886  0.5616 -0.4564  0.0685
  166MOL    H9520225   0.178   4.603   0.809  2.2116  0.2125 -0.7737
  166MOL    H9620226   0.365   4.722   0.669 -1.8490  2.6963 -1.4084
  166MOL    H9720227   0.344   4.862   0.776  0.2304  0.1420  1.5820
  166MOL    C9820228   0.427   4.692   0.877  0.1527 -0.1624  0.8658
  166MOL    C9920229   0.555   4.612   0.837 -0.0920 -0.3565  0.5773
  166MOL   H10020230   0.463   4.777   0.935 -0.2206  0.1442  0.6461
  166MOL   H10120231   0.371   4.627   0.944  0.6401 -1.3329  0.1593
  166MOL   H10220232   0.605   4.593   0.931  1.7093 -1.8226 -0.6382
  166MOL   H10320233   0.535   4.521   0.781 -2.2246 -0.6890  1.8280
  166MOL   C10420234   0.647   4.690   0.741 -0.8036  0.7050 -0.0548
  166MOL   C10520235   0.787   4.613   0.729  0.3563  0.1659  0.2538
  166MOL   H10620236   0.604   4.689   0.641  1.4208  2.2302 -1.0700
  166MOL   H10720237   0.658   4.793   0.775  0.2466  1.1950 -1.8180
  166MOL   H10820238   0.844   4.624   0.821  0.9962  0.0804 -0.1326
  166MOL   H10920239   0.780   4.507   0.704 -1.0650  0.3621 -0.2587
  166MOL   C11020240   0.872   4.670   0.616 -0.1385 -0.1094 -0.1847
  166MOL   C11120241   1.012   4.599   0.596  0.4464 -0.3522 -0.3121
  166MOL   H11220242   0.816   4.645   0.527  2.6673 -2.8496 -1.2684
  166MOL   H11320243   0.886   4.778   0.615 -2.2231  0.1725 -0.5243
  166MOL   H11420244   1.067   4.604   0.690 -0.7453  1.4501  0.3282
  166MOL   H11520245   0.993   4.491   0.593  0.4307 -0.4168  1.3925
  166MOL   C11620246   1.104   4.656   0.479  0.0514 -0.1582  0.0181
  166MOL   C11720247   1.052   4.629   0.339 -0.2469 -0.7164  0.1819
  166MOL   H11820248   1.125   4.762   0.489  2.6112 -0.6159 -0.2861
  166MOL   H11920249   1.207   4.622   0.484  0.2406  0.1313 -1.7256
  166MOL   H12020250   0.945   4.649   0.345  0.1582  1.7847 -0.1371
  166MOL   H12120251   1.092   4.708   0.275 -0.9127 -3.4244 -3.7903
  166MOL   H12220252   1.078   4.526   0.313 -1.3956 -0.9462 -0.0831
  167MOL     C120253   6.256   2.022   2.129 -0.0465  0.2319 -0.0522
  167MOL     C220254   6.171   1.892   2.091  0.3152  0.0924  0.3268
  167MOL     H320255   6.241   2.113   2.071  1.7662  0.4870 -0.1229
  167MOL     H420256   6.362   1.997   2.135  0.0309  0.4992 -0.3455
  167MOL     H520257   6.198   1.850   1.994 -0.6279  1.5492 -0.5896
  167MOL     H620258   6.193   1.821   2.170 -0.0515 -0.2054  0.1607
  167MOL     H720259   6.235   2.047   2.233 -2.5607 -0.1170 -0.4368
  167MOL     C820260   6.023   1.908   2.095  0.0914 -0.4438  0.5216
  167MOL     C920261   5.941   1.784   2.050  0.2248 -0.4331 -0.2152
  167MOL    H1020262   5.985   1.945   2.191  0.8773 -1.5816  1.2802
  167MOL    H1120263   5.980   1.985   2.031  0.5739 -0.2872  0.3916
  167MOL    H1220264   5.987   1.750   1.957  0.8686  0.2262 -0.1397
  167MOL    H1320265   5.953   1.709   2.128  0.5185 -1.0411 -0.8395
  167MOL    C1420266   5.800   1.826   2.015 -0.2158  0.2388 -0.5673
  167MOL    C1520267   5.716   1.707   1.963 -0.1073 -0.0947 -0.3626
  167MOL    H1620268   5.749   1.856   2.106 -2.0098 -0.0161 -1.4724
  167MOL    H1720269   5.798   1.903   1.938 -0.7727  1.2569  0.4483
  167MOL    H1820270   5.783   1.647   1.902 -1.6018 -1.5527 -0.6017
  167MOL    H1920271   5.692   1.637   2.043 -0.2684  0.8077  0.3960
  167MOL    C2020272   5.593   1.754   1.887  0.2556 -0.4948 -0.5467
  167MOL    C2120273   5.523   1.637   1.828  0.2778  0.3382 -0.4100
  167MOL    H2220274   5.525   1.795   1.962  0.5730 -0.3697 -0.3277
  167MOL    H2320275   5.606   1.830   1.811  1.5024 -0.0411  0.0981
  167MOL    H2420276   5.591   1.599   1.751  0.9897  2.2608 -0.7544
  167MOL    H2520277   5.493   1.559   1.898  2.0104  0.1245  0.1294
  167MOL    C2620278   5.405   1.688   1.746 -0.4133  0.3845 -0.3158
  167MOL    C2720279   5.333   1.565   1.690 -0.1139  0.0981  0.1323
  167MOL    H2820280   5.337   1.734   1.817 -0.7530  0.8645 -0.9539
  167MOL    H2920281   5.437   1.764   1.674  1.2175  1.2288  1.2551
  167MOL    H3020282   5.403   1.520   1.619  0.0094 -0.0955  0.3739
  167MOL    H3120283   5.315   1.491   1.767  0.7064  0.2279  0.4548
  167MOL    C3220284   5.198   1.585   1.623  0.2851 -0.5950  0.1304
  167MOL    C3320285   5.086   1.594   1.730 -0.7461  0.2882  0.0854
  167MOL    H3420286   5.196   1.671   1.557 -0.5877 -0.1526  0.7259
  167MOL    H3520287   5.187   1.502   1.553  1.8013 -1.4242  0.8322
  167MOL    H3620288   5.087   1.522   1.811 -1.6892  0.3909  0.1913
  167MOL    H3720289   5.101   1.685   1.788  1.0744  0.4207 -0.5592
  167MOL    C3820290   4.945   1.581   1.671 -0.0357 -0.4459 -0.3914
  167MOL    C3920291   4.841   1.573   1.782  0.3083  0.6416 -0.4886
  167MOL    H4020292   4.920   1.671   1.615  0.6970 -0.2162 -0.3616
  167MOL    H4120293   4.931   1.499   1.601  1.8386 -1.2447  0.1378
  167MOL    H4220294   4.858   1.490   1.851 -0.1189  0.5075 -0.5382
  167MOL    H4320295   4.844   1.664   1.842 -1.9419  0.7198 -0.4276
  167MOL    C4420296   4.700   1.563   1.723  0.3837  0.7392  0.0116
  167MOL    C4520297   4.606   1.580   1.837  0.4348 -0.0763  0.0383
  167MOL    H4620298   4.673   1.635   1.647 -0.3627  1.9723  1.4134
  167MOL    H4720299   4.692   1.460   1.687  0.4687  0.9187 -0.5140
  167MOL    H4820300   4.637   1.497   1.901 -0.3868  0.8322  1.6384
  167MOL    H4920301   4.604   1.677   1.886  1.9561  0.6892 -1.3626
  167MOL    C5020302   4.456   1.540   1.799  0.4240  0.5691 -0.0854
  167MOL    C5120303   4.371   1.530   1.924 -0.0400  0.2607 -0.4292
  167MOL    H5220304   4.417   1.621   1.737  1.3025  1.3042  0.3034
  167MOL    H5320305   4.434   1.456   1.733  0.6849  2.1238 -2.1966
  167MOL    H5420306   4.393   1.437   1.975  0.3666  1.3767  1.4498
  167MOL    H5520307   4.401   1.606   1.996  0.3441  2.0105 -2.3583
  167MOL    C5620308   4.221   1.527   1.899  0.5103  0.8784 -0.1154
  167MOL    C5720309   4.126   1.519   2.022  0.1431 -0.5281  1.2917
  167MOL    H5820310   4.198   1.614   1.838  0.3671  0.2799 -0.9342
  167MOL    H5920311   4.207   1.441   1.833 -1.1184  0.8406  0.2532
  167MOL    H6020312   4.160   1.433   2.081  0.2638  0.3275  2.4918
  167MOL    H6120313   4.130   1.606   2.087 -0.5579  0.2684  0.2886
  167MOL    C6220314   3.982   1.504   1.973  0.1717 -0.6454 -0.5112
  167MOL    C6320315   3.882   1.483   2.079 -0.3875 -0.3321  0.8061
  167MOL    H6420316   3.952   1.591   1.914 -0.2225 -0.8096 -0.5554
  167MOL    H6520317   3.980   1.416   1.909  3.2936 -1.7225  0.7886
  167MOL    H6620318   3.920   1.409   2.150 -0.3963  1.2868  2.5379
  167MOL    H6720319   3.887   1.576   2.136  0.7811 -0.1329  0.3843
  167MOL    C6820320   3.742   1.440   2.027 -0.2376 -0.4609 -0.0855
  167MOL    C6920321   3.641   1.462   2.136 -0.4623  0.3817 -0.6297
  167MOL    H7020322   3.734   1.506   1.941  1.4582  1.4259  1.1653
  167MOL    H7120323   3.752   1.340   1.985  1.5041 -0.4140  0.1630
  167MOL    H7220324   3.662   1.407   2.228 -1.0336 -1.5658 -1.6370
  167MOL    H7320325   3.648   1.561   2.182  0.8084  0.0145 -0.0198
  167MOL    C7420326   3.499   1.426   2.098  0.3904 -0.1568 -0.6107
  167MOL    C7520327   3.392   1.444   2.200 -0.1127 -0.5084  0.0828
  167MOL    H7620328   3.462   1.482   2.012 -0.8693  0.5598  0.3795
  167MOL    H7720329   3.505   1.320   2.072  0.1805  0.1518 -1.9876
  167MOL    H7820330   3.410   1.382   2.288  1.4644  0.4438  0.4504
  167MOL    H7920331   3.398   1.550   2.223 -0.9788 -0.4073 -0.1549
  167MOL    C8020332   3.257   1.400   2.149 -0.4715 -0.6325 -0.3817
  167MOL    C8120333   3.139   1.406   2.249 -0.5258  0.4330  0.0893
  167MOL    H8220334   3.232   1.461   2.062 -3.2059  0.0582  0.8262
  167MOL    H8320335   3.271   1.296   2.121 -1.7551 -0.3588 -2.1830
  167MOL    H8420336   3.159   1.341   2.334  1.5284 -0.8220 -1.2881
  167MOL    H8520337   3.133   1.508   2.284  0.7089  0.4231  0.3427
  167MOL    C8620338   2.999   1.367   2.196 -0.0798 -0.2270 -0.2399
  167MOL    C8720339   2.887   1.351   2.294  0.8094 -0.4204  0.2394
  167MOL    H8820340   2.988   1.451   2.127 -1.4624 -1.5046 -1.5988
  167MOL    H8920341   3.005   1.278   2.133  1.7163 -0.5013  0.2836
  167MOL    H9020342   2.879   1.435   2.362  0.6109 -2.7510  3.2144
  167MOL    H9120343   2.789   1.355   2.248  0.3542  0.7143  1.2789
  167MOL    C9220344   2.893   1.230   2.375  1.2780 -0.2888 -1.3229
  167MOL    C9320345   2.790   1.233   2.494 -0.0756  0.1620  0.1663
  167MOL    H9420346   2.875   1.134   2.326 -1.4811 -0.2695 -0.4368
  167MOL    H9520347   2.993   1.220   2.416  1.7459  0.3654 -2.2703
  167MOL    H9620348   2.801   1.323   2.555 -0.2746  0.3183 -0.0251
  167MOL    H9720349   2.688   1.236   2.455 -0.6121 -1.2039  1.4459
  167MOL    C9820350   2.795   1.109   2.585  0.5360 -0.1203  0.3980
  167MOL    C9920351   2.672   1.111   2.680 -0.5113 -0.2338 -0.3755
  167MOL   H10020352   2.790   1.017   2.527  0.3360 -0.8713  1.5804
  167MOL   H10120353   2.889   1.109   2.639  1.3125  1.5511 -0.9125
  167MOL   H10220354   2.671   1.200   2.742 -2.4247 -0.2015 -0.4312
  167MOL   H10320355   2.572   1.113   2.636  0.0963 -0.1196 -1.7661
  167MOL   C10420356   2.684   1.000   2.783 -0.6094  0.0457  0.7398
  167MOL   C10520357   2.552   0.991   2.864  0.0127  0.6430  0.4536
  167MOL   H10620358   2.715   0.901   2.748 -1.6035  1.0601 -3.3197
  167MOL   H10720359   2.754   1.037   2.858 -0.8768  1.8034  0.1327
  167MOL   H10820360   2.536   1.088   2.910  0.1491  0.7607  0.2541
  167MOL   H10920361   2.466   0.979   2.798  0.0427  0.4803  0.4424
  167MOL   C11020362   2.563   0.888   2.975 -0.1320  0.4482  0.0019
  167MOL   C11120363   2.430   0.884   3.064 -0.2593 -0.4959 -0.6291
  167MOL   H11220364   2.574   0.795   2.919  0.2242  0.9125 -0.7064
  167MOL   H11320365   2.650   0.913   3.035 -1.0854  2.6374  0.5040
  167MOL   H11420366   2.421   0.974   3.125  1.1965 -0.6546 -0.1637
  167MOL   H11520367   2.345   0.876   2.996 -1.5874 -0.3749  1.0131
  167MOL   C11620368   2.442   0.756   3.154 -0.8723  0.2440  0.0598
  167MOL   C11720369   2.309   0.688   3.184 -0.2237 -0.7406  0.2946
  167MOL   H11820370   2.502   0.676   3.111  1.3727  1.0358  1.6261
  167MOL   H11920371   2.489   0.785   3.248 -4.5447  2.8124  1.2276
  167MOL   H12020372   2.276   0.609   3.117  0.7980 -1.9808  1.2467
  167MOL   H12120373   2.310   0.644   3.284 -1.1138 -0.5029  0.4150
  167MOL   H12220374   2.220   0.748   3.163 -0.9008 -1.7654  0.2169
  168MOL     C120375   0.866   2.492   0.954  0.0094 -0.0627 -0.2989
  168MOL     C220376   0.898   2.394   1.070  0.3338 -0.5927 -0.1800
  168MOL     H320377   0.960   2.537   0.923 -1.2439  2.5272 -0.4165
  168MOL     H420378   0.800   2.571   0.988  0.9736  0.5934  0.0664
  168MOL     H520379   0.984   2.338   1.035  1.6645  0.5346  1.2462
  168MOL     H620380   0.937   2.460   1.147 -2.5861 -1.9535  2.5568
  168MOL     H720381   0.815   2.453   0.866  0.2374 -2.1342  0.4410
  168MOL     C820382   0.785   2.308   1.119  0.1267  0.2457 -0.2454
  168MOL     C920383   0.821   2.239   1.248  0.5201 -1.2113  0.4294
  168MOL    H1020384   0.702   2.377   1.136  0.5786  0.8722 -0.5719
  168MOL    H1120385   0.759   2.241   1.036 -2.0069 -1.1571  1.5046
  168MOL    H1220386   0.833   2.315   1.326 -0.1093 -0.4686 -0.1833
  168MOL    H1320387   0.744   2.168   1.279 -0.4713 -1.4986 -2.5400
  168MOL    C1420388   0.942   2.152   1.240  0.5518  0.3540 -0.1132
  168MOL    C1520389   0.969   2.069   1.368  0.3006  0.7635  0.0772
  168MOL    H1620390   0.947   2.086   1.154 -1.4639  2.0049 -1.5371
  168MOL    H1720391   1.029   2.218   1.236 -1.0461  2.5787  0.6709
  168MOL    H1820392   1.004   2.131   1.450  2.8083  0.0573 -0.4177
  168MOL    H1920393   0.872   2.029   1.398 -1.7224  2.6633 -3.6853
  168MOL    C2020394   1.057   1.946   1.350  0.4015 -0.0704  0.6414
  168MOL    C2120395   0.983   1.834   1.266 -0.0319 -0.1956  0.1762
  168MOL    H2220396   1.138   1.989   1.292 -0.1140 -1.4210 -1.1201
  168MOL    H2320397   1.101   1.904   1.440 -0.1056 -2.5296 -0.2373
  168MOL    H2420398   0.878   1.810   1.287 -0.1632  0.2727  0.0474
  168MOL    H2520399   0.986   1.878   1.167  0.1968 -0.6317 -0.0135
  168MOL    C2620400   1.063   1.704   1.270  0.4876  0.5398 -0.5246
  168MOL    C2720401   1.021   1.608   1.378  0.3148 -0.8797 -0.3956
  168MOL    H2820402   1.050   1.639   1.184 -0.7586  0.7157 -0.4770
  168MOL    H2920403   1.168   1.727   1.285  0.4159 -0.0169  0.8785
  168MOL    H3020404   0.919   1.577   1.357 -0.0852 -0.6808  1.1610
  168MOL    H3120405   1.070   1.511   1.368 -0.2104 -1.6738  3.7773
  168MOL    C3220406   1.052   1.652   1.527 -0.0674  0.0172  0.0094
  168MOL    C3320407   1.055   1.533   1.627 -0.4161 -0.9818  0.3262
  168MOL    H3420408   1.152   1.695   1.538  0.8211 -1.5692 -1.5174
  168MOL    H3520409   0.980   1.730   1.551 -0.1325 -0.4578  1.3957
  168MOL    H3620410   0.957   1.488   1.641 -0.6150 -1.9211 -3.5670
  168MOL    H3720411   1.119   1.456   1.584  1.0896  0.0788  0.6335
  168MOL    C3820412   1.113   1.573   1.770  0.7306 -0.1006  0.4022
  168MOL    C3920413   1.022   1.660   1.857  0.0347  0.7013 -0.4348
  168MOL    H4020414   1.124   1.478   1.823  1.6700 -1.3143 -1.9172
  168MOL    H4120415   1.213   1.615   1.768  1.0391 -0.8898 -1.5713
  168MOL    H4220416   0.969   1.732   1.794  0.1829  0.2538 -1.0818
  168MOL    H4320417   0.952   1.584   1.890  2.1260 -1.5565 -1.0875
  168MOL    C4420418   1.090   1.727   1.975  0.0311 -0.4598  0.1645
  168MOL    C4520419   1.176   1.844   1.939  0.0511 -0.0842 -0.3366
  168MOL    H4620420   1.005   1.754   2.037  0.5954 -0.4824  0.9478
  168MOL    H4720421   1.152   1.659   2.034  1.7857 -1.0065 -2.2069
  168MOL    H4820422   1.229   1.873   2.029  0.4264  0.2897 -0.6789
  168MOL    H4920423   1.260   1.807   1.881  2.3919  3.8016  0.3784
  168MOL    C5020424   1.102   1.959   1.873  0.1641 -0.1138  0.2563
  168MOL    C5120425   1.207   2.059   1.826  0.4382 -0.3221 -0.0342
  168MOL    H5220426   1.054   1.921   1.783 -0.6957 -0.1653  0.7377
  168MOL    H5320427   1.035   2.020   1.934  0.3722  1.8251 -1.3961
  168MOL    H5420428   1.253   2.107   1.912  0.0329 -0.9181  0.5202
  168MOL    H5520429   1.287   2.032   1.758  0.6095  1.7274 -0.6823
  168MOL    C5620430   1.135   2.167   1.745 -0.1588  0.4741 -0.3088
  168MOL    C5720431   1.229   2.275   1.704  0.0578  0.0303  0.5807
  168MOL    H5820432   1.100   2.129   1.649  1.6738  1.1186 -1.2449
  168MOL    H5920433   1.049   2.196   1.805 -0.8594 -1.4510 -0.3294
  168MOL    H6020434   1.304   2.287   1.782 -0.3002 -0.8152  1.0668
  168MOL    H6120435   1.279   2.234   1.616  0.1954  0.4112  0.4823
  168MOL    C6220436   1.158   2.416   1.675 -0.0488  0.5351  0.1769
  168MOL    C6320437   1.086   2.437   1.540 -1.1569  0.0661 -0.4099
  168MOL    H6420438   1.080   2.439   1.747  0.2579 -1.0879  1.0524
  168MOL    H6520439   1.231   2.494   1.697  0.6208 -0.1896  0.5617
  168MOL    H6620440   1.155   2.407   1.461 -2.0405  0.4388 -1.3428
  168MOL    H6720441   0.997   2.374   1.530 -2.1541  1.6587 -1.9045
  168MOL    C6820442   1.027   2.573   1.514 -0.9046 -0.5522 -0.0178
  168MOL    C6920443   1.130   2.680   1.475  0.2429  0.3982 -0.3492
  168MOL    H7020444   0.965   2.571   1.424  0.5523  1.8028 -1.1446
  168MOL    H7120445   0.976   2.618   1.599 -1.7767 -1.8952  0.1855
  168MOL    H7220446   1.209   2.679   1.550 -1.7707 -0.6261  1.8353
  168MOL    H7320447   1.164   2.659   1.374  0.2970 -1.5619  0.0633
  168MOL    C7420448   1.069   2.822   1.468 -0.5473  0.0077 -0.2193
  168MOL    C7520449   1.174   2.927   1.441 -0.1336 -0.4695  0.0495
  168MOL    H7620450   0.984   2.823   1.399  0.6684  0.2711 -1.7372
  168MOL    H7720451   1.040   2.834   1.572 -0.4595 -1.5220 -0.0143
  168MOL    H7820452   1.260   2.909   1.505  1.0029  1.6805 -0.8563
  168MOL    H7920453   1.222   2.904   1.346 -2.7588 -0.8091 -1.2465
  168MOL    C8020454   1.129   3.084   1.451  0.4317  0.9343 -0.3194
  168MOL    C8120455   1.242   3.183   1.477 -0.3069 -0.2983 -0.4910
  168MOL    H8220456   1.074   3.106   1.360 -3.8115  1.8729  2.3457
  168MOL    H8320457   1.063   3.101   1.536  1.7565 -0.1761  0.9666
  168MOL    H8420458   1.305   3.191   1.389 -1.2457  1.8418 -0.9821
  168MOL    H8520459   1.202   3.283   1.494 -0.5495 -0.1621 -1.8317
  168MOL    C8620460   1.339   3.142   1.587 -0.1312 -0.5342  0.2325
  168MOL    C8720461   1.414   3.259   1.646 -0.1501 -0.7711 -0.0268
  168MOL    H8820462   1.278   3.094   1.663 -1.6318  0.8999 -0.0529
  168MOL    H8920463   1.408   3.075   1.535 -1.5967 -1.8225 -0.1046
  168MOL    H9020464   1.458   3.317   1.565  0.2495  0.1495  0.8397
  168MOL    H9120465   1.352   3.314   1.717 -0.4099 -0.3723 -0.5622
  168MOL    C9220466   1.530   3.207   1.735 -0.1024  0.1867 -0.1025
  168MOL    C9320467   1.633   3.313   1.773  0.2302 -0.5000 -0.1238
  168MOL    H9420468   1.492   3.164   1.828  0.2530  3.7876  1.7613
  168MOL    H9520469   1.582   3.129   1.679  0.6048 -0.7327  1.7878
  168MOL    H9620470   1.658   3.361   1.678 -0.2603 -0.3749 -0.1898
  168MOL    H9720471   1.597   3.387   1.844  0.2054  0.7198 -1.3923
  168MOL    C9820472   1.770   3.257   1.823 -0.1578  0.1598 -0.4315
  168MOL    C9920473   1.882   3.356   1.844 -0.5572  0.2122  0.2974
  168MOL   H10020474   1.748   3.202   1.915 -1.1520  2.8234  0.9752
  168MOL   H10120475   1.801   3.175   1.758  0.4464  0.4903 -0.5588
  168MOL   H10220476   1.931   3.403   1.758  1.0865 -1.3959  0.3180
  168MOL   H10320477   1.834   3.439   1.895 -1.7954  0.7758 -1.7103
  168MOL   C10420478   1.992   3.300   1.936 -0.3494 -0.5206  0.0253
  168MOL   C10520479   2.105   3.402   1.951 -0.5483 -0.2340 -0.0946
  168MOL   H10620480   1.955   3.281   2.036 -2.3405  0.9743 -0.3915
  168MOL   H10720481   2.042   3.211   1.897  1.4630  0.1531  0.7480
  168MOL   H10820482   2.125   3.453   1.857 -0.0804 -1.0815 -0.4652
  168MOL   H10920483   2.076   3.493   2.004  1.6464  1.2703 -1.4028
  168MOL   C11020484   2.235   3.342   2.012  0.2538  0.1832  0.4901
  168MOL   C11120485   2.336   3.447   2.056 -0.6150 -0.4244  0.1188
  168MOL   H11220486   2.207   3.277   2.095  0.1382  2.4786  2.3071
  168MOL   H11320487   2.276   3.272   1.940  0.0778 -0.3921  0.9462
  168MOL   H11420488   2.378   3.513   1.980  0.6529  1.8797  2.7498
  168MOL   H11520489   2.297   3.509   2.136 -0.4902  1.3258 -1.1521
  168MOL   C11620490   2.458   3.378   2.115 -0.2085 -0.1873 -0.1402
  168MOL   C11720491   2.567   3.484   2.137 -0.7968  0.5145 -0.2289
  168MOL   H11820492   2.436   3.333   2.211  0.3526 -0.9720 -0.3735
  168MOL   H11920493   2.490   3.299   2.047 -3.4512 -0.6458 -1.2105
  168MOL   H12020494   2.663   3.442   2.169 -0.9796 -0.9159 -1.4698
  168MOL   H12120495   2.596   3.535   2.045 -0.3264  1.2256  0.3092
  168MOL   H12220496   2.519   3.555   2.204 -0.6870  2.2674 -1.9684
  169MOL     C120497   4.967   2.937   4.597 -0.0761  0.4586  0.2933
  169MOL     C220498   5.040   2.805   4.634  0.1297 -0.4782  0.3721
  169MOL     H320499   4.917   2.935   4.501 -0.9348  0.7781  0.7224
  169MOL     H420500   5.041   3.016   4.578 -0.5344  0.3791 -1.8630
  169MOL     H520501   5.100   2.785   4.545 -2.3806  1.1858 -1.7483
  169MOL     H620502   5.114   2.833   4.710 -0.4797  1.3857  0.3049
  169MOL     H720503   4.899   2.974   4.674 -2.0501 -0.8200 -0.8064
  169MOL     C820504   4.957   2.681   4.641  0.2774  0.2566  0.7698
  169MOL     C920505   5.037   2.559   4.686  0.2967 -0.8697 -0.4954
  169MOL    H1020506   4.864   2.679   4.699  0.2407 -1.0090  0.6767
  169MOL    H1120507   4.920   2.645   4.545 -0.3894  3.2507 -0.1630
  169MOL    H1220508   5.115   2.546   4.611  0.4257 -0.5093 -0.4229
  169MOL    H1320509   5.078   2.562   4.788  0.7401  1.5944 -0.7325
  169MOL    C1420510   4.948   2.431   4.689 -0.0241 -0.3539  0.5125
  169MOL    C1520511   5.036   2.299   4.692  0.0852 -0.3540 -0.2675
  169MOL    H1620512   4.875   2.423   4.769 -1.1246 -1.0189 -0.5275
  169MOL    H1720513   4.889   2.417   4.598 -1.6209  0.4058  1.4147
  169MOL    H1820514   5.077   2.275   4.594 -0.2928 -1.9186 -0.0555
  169MOL    H1920515   5.112   2.307   4.771  0.9488 -1.8113 -0.9330
  169MOL    C2020516   4.952   2.180   4.735  0.0641  0.0639  0.1157
  169MOL    C2120517   5.012   2.040   4.721  0.1211 -0.4384  0.3123
  169MOL    H2220518   4.923   2.195   4.839 -0.9798 -1.2014  0.0235
  169MOL    H2320519   4.853   2.170   4.689  0.2887 -1.9537  0.0275
  169MOL    H2420520   5.046   2.013   4.621  2.7350 -0.1616  1.0940
  169MOL    H2520521   5.104   2.036   4.780 -0.3862 -2.3256  1.0144
  169MOL    C2620522   4.927   1.933   4.794 -0.4523 -1.0643 -0.1586
  169MOL    C2720523   4.996   1.798   4.813 -0.2284 -0.3986  0.4751
  169MOL    H2820524   4.903   1.960   4.897  0.4733 -3.3877  0.7083
  169MOL    H2920525   4.835   1.908   4.742 -0.4794  1.6962 -1.5499
  169MOL    H3020526   5.013   1.755   4.715 -0.1785  0.8439 -0.0653
  169MOL    H3120527   5.100   1.808   4.844  0.0430  1.5818 -0.9692
  169MOL    C3220528   4.911   1.694   4.898 -0.3180 -0.1099  0.4495
  169MOL    C3320529   4.963   1.549   4.913 -0.5776  0.5900 -0.0668
  169MOL    H3420530   4.901   1.731   5.000 -1.1511 -1.4101  0.8536
  169MOL    H3520531   4.812   1.701   4.851  0.3214 -0.3616 -0.9615
  169MOL    H3620532   4.891   1.486   4.965 -0.8425  1.1266  0.2234
  169MOL    H3720533   4.976   1.504   4.815 -1.3057 -3.0534  1.4465
  169MOL    C3820534   5.086   1.543   5.011 -0.1765  0.4278  0.3110
  169MOL    C3920535   5.123   1.390   5.046 -0.6755  0.2793  0.4768
  169MOL    H4020536   5.175   1.587   4.966 -0.9735  2.1476  0.3874
  169MOL    H4120537   5.070   1.598   5.103 -0.9137  0.0681  0.3967
  169MOL    H4220538   5.033   1.347   5.090 -1.2928  0.2529 -0.7773
  169MOL    H4320539   5.144   1.337   4.954 -1.4838  1.0635 -0.1804
  169MOL    C4420540   5.248   1.370   5.127  0.0027 -0.0049  0.5895
  169MOL    C4520541   5.243   1.379   5.281 -1.2024 -0.1132 -0.3613
  169MOL    H4620542   5.300   1.281   5.090  0.3374  0.7170 -0.7099
  169MOL    H4720543   5.323   1.437   5.084 -1.3418  1.3341  0.2853
  169MOL    H4820544   5.225   1.482   5.312 -0.5028 -0.4323  1.1295
  169MOL    H4920545   5.152   1.329   5.315 -0.1795 -0.4917  1.8425
  169MOL    C5020546   5.362   1.318   5.359  0.1941 -0.0893 -0.0222
  169MOL    C5120547   5.491   1.405   5.337  0.1667  0.1625  0.0667
  169MOL    H5220548   5.346   1.311   5.467  2.3098 -1.8041  0.2202
  169MOL    H5320549   5.384   1.213   5.341  1.7772  0.1945  0.1950
  169MOL    H5420550   5.580   1.349   5.365  0.7744 -0.4420 -2.8856
  169MOL    H5520551   5.497   1.441   5.234  0.3291  0.9176  0.3342
  169MOL    C5620552   5.505   1.529   5.432  0.1983  0.4320 -0.0853
  169MOL    C5720553   5.536   1.661   5.356 -0.1444  0.6259 -0.8782
  169MOL    H5820554   5.420   1.536   5.500 -0.1127  0.6716 -0.4964
  169MOL    H5920555   5.579   1.501   5.508 -1.2455 -0.8701  0.8663
  169MOL    H6020556   5.581   1.725   5.432 -2.9870 -0.9204  2.2850
  169MOL    H6120557   5.607   1.652   5.275  0.6226 -0.2718 -0.1188
  169MOL    C6220558   5.405   1.733   5.300  0.1669  0.0311 -0.1041
  169MOL    C6320559   5.430   1.874   5.237  0.9552  0.4853  0.7793
  169MOL    H6420560   5.377   1.667   5.217 -1.5305  1.3715 -0.6394
  169MOL    H6520561   5.329   1.732   5.378  0.0876  1.7277 -0.1395
  169MOL    H6620562   5.450   1.942   5.319 -1.0104 -0.0341  1.7176
  169MOL    H6720563   5.516   1.869   5.170  0.3993  0.0855  0.0829
  169MOL    C6820564   5.308   1.926   5.162 -0.4292  0.4227 -0.8350
  169MOL    C6920565   5.311   2.079   5.152  0.8407  0.9791  0.7742
  169MOL    H7020566   5.305   1.888   5.060  0.5348 -0.8776 -0.3956
  169MOL    H7120567   5.223   1.887   5.218  1.5188  1.5712  3.1116
  169MOL    H7220568   5.326   2.111   5.255  2.2455  0.2769  0.8056
  169MOL    H7320569   5.398   2.098   5.089  0.4406 -0.5456 -0.2716
  169MOL    C7420570   5.184   2.156   5.089 -0.5328 -0.4651 -0.4835
  169MOL    C7520571   5.188   2.312   5.090 -0.6581 -0.1978 -0.0739
  169MOL    H7620572   5.159   2.112   4.992  0.4749 -0.5435 -0.7170
  169MOL    H7720573   5.106   2.127   5.159  0.1647 -1.1134  0.0481
  169MOL    H7820574   5.241   2.337   5.181 -0.2602  0.6532 -0.5349
  169MOL    H7920575   5.249   2.352   5.009  1.3701 -1.2664  0.8918
  169MOL    C8020576   5.042   2.368   5.088 -0.4917  0.2678 -0.5879
  169MOL    C8120577   5.042   2.522   5.093 -0.7515  0.2317  0.7769
  169MOL    H8220578   4.997   2.338   4.994 -0.2616 -0.2237 -0.5443
  169MOL    H8320579   4.991   2.328   5.176  0.9422  0.6128  0.4212
  169MOL    H8420580   5.090   2.567   5.180 -3.0179  2.1689  1.0777
  169MOL    H8520581   5.112   2.542   5.012  1.1538  1.4719  2.6712
  169MOL    C8620582   4.909   2.591   5.069 -0.7021 -0.2313 -1.0395
  169MOL    C8720583   4.922   2.737   5.029 -0.8799 -0.3402 -0.0221
  169MOL    H8820584   4.858   2.541   4.987 -1.3747  0.0938 -0.8291
  169MOL    H8920585   4.853   2.573   5.161  0.8845 -1.3224 -0.2792
  169MOL    H9020586   4.987   2.799   5.090 -0.7087 -0.1321 -0.4134
  169MOL    H9120587   4.971   2.743   4.932 -0.0723 -1.3554  0.3117
  169MOL    C9220588   4.781   2.806   4.999  0.0365 -0.3037 -0.6232
  169MOL    C9320589   4.792   2.961   4.986  0.4366  0.2913  0.1228
  169MOL    H9420590   4.735   2.752   4.917  1.5979 -3.0982  0.2746
  169MOL    H9520591   4.714   2.773   5.078  0.5729  0.2399  0.0561
  169MOL    H9620592   4.831   2.983   5.086 -0.5099 -1.2377  0.8445
  169MOL    H9720593   4.876   2.982   4.920  0.0154 -0.9535 -0.8167
  169MOL    C9820594   4.673   3.053   4.962  0.6989 -0.3032  0.5198
  169MOL    C9920595   4.627   3.067   4.817 -0.2656 -0.2619 -1.0287
  169MOL   H10020596   4.588   3.018   5.020  0.2488 -1.2208 -0.6661
  169MOL   H10120597   4.689   3.151   5.007  0.2123 -0.6429  1.4316
  169MOL   H10220598   4.712   3.049   4.751 -0.1962 -1.1958 -0.6955
  169MOL   H10320599   4.550   2.993   4.793 -0.2955 -1.2169  1.8242
  169MOL   C10420600   4.574   3.210   4.790  0.6339  0.2471 -0.0497
  169MOL   C10520601   4.514   3.246   4.654 -0.0452 -0.4026 -0.0679
  169MOL   H10620602   4.510   3.243   4.872  2.8921 -0.2527  1.9449
  169MOL   H10720603   4.662   3.274   4.794 -0.7887  2.3112 -0.6007
  169MOL   H10820604   4.584   3.216   4.576  1.5071  3.4546 -0.2573
  169MOL   H10920605   4.437   3.173   4.630 -1.6843  1.9050 -2.0212
  169MOL   C11020606   4.462   3.385   4.634  0.0134  0.3182 -0.6258
  169MOL   C11120607   4.420   3.407   4.487 -0.2845  0.6751 -0.2459
  169MOL   H11220608   4.383   3.403   4.707  1.6106  0.3400  1.1329
  169MOL   H11320609   4.536   3.456   4.671  0.5222 -0.4061 -0.2513
  169MOL   H11420610   4.495   3.367   4.419  1.3274  1.9330  0.7389
  169MOL   H11520611   4.335   3.342   4.466  0.8595 -0.7520 -0.5153
  169MOL   C11620612   4.383   3.545   4.441 -0.3333  0.6197  0.2578
  169MOL   C11720613   4.366   3.558   4.292  0.0734 -0.2284  0.0898
  169MOL   H11820614   4.292   3.580   4.490  0.7100  1.8108  1.3569
  169MOL   H11920615   4.463   3.608   4.479  0.7349 -0.6342  0.1289
  169MOL   H12020616   4.456   3.533   4.236  0.2054 -2.6713  1.2954
  169MOL   H12120617   4.284   3.493   4.259 -1.6738  2.4299 -0.9556
  169MOL   H12220618   4.344   3.661   4.266  1.6865 -0.4264 -2.1626
  170MOL     C120619   5.764   0.008   6.377 -0.4912 -0.4824  0.1273
  170MOL     C220620   5.884   0.102   6.418 -0.7310  0.0717 -0.2998
  170MOL     H320621   5.781   7.648   6.282  1.3061  0.8749 -0.3185
  170MOL     H420622   5.681   0.077   6.361  0.0540 -0.1079 -1.1818
  170MOL     H520623   5.972   0.039   6.427  0.1301  1.2750 -0.0709
  170MOL     H620624   5.894   0.148   6.319  0.8715  0.4356  0.0143
  170MOL     H720625   5.745   7.630   6.458 -2.7196  0.5498  0.5325
  170MOL     C820626   5.841   0.197   6.528  0.6953 -0.4098 -0.6130
  170MOL     C920627   5.948   0.293   6.565 -0.1809  0.4976  0.6580
  170MOL    H1020628   5.766   0.266   6.490  0.3798 -0.2100  0.3618
  170MOL    H1120629   5.809   0.150   6.621  1.5761 -1.2576 -0.7257
  170MOL    H1220630   6.040   0.240   6.591 -0.0843  0.9804  1.3392
  170MOL    H1320631   5.972   0.348   6.474  0.3322  0.1521  0.5797
  170MOL    C1420632   5.911   0.385   6.676  0.1913 -0.7002  1.2970
  170MOL    C1520633   6.025   0.478   6.718  0.6031  0.9058  0.1312
  170MOL    H1620634   5.819   0.442   6.663  0.4060 -0.5012  0.6086
  170MOL    H1720635   5.884   0.320   6.759 -1.5993  0.1088  1.3819
  170MOL    H1820636   6.112   0.414   6.730  0.0530 -0.0092 -0.6518
  170MOL    H1920637   6.044   0.555   6.644  0.6309  1.7172  0.9657
  170MOL    C2020638   5.987   0.538   6.855 -0.1875  1.0208  0.4942
  170MOL    C2120639   6.082   0.650   6.898 -0.5114 -0.6803  0.1298
  170MOL    H2220640   5.887   0.581   6.848 -0.8571 -0.8069 -2.4991
  170MOL    H2320641   5.986   0.468   6.939 -2.5819  0.2154 -0.1518
  170MOL    H2420642   6.181   0.612   6.923  0.1079 -0.1506 -1.4860
  170MOL    H2520643   6.089   0.723   6.818  0.6957 -1.2109 -0.2513
  170MOL    C2620644   6.024   0.727   7.017 -0.0720 -0.0418 -0.2537
  170MOL    C2720645   6.115   0.843   7.046  0.1259 -0.1198 -0.3760
  170MOL    H2820646   5.923   0.752   6.983  0.5891 -0.7382 -2.7997
  170MOL    H2920647   6.022   0.668   7.109 -4.2539  0.3966  0.0355
  170MOL    H3020648   6.211   0.805   7.079  0.3758 -1.7164 -2.8166
  170MOL    H3120649   6.126   0.910   6.961 -0.2750  0.8263  0.3139
  170MOL    C3220650   6.061   0.928   7.165  0.5416  0.0154  0.4280
  170MOL    C3320651   6.137   1.049   7.196  0.1902 -0.1294  0.4072
  170MOL    H3420652   5.957   0.951   7.142  0.3179 -1.6160 -0.2512
  170MOL    H3520653   6.063   0.866   7.255 -3.5896 -0.4113  0.3390
  170MOL    H3620654   6.239   1.020   7.220 -0.0019 -0.2077  1.1239
  170MOL    H3720655   6.148   1.101   7.101  0.3139 -2.9878 -1.1838
  170MOL    C3820656   6.089   1.150   7.303  0.1583  0.8986 -0.2465
  170MOL    C3920657   5.944   1.195   7.291 -0.0319  0.1404  0.0685
  170MOL    H4020658   6.092   1.098   7.399 -0.3789  2.4879  0.6376
  170MOL    H4120659   6.149   1.241   7.294  0.7280  0.4340 -1.2093
  170MOL    H4220660   5.926   1.230   7.189 -1.4629  0.3498  0.3833
  170MOL    H4320661   5.875   1.112   7.310  1.3939 -0.3505  3.4986
  170MOL    C4420662   5.912   1.300   7.397  0.2943 -0.3391 -0.2319
  170MOL    C4520663   5.952   1.436   7.340  0.0682  0.5823  0.4500
  170MOL    H4620664   5.805   1.300   7.419  0.6001  0.7823  1.3687
  170MOL    H4720665   5.970   1.292   7.489 -0.3746  0.8499  0.3105
  170MOL    H4820666   6.059   1.442   7.320 -0.2040  2.5547 -0.5305
  170MOL    H4920667   5.916   1.442   7.237  4.5636 -0.5629 -1.3045
  170MOL    C5020668   5.904   1.556   7.429 -0.3471  0.1026 -0.0216
  170MOL    C5120669   5.927   1.686   7.346 -0.5924  0.5858 -0.0145
  170MOL    H5220670   5.798   1.536   7.447 -0.6504  2.2563  0.6775
  170MOL    H5320671   5.963   1.557   7.521  0.6380  0.7389 -0.6549
  170MOL    H5420672   6.033   1.710   7.338  0.3156 -2.0462  3.1478
  170MOL    H5520673   5.897   1.679   7.242  0.0830 -1.3805 -0.0930
  170MOL    C5620674   5.860   1.812   7.419 -0.2575 -0.3281 -0.5877
  170MOL    C5720675   5.875   1.930   7.327  0.3229 -0.3813  0.5196
  170MOL    H5820676   5.755   1.785   7.421 -0.4011  0.1895 -1.1167
  170MOL    H5920677   5.896   1.825   7.521  0.6396 -2.2387 -0.6270
  170MOL    H6020678   5.972   1.929   7.278  0.2917 -1.0450  0.4797
  170MOL    H6120679   5.808   1.915   7.242  0.5705 -0.0313  0.2598
  170MOL    C6220680   5.820   2.059   7.375 -0.5973  0.1209 -0.3289
  170MOL    C6320681   5.668   2.049   7.428 -0.0669  0.4471 -0.1963
  170MOL    H6420682   5.893   2.092   7.449  0.7975 -1.4423 -0.9816
  170MOL    H6520683   5.832   2.137   7.300 -0.6280  1.5080  1.0655
  170MOL    H6620684   5.614   1.968   7.379  0.6682 -1.6429  2.2859
  170MOL    H6720685   5.682   2.016   7.531  0.6347 -0.3814 -0.5394
  170MOL    C6820686   5.592   2.176   7.436 -0.1460 -0.5590 -0.4875
  170MOL    C6920687   5.618   2.263   7.559 -0.0379  0.4225 -0.1545
  170MOL    H7020688   5.600   2.243   7.350  1.1875 -0.7032 -0.4841
  170MOL    H7120689   5.490   2.141   7.428  0.7598 -3.2461 -0.6348
  170MOL    H7220690   5.725   2.277   7.575  0.2043  0.5004 -1.7570
  170MOL    H7320691   5.583   2.365   7.542  2.8163  1.3671 -0.6138
  170MOL    C7420692   5.555   2.204   7.687 -0.5370 -0.1859  0.5799
  170MOL    C7520693   5.569   2.300   0.115  0.0318  0.2754  0.0063
  170MOL    H7620694   5.450   2.181   7.670 -0.2723  1.2032 -3.4074
  170MOL    H7720695   5.601   2.110   0.023 -0.1795 -0.9363 -2.4122
  170MOL    H7820696   5.674   2.325   0.132 -0.5151  2.1931  0.6347
  170MOL    H7920697   5.517   2.391   0.088  1.0296  1.2239  1.2133
  170MOL    C8020698   5.511   2.239   0.238  0.6534  0.2473  0.1507
  170MOL    C8120699   5.525   2.315   0.369 -0.1372 -0.9610  0.2676
  170MOL    H8220700   5.405   2.217   0.220  1.2754 -2.5560 -0.3129
  170MOL    H8320701   5.552   2.139   0.253  0.9487  0.2883 -0.3835
  170MOL    H8420702   5.631   2.314   0.395  0.0903  1.6115 -0.3832
  170MOL    H8520703   5.503   2.416   0.334 -1.6794 -2.2362 -2.5431
  170MOL    C8620704   5.436   2.256   0.477 -0.1092 -0.5588 -0.0784
  170MOL    C8720705   5.457   2.105   0.520  0.2106  0.4262  0.6556
  170MOL    H8820706   5.443   2.315   0.568 -0.5963 -2.3299  1.1337
  170MOL    H8920707   5.333   2.268   0.445 -0.0829 -1.4735 -0.5260
  170MOL    H9020708   5.403   2.084   0.612  3.9715 -1.1770  2.5842
  170MOL    H9120709   5.416   2.037   0.446  1.7053 -1.3658  1.4339
  170MOL    C9220710   5.610   2.071   0.551  0.1210  0.1508  0.2680
  170MOL    C9320711   5.618   1.926   0.597  0.6740  0.1631  0.6141
  170MOL    H9420712   5.656   2.086   0.454 -2.5752 -0.2349 -1.1269
  170MOL    H9520713   5.670   2.133   0.618  1.9520  0.2384 -1.4129
  170MOL    H9620714   5.570   1.922   0.695 -1.4482 -1.3144 -0.4627
  170MOL    H9720715   5.549   1.869   0.534  0.7551 -1.2371  1.7722
  170MOL    C9820716   5.753   1.860   0.608 -0.1417  0.2387 -0.1280
  170MOL    C9920717   5.745   1.704   0.633  0.0349 -0.5684  0.6199
  170MOL   H10020718   5.779   1.863   0.502 -3.2994 -2.1599 -1.0574
  170MOL   H10120719   5.812   1.904   0.688 -1.1909  0.1881  0.6721
  170MOL   H10220720   5.700   1.686   0.731 -0.4117  1.0130  0.7250
  170MOL   H10320721   5.667   1.659   0.571  0.7697  1.1612 -1.6066
  170MOL   C10420722   5.870   1.618   0.613  0.7716 -0.3680  0.1355
  170MOL   C10520723   5.835   1.471   0.601  0.6758  0.3410 -0.3351
  170MOL   H10620724   5.931   1.655   0.530 -2.2641 -0.8179 -2.3655
  170MOL   H10720725   5.932   1.622   0.703 -1.9642  0.5690  2.0389
  170MOL   H10820726   5.772   1.435   0.683  1.7304  0.6191  0.5967
  170MOL   H10920727   5.778   1.449   0.510  0.3819 -0.4184  0.0279
  170MOL   C11020728   5.967   1.392   0.597  0.1122 -0.5344  0.2093
  170MOL   C11120729   5.944   1.242   0.633 -1.3665 -0.2634  0.4734
  170MOL   H11220730   6.008   1.412   0.497  2.7978 -0.2804  1.3115
  170MOL   H11320731   6.045   1.431   0.662  2.2504 -2.8797 -0.8685
  170MOL   H11420732   5.945   1.243   0.742  0.2959 -1.6109  0.4922
  170MOL   H11520733   5.851   1.207   0.588 -2.3896  3.3274 -0.4268
  170MOL   C11620734   6.061   1.147   0.595  0.4379  0.2631 -0.1389
  170MOL   C11720735   6.029   1.000   0.635 -0.2270  0.1070 -0.4382
  170MOL   H11820736   6.066   1.147   0.486 -0.3009  2.9749 -0.2029
  170MOL   H11920737   6.157   1.180   0.635  1.1852 -0.2396 -1.5003
  170MOL   H12020738   5.930   0.964   0.606  0.0835 -1.3723  0.2884
  170MOL   H12120739   6.102   0.927   0.600 -0.3406 -0.7504  1.0597
  170MOL   H12220740   6.028   0.988   0.744 -1.1874  0.6303 -0.3769
  171MOL     C120741   3.215   7.212   4.138 -0.2369  0.4234 -0.3413
  171MOL     C220742   3.328   7.130   4.197  0.4891  0.1796 -0.4387
  171MOL     H320743   3.175   7.167   4.048  0.5405 -1.5930  0.2971
  171MOL     H420744   3.254   7.307   4.103  1.3209  0.7635  2.2335
  171MOL     H520745   3.408   7.149   4.125 -0.2808 -0.4718 -1.4810
  171MOL     H620746   3.353   7.163   4.298  0.4867 -3.9689  1.0033
  171MOL     H720747   3.139   7.226   4.216 -1.5213  0.4811 -1.5731
  171MOL     C820748   3.291   6.981   4.210  0.3125  0.1820  0.3189
  171MOL     C920749   3.290   6.925   4.059 -0.1163  0.1693  0.0168
  171MOL    H1020750   3.377   6.936   4.260  0.1667 -0.3949  0.0610
  171MOL    H1120751   3.198   6.946   4.253 -0.2317  0.0813 -0.9074
  171MOL    H1220752   3.211   6.963   3.994 -0.9860  1.2779  1.6927
  171MOL    H1320753   3.390   6.941   4.017  0.0343 -0.5331  0.0916
  171MOL    C1420754   3.283   6.774   4.055 -0.8865  0.7613  0.0992
  171MOL    C1520755   3.370   6.698   3.954  0.2918  0.5636  0.0431
  171MOL    H1620756   3.320   6.730   4.148 -0.9530  0.6778  0.0862
  171MOL    H1720757   3.178   6.753   4.038 -0.6879 -0.1775  0.0391
  171MOL    H1820758   3.359   6.737   3.853  1.5442  3.8008  1.1083
  171MOL    H1920759   3.477   6.713   3.961  0.4081 -0.0161 -0.4365
  171MOL    C2020760   3.354   6.544   3.955  0.2119  0.2872 -0.6208
  171MOL    C2120761   3.460   6.470   3.872  0.0749  0.3436  0.1268
  171MOL    H2220762   3.357   6.503   4.055 -0.6404 -0.2681 -0.8178
  171MOL    H2320763   3.254   6.515   3.923  0.1453 -0.7805  0.5381
  171MOL    H2420764   3.440   6.496   3.768  0.3101  1.2273  0.3008
  171MOL    H2520765   3.559   6.511   3.890 -0.4622  1.4134  0.6774
  171MOL    C2620766   3.464   6.311   3.895 -0.5440  0.3473 -0.4240
  171MOL    C2720767   3.564   6.250   3.792  0.2488  0.1054 -0.0322
  171MOL    H2820768   3.499   6.283   3.994  1.7936  2.5445 -0.5647
  171MOL    H2920769   3.366   6.268   3.872 -0.7691  1.7205 -2.1687
  171MOL    H3020770   3.544   6.278   3.688 -0.1207 -0.5339 -0.1336
  171MOL    H3120771   3.667   6.279   3.815 -0.1220  0.0755  1.6798
  171MOL    C3220772   3.548   6.096   3.793  0.2481 -0.0363  0.4255
  171MOL    C3320773   3.661   6.029   3.714 -0.3630  0.3016 -0.6640
  171MOL    H3420774   3.554   6.069   3.898  1.8406  0.6657  0.5355
  171MOL    H3520775   3.452   6.081   3.743  0.7341 -1.9579  0.0387
  171MOL    H3620776   3.655   6.065   3.612 -0.1780  0.5853 -0.5752
  171MOL    H3720777   3.757   6.070   3.745  0.6048 -2.4746  0.1110
  171MOL    C3820778   3.656   5.874   3.722  0.0394  0.1212 -0.3884
  171MOL    C3920779   3.782   5.805   3.663 -0.1628  0.2760 -0.0402
  171MOL    H4020780   3.665   5.841   3.826  2.2132 -0.5727 -0.7648
  171MOL    H4120781   3.568   5.845   3.664  0.0284 -1.4724  0.3894
  171MOL    H4220782   3.801   5.852   3.567  0.8274  1.5685  0.7846
  171MOL    H4320783   3.868   5.829   3.725 -1.8992  2.0047  1.8003
  171MOL    C4420784   3.763   5.659   3.653  0.9273  0.7011 -0.0136
  171MOL    C4520785   3.892   5.593   3.616  0.8130 -0.3581 -0.4196
  171MOL    H4620786   3.726   5.605   3.740 -1.4790  2.1533 -0.0948
  171MOL    H4720787   3.693   5.636   3.572  0.0499  2.8212  0.1156
  171MOL    H4820788   3.931   5.642   3.527  0.3275 -1.0879 -1.0355
  171MOL    H4920789   3.961   5.609   3.699  0.1558 -0.5368  0.1668
  171MOL    C5020790   3.869   5.449   3.581 -0.0533 -0.2404 -0.2028
  171MOL    C5120791   3.999   5.396   3.545  0.3643 -0.5068  0.0158
  171MOL    H5220792   3.827   5.401   3.670  1.4464  0.5275  0.9429
  171MOL    H5320793   3.797   5.448   3.499  0.9207 -0.0103 -1.0667
  171MOL    H5420794   4.069   5.419   3.626  0.6479 -0.3387 -0.2761
  171MOL    H5520795   3.994   5.287   3.543  0.8208 -0.5185 -2.4436
  171MOL    C5620796   4.056   5.446   3.412  0.0149 -0.0283  0.1253
  171MOL    C5720797   4.199   5.395   3.398  0.2133  0.1786  0.3936
  171MOL    H5820798   3.998   5.405   3.329 -0.3355  2.9193 -1.1627
  171MOL    H5920799   4.066   5.553   3.389 -0.0241  0.3959  2.0293
  171MOL    H6020800   4.266   5.440   3.472  1.4164 -0.2321 -0.4245
  171MOL    H6120801   4.203   5.288   3.414  2.7243  0.1959  0.0740
  171MOL    C6220802   4.265   5.406   3.257  0.4891  0.3909 -0.0609
  171MOL    C6320803   4.416   5.373   3.242  0.0796 -0.1759  0.0397
  171MOL    H6420804   4.216   5.333   3.192 -1.2692 -1.2765  3.0301
  171MOL    H6520805   4.244   5.506   3.219  1.5711  0.7724  0.3297
  171MOL    H6620806   4.437   5.277   3.291  0.2121 -2.4156 -4.1579
  171MOL    H6720807   4.452   5.370   3.139  1.6466  0.9694  0.5376
  171MOL    C6820808   4.499   5.471   3.325  0.0184  0.1362 -0.1003
  171MOL    C6920809   4.646   5.428   3.306 -0.6480 -0.6698  0.1918
  171MOL    H7020810   4.480   5.570   3.282  1.9536 -0.0952 -1.5791
  171MOL    H7120811   4.469   5.474   3.429 -2.5534  0.6987 -0.8075
  171MOL    H7220812   4.662   5.323   3.333 -3.6290 -1.3445 -0.4479
  171MOL    H7320813   4.678   5.439   3.202 -0.1748  2.8599  0.6629
  171MOL    C7420814   4.750   5.499   3.391 -0.2306 -0.4509 -1.0860
  171MOL    C7520815   4.742   5.454   3.542  0.0971 -0.5662 -0.0619
  171MOL    H7620816   4.849   5.471   3.355  1.7073  1.4058  2.5371
  171MOL    H7720817   4.743   5.607   3.379  1.1604 -0.1428  0.6752
  171MOL    H7820818   4.641   5.459   3.584 -0.1210  1.0945 -0.7762
  171MOL    H7920819   4.762   5.347   3.550  2.3537 -0.0569  1.4346
  171MOL    C8020820   4.839   5.530   3.643 -0.1466 -0.3309 -0.0855
  171MOL    C8120821   4.842   5.459   3.778  0.0129 -0.4288 -0.1624
  171MOL    H8220822   4.941   5.528   3.604 -0.3122  0.3064 -0.5529
  171MOL    H8320823   4.803   5.632   3.659  0.8984  0.2418 -1.3008
  171MOL    H8420824   4.739   5.471   3.812 -0.3393  1.5784 -1.8220
  171MOL    H8520825   4.868   5.354   3.764  1.0660 -0.1020 -0.6450
  171MOL    C8620826   4.952   5.527   3.876  0.6085  0.0477 -0.2452
  171MOL    C8720827   4.981   5.435   4.000  0.1666  0.3336  0.1574
  171MOL    H8820828   5.044   5.545   3.819 -0.0870  3.2340 -0.4703
  171MOL    H8920829   4.931   5.630   3.905  1.9298  0.0491  0.7509
  171MOL    H9020830   5.037   5.490   4.075 -1.9527 -0.3044  2.2873
  171MOL    H9120831   4.890   5.411   4.056 -0.5055  0.8098 -0.7031
  171MOL    C9220832   5.070   5.307   3.949 -0.0915 -0.4962  0.2263
  171MOL    C9320833   5.123   5.207   4.058 -0.3210 -0.1653 -0.1416
  171MOL    H9420834   5.014   5.250   3.874  0.4392  0.2973 -0.7954
  171MOL    H9520835   5.161   5.339   3.898  0.2692  0.1179  1.2511
  171MOL    H9620836   5.162   5.273   4.136 -0.7545 -2.3611  2.0159
  171MOL    H9720837   5.036   5.144   4.079  0.1102 -0.6985  0.0502
  171MOL    C9820838   5.233   5.119   4.004 -0.5074 -0.1445  0.7185
  171MOL    C9920839   5.281   5.020   4.117  0.2411 -0.6842  0.2747
  171MOL   H10020840   5.203   5.078   3.907 -0.8621 -2.2751  1.7109
  171MOL   H10120841   5.307   5.189   3.965 -0.7337  0.4418  1.3232
  171MOL   H10220842   5.317   5.084   4.198  0.8682 -1.6233  0.7389
  171MOL   H10320843   5.191   4.969   4.149 -0.2304  1.1203  1.9577
  171MOL   C10420844   5.390   4.930   4.067 -0.3783  0.4785 -0.1720
  171MOL   C10520845   5.527   5.000   4.020 -0.1679 -0.1659 -0.2251
  171MOL   H10620846   5.405   4.872   4.158 -0.6324  1.0606  0.2415
  171MOL   H10720847   5.360   4.846   4.005 -1.4497 -1.0833  2.3824
  171MOL   H10820848   5.501   5.081   3.952 -0.9824  0.5839  0.9531
  171MOL   H10920849   5.560   5.066   4.100 -1.2955  1.1240 -0.7998
  171MOL   C11020850   5.631   4.902   3.971 -0.3657 -0.1022 -0.4014
  171MOL   C11120851   5.702   4.823   4.086  0.1071  0.1495  0.0548
  171MOL   H11220852   5.594   4.832   3.896 -1.9237  0.8387 -0.5182
  171MOL   H11320853   5.708   4.965   3.926 -0.4813 -0.6269 -1.3448
  171MOL   H11420854   5.690   4.871   4.183  0.4753  0.6067 -0.1216
  171MOL   H11520855   5.658   4.724   4.099  0.8082  0.0035  1.5557
  171MOL   C11620856   5.848   4.784   4.042  0.6378 -0.4074  0.2796
  171MOL   C11720857   5.961   4.878   4.076  0.3067  0.3789  0.5721
  171MOL   H11820858   5.884   4.684   4.067 -0.0322 -0.9944 -1.0527
  171MOL   H11920859   5.854   4.769   3.935  1.6474  1.2247  0.0908
  171MOL   H12020860   5.970   4.891   4.184 -0.5775 -0.3564  0.7379
  171MOL   H12120861   6.049   4.836   4.028  0.8570  0.7026  1.2809
  171MOL   H12220862   5.958   4.974   4.024 -0.4465 -1.4362 -2.8954
  172MOL     C120863   2.518   2.852   6.364 -0.0037 -0.5189 -0.6474
  172MOL     C220864   2.606   2.958   6.279 -0.0812  0.0872  0.4820
  172MOL     H320865   2.569   2.756   6.359  1.6444  0.2858  0.3035
  172MOL     H420866   2.419   2.858   6.318  0.2576  1.5951 -0.9748
  172MOL     H520867   2.596   2.954   6.171  0.9826 -0.0863  0.3896
  172MOL     H620868   2.561   3.055   6.299 -1.1072  0.3506 -2.7915
  172MOL     H720869   2.507   2.892   6.465  1.2172  1.1575 -1.1465
  172MOL     C820870   2.754   2.957   6.337 -0.4558  0.4396 -0.6731
  172MOL     C920871   2.841   3.049   6.252  0.3209  0.0342  0.2314
  172MOL    H1020872   2.737   2.993   6.439  0.0626  2.4011 -1.2597
  172MOL    H1120873   2.793   2.856   6.349  2.4755  1.9100  3.3138
  172MOL    H1220874   2.848   3.009   6.150 -1.7272 -2.4993  1.0205
  172MOL    H1320875   2.777   3.137   6.254  1.3734  0.7997  1.0119
  172MOL    C1420876   2.978   3.063   6.313 -0.3933  0.2127  0.1208
  172MOL    C1520877   3.062   3.173   6.248 -0.1304 -1.0929  0.4512
  172MOL    H1620878   2.978   3.079   6.421 -2.4658 -2.1167  0.5396
  172MOL    H1720879   3.039   2.977   6.288  0.2520  0.6380  0.2436
  172MOL    H1820880   3.087   3.131   6.151 -0.9170  1.5970 -0.9541
  172MOL    H1920881   3.016   3.271   6.235  1.8477  0.1356  2.3500
  172MOL    C2020882   3.203   3.194   6.307  0.2191  0.1106  0.1765
  172MOL    C2120883   3.281   3.065   6.310 -0.1594 -0.0065 -0.4252
  172MOL    H2220884   3.259   3.253   6.234  2.5666 -0.6126  1.3287
  172MOL    H2320885   3.205   3.252   6.399  0.1804 -0.4602  0.5372
  172MOL    H2420886   3.244   2.998   6.388  0.1109  0.6830  0.3023
  172MOL    H2520887   3.266   3.012   6.216 -0.4119  1.7340 -1.3865
  172MOL    C2620888   3.426   3.087   6.329  1.1278  0.6718  0.0058
  172MOL    C2720889   3.510   2.964   6.330  0.0400  0.8075  0.7938
  172MOL    H2820890   3.467   3.147   6.247  0.6847 -1.8601 -2.1286
  172MOL    H2920891   3.437   3.129   6.429 -0.2430  0.1913  0.3582
  172MOL    H3020892   3.476   2.901   6.412  1.1441 -3.8841 -2.1526
  172MOL    H3120893   3.499   2.912   6.235  0.3208  0.9094  0.7040
  172MOL    C3220894   3.661   2.986   6.350 -0.0941  0.6710  0.0383
  172MOL    C3320895   3.725   3.067   6.239 -0.1596 -0.3352 -0.2000
  172MOL    H3420896   3.683   3.020   6.451 -0.4729 -2.0897  1.0955
  172MOL    H3520897   3.713   2.890   6.357 -0.2562  0.7342  2.6385
  172MOL    H3620898   3.710   3.171   6.267 -0.4764 -0.1511 -1.0394
  172MOL    H3720899   3.831   3.039   6.245  0.1251 -0.0110 -2.8466
  172MOL    C3820900   3.683   3.040   6.092 -0.2432  0.1514 -0.0543
  172MOL    C3920901   3.758   3.138   5.998  0.0235 -0.0563  0.0465
  172MOL    H4020902   3.715   2.938   6.072  1.9513  0.7158  0.4090
  172MOL    H4120903   3.575   3.044   6.086 -0.1921 -1.0898 -1.8568
  172MOL    H4220904   3.744   3.239   6.036  2.0415  0.4083 -0.3645
  172MOL    H4320905   3.865   3.119   6.001  0.3772  1.7135 -0.6912
  172MOL    C4420906   3.712   3.137   5.854  0.1511  0.5749 -0.5255
  172MOL    C4520907   3.806   3.218   5.765 -0.2941  0.4079 -0.1754
  172MOL    H4620908   3.707   3.040   5.805  1.2064 -0.0836  0.6333
  172MOL    H4720909   3.607   3.167   5.849  0.0047  0.1073 -0.2735
  172MOL    H4820910   3.809   3.318   5.808  0.2144 -1.1572  3.5565
  172MOL    H4920911   3.909   3.183   5.769 -0.5267 -0.2301  0.1189
  172MOL    C5020912   3.759   3.199   5.616 -0.1880 -0.1104 -0.2708
  172MOL    C5120913   3.832   3.292   5.515 -0.6543 -0.5685 -0.5488
  172MOL    H5220914   3.768   3.094   5.588 -0.7424 -0.4114  0.6597
  172MOL    H5320915   3.652   3.221   5.612  0.0486  0.9298 -1.1538
  172MOL    H5420916   3.815   3.397   5.541  1.9280 -0.5743  1.3492
  172MOL    H5520917   3.937   3.269   5.534 -0.8942 -1.7644 -0.6727
  172MOL    C5620918   3.805   3.265   5.371 -0.5167  0.1606  1.1887
  172MOL    C5720919   3.672   3.322   5.325 -0.0208  1.1172 -0.8357
  172MOL    H5820920   3.880   3.322   5.317 -1.7114  0.3912 -0.2424
  172MOL    H5920921   3.813   3.158   5.353  2.7933  0.7329 -1.1238
  172MOL    H6020922   3.588   3.284   5.385  0.6816 -1.3801 -1.3795
  172MOL    H6120923   3.672   3.428   5.349  2.0607  0.8549  0.3786
  172MOL    C6220924   3.651   3.303   5.175 -1.1046 -0.1305  0.0337
  172MOL    C6320925   3.511   3.362   5.127 -0.1942 -0.7211 -0.4438
  172MOL    H6420926   3.730   3.352   5.118 -1.2875 -0.4193 -0.4760
  172MOL    H6520927   3.679   3.202   5.145  0.5996  0.1850  0.5401
  172MOL    H6620928   3.439   3.330   5.202 -0.5828 -1.4170 -1.1045
  172MOL    H6720929   3.510   3.470   5.109 -4.1530 -0.1228  2.7552
  172MOL    C6820930   3.471   3.293   4.998 -0.1890 -0.6419 -0.3724
  172MOL    C6920931   3.325   3.336   4.968  0.5541 -0.0094 -0.1224
  172MOL    H7020932   3.538   3.325   4.918 -0.2987  0.3541 -0.0813
  172MOL    H7120933   3.484   3.186   5.012  1.5199 -0.1975  1.5602
  172MOL    H7220934   3.251   3.294   5.035  1.2584 -3.1683 -1.2320
  172MOL    H7320935   3.314   3.444   4.975 -2.2497 -0.2488 -0.5125
  172MOL    C7420936   3.274   3.301   4.828 -0.4669  0.5023  0.2734
  172MOL    C7520937   3.154   3.373   4.776  0.1561  0.3667  0.4504
  172MOL    H7620938   3.353   3.316   4.755 -0.8215 -1.4244 -0.5333
  172MOL    H7720939   3.268   3.192   4.833 -1.0426  0.5671  1.1377
  172MOL    H7820940   3.172   3.480   4.772  1.3616  0.1158 -2.0580
  172MOL    H7920941   3.140   3.328   4.677 -0.8071  1.3260  0.1427
  172MOL    C8020942   3.031   3.333   4.876  0.5526 -0.7772 -0.0186
  172MOL    C8120943   2.888   3.373   4.819 -0.3254  0.9675 -0.0834
  172MOL    H8220944   3.030   3.228   4.904  0.6833 -0.4041  1.4071
  172MOL    H8320945   3.039   3.401   4.961 -2.5257  2.0199 -1.8697
  172MOL    H8420946   2.880   3.472   4.774 -1.3496  1.4800  1.1594
  172MOL    H8520947   2.844   3.318   4.736 -0.7444  0.9544  0.1457
  172MOL    C8620948   2.789   3.369   4.939  0.2043 -0.3960  0.8510
  172MOL    C8720949   2.675   3.471   4.913 -0.3369  0.1482 -0.6329
  172MOL    H8820950   2.754   3.267   4.955 -0.2849 -0.2899  0.4909
  172MOL    H8920951   2.841   3.388   5.033  2.9239  0.5589 -0.7892
  172MOL    H9020952   2.713   3.569   4.882 -1.2991  0.2206 -1.6297
  172MOL    H9120953   2.626   3.429   4.825 -0.3241 -0.1500 -0.4983
  172MOL    C9220954   2.583   3.466   5.042  0.0688  0.0261 -0.2876
  172MOL    C9320955   2.462   3.559   5.021  0.0769  0.5085 -0.1171
  172MOL    H9420956   2.545   3.365   5.059  2.7083 -0.8399  0.7465
  172MOL    H9520957   2.645   3.487   5.129  1.5872 -0.7028 -1.1803
  172MOL    H9620958   2.503   3.657   4.998  1.5073 -0.2052 -0.6723
  172MOL    H9720959   2.411   3.526   4.931  4.1574 -1.1968 -1.9437
  172MOL    C9820960   2.367   3.580   5.146 -0.0001 -0.2482 -0.0194
  172MOL    C9920961   2.288   3.451   5.181  0.0246  0.7809 -0.3292
  172MOL   H10020962   2.415   3.612   5.239  0.5713 -2.6333  0.5554
  172MOL   H10120963   2.288   3.650   5.123  1.9473  1.1336 -2.8239
  172MOL   H10220964   2.226   3.425   5.095 -0.4854 -1.7549  0.7701
  172MOL   H10320965   2.354   3.369   5.210  0.2469  1.5566  1.3922
  172MOL   C10420966   2.180   3.467   5.294 -0.3650  0.2486  0.6985
  172MOL   C10520967   2.153   3.329   5.369  0.0590 -0.1800 -0.2417
  172MOL   H10620968   2.203   3.541   5.371  0.2980  0.4511  0.3146
  172MOL   H10720969   2.091   3.513   5.252  0.0179 -0.9321 -1.4704
  172MOL   H10820970   2.113   3.259   5.296 -1.6811  0.5943 -0.0617
  172MOL   H10920971   2.242   3.283   5.412  0.3148 -0.1368 -0.7247
  172MOL   C11020972   2.038   3.335   5.482  0.0709 -0.0355  0.1732
  172MOL   C11120973   2.021   3.193   5.545 -0.0257 -0.6578 -0.4206
  172MOL   H11220974   2.058   3.420   5.548 -2.2806 -0.6343  1.7070
  172MOL   H11320975   1.941   3.357   5.436 -0.4469 -3.8473 -0.6992
  172MOL   H11420976   2.005   3.119   5.467 -0.8676 -0.5180 -0.3849
  172MOL   H11520977   2.115   3.172   5.595 -0.4415 -0.6248  0.3961
  172MOL   C11620978   1.918   3.176   5.660  0.0229  0.0371 -0.2660
  172MOL   C11720979   1.779   3.168   5.618  0.8044  0.1042  0.7796
  172MOL   H11820980   1.950   3.081   5.701  0.4997  0.0786 -0.5330
  172MOL   H11920981   1.932   3.255   5.734 -1.7052  0.8099 -0.7389
  172MOL   H12020982   1.748   3.067   5.592  2.5750 -0.1141 -0.5692
  172MOL   H12120983   1.711   3.208   5.694  0.0114 -1.1522  0.7447
  172MOL   H12220984   1.770   3.234   5.532  0.6421 -0.0383  0.6860
  173MOL     C120985   6.043   2.466   2.978 -0.1587 -0.1823 -0.1174
  173MOL     C220986   6.143   2.532   3.082 -0.8471  1.0676  0.7562
  173MOL     H320987   6.045   2.359   2.997 -0.1998 -0.1680 -0.0291
  173MOL     H420988   6.081   2.479   2.877  0.2075  2.4569  0.3195
  173MOL     H520989   6.127   2.638   3.066  0.8989  1.7192  3.0096
  173MOL     H620990   6.119   2.497   3.183 -0.2044 -0.9601  0.2391
  173MOL     H720991   5.938   2.495   2.982  0.0394  0.6357 -0.7744
  173MOL     C820992   6.281   2.493   3.037  0.2484 -0.0880  0.3295
  173MOL     C920993   6.390   2.522   3.146  0.4436 -0.1854  0.1235
  173MOL    H1020994   6.277   2.385   3.019  0.9364 -0.1871  0.7332
  173MOL    H1120995   6.295   2.552   2.947  0.2986  0.7155  0.8552
  173MOL    H1220996   6.380   2.623   3.187 -1.1800 -0.8728  1.4733
  173MOL    H1320997   6.368   2.454   3.228 -1.3943  0.1096 -0.1056
  173MOL    C1420998   6.540   2.503   3.099 -0.0101  0.5206 -0.0671
  173MOL    C1520999   6.579   2.351   3.063  0.1265 -0.1387 -0.0390
  173MOL    H1621000   6.571   2.554   3.008  0.9995 -1.4965 -0.8885
  173MOL    H1721001   6.613   2.546   3.167  0.2595  2.0392 -1.2912
  173MOL    H1821002   6.528   2.285   3.133  1.3334 -0.7504  0.2717
  173MOL    H1921003   6.536   2.328   2.965  0.1467  0.8056 -0.2779
  173MOL    C2021004   6.737   2.344   3.063 -0.1453 -1.0490 -0.7112
  173MOL    C2121005   6.799   2.215   3.007 -0.0386 -0.3789  0.9296
  173MOL    H2221006   6.769   2.431   3.005 -0.2244 -0.8525 -0.4607
  173MOL    H2321007   6.780   2.358   3.162  1.9541  1.0337 -1.8557
  173MOL    H2421008   6.901   2.201   3.044  0.0004 -0.5471  0.7659
  173MOL    H2521009   6.745   2.126   3.038  1.3245 -0.8897  1.9196
  173MOL    C2621010   6.808   2.210   2.852 -0.2765 -0.6289 -0.4032
  173MOL    C2721011   6.868   2.081   2.784  0.3193  0.2848 -0.7220
  173MOL    H2821012   6.707   2.218   2.810 -0.4596  1.1930  0.3403
  173MOL    H2921013   6.857   2.301   2.820  0.1326 -0.0518  1.7774
  173MOL    H3021014   6.851   2.071   2.677  0.9126 -0.5882 -0.7343
  173MOL    H3121015   6.977   2.091   2.791  0.0820  1.7556  1.7595
  173MOL    C3221016   6.819   1.952   2.851 -0.1976 -0.3086 -0.2162
  173MOL    C3321017   6.873   1.824   2.779 -0.7591 -0.1376 -0.4094
  173MOL    H3421018   6.848   1.960   2.955 -2.0563 -2.2935  0.4930
  173MOL    H3521019   6.711   1.942   2.862 -0.3442  0.4081 -0.9376
  173MOL    H3621020   6.812   1.816   2.689 -4.3758 -1.4881  2.0090
  173MOL    H3721021   6.980   1.831   2.760 -1.0284 -0.9245 -2.3697
  173MOL    C3821022   6.836   1.706   2.871 -0.1196  0.2195 -0.3857
  173MOL    C3921023   6.889   1.571   2.827  0.5556  0.5455 -0.4533
  173MOL    H4021024   6.865   1.714   2.975  1.4893 -2.5838 -0.5586
  173MOL    H4121025   6.727   1.704   2.875 -0.2255  2.1849 -1.8672
  173MOL    H4221026   6.830   1.493   2.874 -0.4374  1.7491  0.2938
  173MOL    H4321027   6.863   1.553   2.722 -1.7130 -1.3534  0.4023
  173MOL    C4421028   7.042   1.547   2.855 -0.1730 -0.7702  0.0992
  173MOL    C4521029   7.118   1.435   2.781 -0.1053  0.5994 -0.2609
  173MOL    H4621030   7.093   1.639   2.828  1.1160 -1.6139 -0.4011
  173MOL    H4721031   7.057   1.517   2.958  1.7408 -0.3896 -0.0630
  173MOL    H4821032   7.085   1.337   2.818 -0.7999  0.7761 -0.3945
  173MOL    H4921033   7.091   1.432   2.676  3.0619  1.1986 -1.1219
  173MOL    C5021034   7.267   1.450   2.801  0.2273 -0.1490 -0.2595
  173MOL    C5121035   7.352   1.352   2.723  0.5743 -0.1883 -0.1084
  173MOL    H5221036   7.306   1.549   2.776 -2.2524  1.2297  1.1427
  173MOL    H5321037   7.289   1.446   2.908  0.9656 -1.0157 -0.4428
  173MOL    H5421038   7.307   1.254   2.712 -0.5145  0.3474 -0.4609
  173MOL    H5521039   7.363   1.392   2.622  0.3096  0.7509  0.2259
  173MOL    C5621040   7.495   1.329   2.786  0.2120 -0.2073  0.5508
  173MOL    C5721041   7.603   1.299   2.678 -0.2430  0.1783 -0.3844
  173MOL    H5821042   7.527   1.414   2.847 -1.8624  0.7822  0.2954
  173MOL    H5921043   7.499   1.244   2.856  1.6948  0.3373  1.1622
  173MOL    H6021044   7.566   1.221   2.611 -0.4617 -0.1951  0.1708
  173MOL    H6121045   7.604   1.387   2.614 -2.1726  1.1827  0.9076
  173MOL    C6221046   0.041   1.242   2.745 -0.4581 -0.5888  0.3206
  173MOL    C6321047   0.152   1.232   2.640 -1.3867 -0.2209  1.2482
  173MOL    H6421048   0.071   1.303   2.831 -1.1468 -0.7989  0.7144
  173MOL    H6521049   0.028   1.141   2.784 -0.0450 -1.0044 -0.6043
  173MOL    H6621050   0.109   1.174   2.559  0.1115  1.4434 -0.7998
  173MOL    H6721051   0.167   1.336   2.613 -0.5998 -0.1370  1.9791
  173MOL    C6821052   0.286   1.168   2.677 -0.0529  0.8773 -0.5982
  173MOL    C6921053   0.381   1.145   2.560  0.1045  0.1077 -0.2716
  173MOL    H7021054   0.341   1.236   2.742  0.4944  0.5736 -0.7369
  173MOL    H7121055   0.274   1.074   2.732 -1.7786  2.3708  1.6438
  173MOL    H7221056   0.327   1.081   2.489 -1.0687  2.8498 -1.9522
  173MOL    H7321057   0.393   1.237   2.502  1.5853  1.9683  2.8888
  173MOL    C7421058   0.517   1.096   2.593 -0.0141  0.5955  0.3167
  173MOL    C7521059   0.608   1.089   2.470  0.1173 -0.1197 -0.0391
  173MOL    H7621060   0.574   1.157   2.663 -2.0888  0.0599  2.5400
  173MOL    H7721061   0.500   0.996   2.632 -1.8901  1.1142  0.9096
  173MOL    H7821062   0.554   1.029   2.396 -1.9448 -0.4083  1.6429
  173MOL    H7921063   0.619   1.189   2.427 -2.8642  0.1776 -0.2303
  173MOL    C8021064   0.738   1.018   2.502 -0.1618  0.6273  0.5541
  173MOL    C8121065   0.811   0.988   2.366  0.3653 -0.6181 -0.4800
  173MOL    H8221066   0.800   1.087   2.560  1.6273 -0.6581  0.1914
  173MOL    H8321067   0.718   0.930   2.562  2.9121 -0.2524  0.3349
  173MOL    H8421068   0.748   0.930   2.300 -1.0254 -0.0914  0.3512
  173MOL    H8521069   0.839   1.076   2.308  0.4677 -0.1364  0.2918
  173MOL    C8621070   0.938   0.904   2.397  0.7272 -0.5131  0.6653
  173MOL    C8721071   1.017   0.866   2.271 -0.9648 -0.3258 -0.5310
  173MOL    H8821072   0.991   0.960   2.474 -0.9271  1.2272  0.5796
  173MOL    H8921073   0.912   0.814   2.452  1.3648 -0.8983  0.3472
  173MOL    H9021074   0.951   0.827   2.194  0.1880 -1.0143 -1.1871
  173MOL    H9121075   1.061   0.958   2.231  0.1578 -0.0695  1.2483
  173MOL    C9221076   1.118   0.760   2.311 -0.3361 -1.3696  0.1898
  173MOL    C9321077   1.183   0.694   2.193  0.0724 -0.0261 -0.5682
  173MOL    H9421078   1.187   0.808   2.381 -0.1964  1.5881 -1.8953
  173MOL    H9521079   1.071   0.678   2.365 -1.3010  0.2860  1.9546
  173MOL    H9621080   1.110   0.618   2.167 -1.7395  1.3106  0.4763
  173MOL    H9721081   1.202   0.758   2.107  0.8142 -0.9160 -1.0856
  173MOL    C9821082   1.309   0.617   2.234  0.1198 -0.0362  0.3190
  173MOL    C9921083   1.368   0.525   2.125  0.8460 -0.4328 -0.2549
  173MOL   H10021084   1.376   0.688   2.281  0.2893  0.0691 -0.0832
  173MOL   H10121085   1.268   0.552   2.312  1.5832  0.7827  1.8134
  173MOL   H10221086   1.295   0.464   2.072  2.8143 -5.0097  2.0641
  173MOL   H10321087   1.408   0.596   2.053  0.8505 -0.2373 -0.0608
  173MOL   C10421088   1.483   0.441   2.184 -0.0242  0.4150  0.8880
  173MOL   C10521089   1.533   0.352   2.069 -0.0473 -0.0351  0.0711
  173MOL   H10621090   1.573   0.498   2.206  1.7830 -1.7621 -0.6227
  173MOL   H10721091   1.462   0.381   2.273 -2.0968 -0.1262  0.0704
  173MOL   H10821092   1.460   0.273   2.050 -0.5144  0.6410 -0.9567
  173MOL   H10921093   1.533   0.413   1.979 -0.4747  2.0498  1.4541
  173MOL   C11021094   1.671   0.292   2.092 -0.1705  0.0557  0.8381
  173MOL   C11121095   1.733   0.235   1.965  0.1586 -0.1055  0.5959
  173MOL   H11221096   1.744   0.363   2.132  0.5202  0.2199 -0.6627
  173MOL   H11321097   1.660   0.220   2.174 -1.7722 -1.2078 -0.4450
  173MOL   H11421098   1.679   0.142   1.946 -1.7117  0.7734  1.4834
  173MOL   H11521099   1.728   0.295   1.874  3.0378 -1.6361 -0.6490
  173MOL   C11621100   1.881   0.199   1.981  0.0512  0.2847  0.2836
  173MOL   C11721101   1.936   0.122   1.856 -0.0680  0.4014 -0.5270
  173MOL   H11821102   1.942   0.290   1.985 -0.8506  0.8660  1.0616
  173MOL   H11921103   1.900   0.144   2.073  1.2886 -0.2085 -0.2559
  173MOL   H12021104   2.045   0.119   1.849 -0.1803 -0.1542 -2.4122
  173MOL   H12121105   1.906   0.018   1.843 -2.3606  0.3437  4.3371
  173MOL   H12221106   1.922   0.179   1.764 -1.6064  2.3349  0.8689
  174MOL     C121107   3.439   5.283   4.912 -0.0125  0.3205  0.1549
  174MOL     C221108   3.386   5.429   4.920  0.4744 -0.6886  0.3071
  174MOL     H321109   3.468   5.273   5.017 -1.1392 -0.7213  0.3812
  174MOL     H421110   3.527   5.278   4.847  0.5457 -1.4543  0.9959
  174MOL     H521111   3.459   5.482   4.982  0.9035 -1.7933  0.7659
  174MOL     H621112   3.377   5.471   4.821 -0.8056  0.7846  1.0334
  174MOL     H721113   3.354   5.217   4.895 -1.0109  1.5214  0.5070
  174MOL     C821114   3.258   5.441   5.004 -0.4929  0.1953  0.3713
  174MOL     C921115   3.229   5.596   5.022  0.2748  0.6558 -0.3133
  174MOL    H1021116   3.166   5.401   4.962 -0.5825 -0.0839  0.8305
  174MOL    H1121117   3.269   5.389   5.100  1.3558  1.2297  0.7423
  174MOL    H1221118   3.312   5.653   5.064  1.2212  1.1815 -2.8169
  174MOL    H1321119   3.247   5.631   4.920  0.8347 -2.0579 -1.1898
  174MOL    C1421120   3.091   5.628   5.088 -0.0185 -0.3304  0.1553
  174MOL    C1521121   3.061   5.784   5.080  0.0184  0.6434  0.5036
  174MOL    H1621122   3.014   5.558   5.054 -0.9441  0.2564  1.0477
  174MOL    H1721123   3.105   5.608   5.194  2.7298 -1.7393 -0.4288
  174MOL    H1821124   3.112   5.846   5.154 -0.6890  1.4559  0.3177
  174MOL    H1921125   3.088   5.822   4.981  0.5012  2.3960  1.2813
  174MOL    C2021126   2.904   5.805   5.098  0.2168  0.5453 -0.0249
  174MOL    C2121127   2.852   5.942   5.109  0.4886  0.2627  0.4532
  174MOL    H2221128   2.847   5.767   5.013  0.4762  0.1954 -0.0467
  174MOL    H2321129   2.864   5.743   5.179  2.6029 -1.3467 -0.2237
  174MOL    H2421130   2.886   6.009   5.030 -0.5851  2.0258  1.4618
  174MOL    H2521131   2.744   5.939   5.123  0.4574 -1.9318 -0.0330
  174MOL    C2621132   2.907   6.012   5.232  0.3624 -0.1796 -0.1490
  174MOL    C2721133   2.855   6.156   5.249 -0.0955  0.2978 -0.5202
  174MOL    H2821134   2.885   5.952   5.320 -0.9365 -0.3849 -0.6103
  174MOL    H2921135   3.016   6.011   5.228  0.4272  0.3885  1.3426
  174MOL    H3021136   2.896   6.206   5.161  1.1122 -3.0340 -1.9469
  174MOL    H3121137   2.748   6.155   5.268  0.5444  1.0933  3.4683
  174MOL    C3221138   2.906   6.226   5.375 -0.0984 -0.5698  0.0952
  174MOL    C3321139   2.827   6.352   5.403  0.6152  0.1619  0.6015
  174MOL    H3421140   2.887   6.158   5.458 -0.2066 -0.5468  0.0893
  174MOL    H3521141   3.013   6.249   5.373  0.0798 -1.3586 -2.7344
  174MOL    H3621142   2.819   6.427   5.324 -1.4402  0.4604  1.0557
  174MOL    H3721143   2.721   6.325   5.412  0.8036 -1.1364 -0.8083
  174MOL    C3821144   2.863   6.415   5.536  0.1833 -0.3170 -0.4154
  174MOL    C3921145   2.795   6.552   5.562  0.2714 -0.5841  0.4590
  174MOL    H4021146   2.854   6.341   5.616  0.2609  2.3635  2.1232
  174MOL    H4121147   2.969   6.438   5.524  1.0759 -3.2844  1.1750
  174MOL    H4221148   2.849   6.609   5.638 -0.8594 -1.0659  1.6326
  174MOL    H4321149   2.808   6.609   5.470 -0.4582  0.5137  1.0313
  174MOL    C4421150   2.645   6.544   5.598  0.0486 -0.1424  0.4201
  174MOL    C4521151   2.561   6.580   5.478 -0.3803  0.9060  0.7583
  174MOL    H4621152   2.613   6.445   5.631 -0.6727  0.4550  1.5578
  174MOL    H4721153   2.615   6.610   5.680  0.0389  0.1765  0.1595
  174MOL    H4821154   2.576   6.688   5.468  0.0054  0.7567 -0.3193
  174MOL    H4921155   2.592   6.540   5.381  0.0183 -0.0228  1.2659
  174MOL    C5021156   2.408   6.560   5.496  0.1591  0.1006  0.3675
  174MOL    C5121157   2.378   6.410   5.468 -0.2764  0.6201 -0.3037
  174MOL    H5221158   2.367   6.596   5.590  1.4009  4.6906 -0.7145
  174MOL    H5321159   2.361   6.627   5.423  1.0104  1.5924  1.1561
  174MOL    H5421160   2.409   6.382   5.367 -1.5802  1.5174 -0.9615
  174MOL    H5521161   2.425   6.346   5.542 -1.2027  0.3360  0.0445
  174MOL    C5621162   2.224   6.392   5.474 -0.4574 -0.4977  0.0472
  174MOL    C5721163   2.164   6.263   5.427 -0.5053 -0.0319  0.3743
  174MOL    H5821164   2.183   6.412   5.572  0.6306  0.1525  0.3841
  174MOL    H5921165   2.186   6.469   5.406 -0.8327 -0.2612  0.5230
  174MOL    H6021166   2.219   6.175   5.461 -0.7220 -1.2767 -2.3395
  174MOL    H6121167   2.064   6.247   5.468  0.0171 -1.0818  1.2695
  174MOL    C6221168   2.166   6.258   5.274 -0.4612 -0.7202  0.3799
  174MOL    C6321169   2.081   6.147   5.220  0.7443  0.3481  0.2494
  174MOL    H6421170   2.119   6.353   5.246 -0.4305 -1.0011 -0.6262
  174MOL    H6521171   2.265   6.252   5.231 -1.1158  1.0940 -1.4643
  174MOL    H6621172   1.989   6.170   5.274  1.3879 -1.1586  2.0340
  174MOL    H6721173   2.062   6.169   5.115 -4.7790  0.9465  1.1991
  174MOL    C6821174   2.135   6.000   5.223 -0.4203 -0.1050 -0.1828
  174MOL    C6921175   2.021   5.898   5.182  0.3436  0.1031 -1.0668
  174MOL    H7021176   2.214   5.990   5.150  1.1295  0.8203  1.3274
  174MOL    H7121177   2.182   5.980   5.319 -0.5432  0.2119 -0.0544
  174MOL    H7221178   1.931   5.919   5.240  0.6991 -0.1726 -0.4054
  174MOL    H7321179   2.010   5.928   5.078 -0.9453  0.5346 -0.8235
  174MOL    C7421180   2.049   5.750   5.177  0.6385 -0.2868 -0.9491
  174MOL    C7521181   1.951   5.668   5.089 -0.2022  0.1383  0.5414
  174MOL    H7621182   2.154   5.731   5.152  0.7419 -0.7598 -0.1411
  174MOL    H7721183   2.048   5.719   5.281  0.0059 -0.1223 -0.9078
  174MOL    H7821184   1.849   5.664   5.127 -1.0317 -0.2789 -1.6724
  174MOL    H7921185   1.968   5.712   4.990 -0.3382  2.2616  1.4381
  174MOL    C8021186   2.003   5.519   5.084 -0.1283  0.1646 -0.0301
  174MOL    C8121187   1.915   5.440   4.984 -0.2838 -0.4504  0.1819
  174MOL    H8221188   2.107   5.514   5.052 -0.4358 -0.5264 -0.9590
  174MOL    H8321189   2.000   5.467   5.180  1.7931 -1.3758 -0.7789
  174MOL    H8421190   1.811   5.459   5.010 -0.3134  1.7714 -1.4362
  174MOL    H8521191   1.910   5.483   4.883  0.0082  1.3568  0.9174
  174MOL    C8621192   1.956   5.294   4.967 -0.3681 -0.9187 -0.1117
  174MOL    C8721193   1.856   5.218   4.886 -0.2174 -0.2611  0.5109
  174MOL    H8821194   2.053   5.292   4.917 -0.2546 -1.4867  0.1332
  174MOL    H8921195   1.978   5.249   5.063  1.4184 -0.1906 -0.1500
  174MOL    H9021196   1.764   5.201   4.942  0.8642 -0.9716  2.1158
  174MOL    H9121197   1.820   5.267   4.795 -1.4501 -0.3925  0.9266
  174MOL    C9221198   1.915   5.088   4.835 -0.2713  0.3822  0.2097
  174MOL    C9321199   1.810   5.003   4.760  0.3384  0.6737 -0.8065
  174MOL    H9421200   2.007   5.108   4.780  0.5169  0.0689  1.3812
  174MOL    H9521201   1.943   5.027   4.922 -2.6816  1.3437  1.7026
  174MOL    H9621202   1.740   4.974   4.838  2.0111 -2.4925 -0.4092
  174MOL    H9721203   1.760   5.054   4.677  0.5613 -1.5520 -2.3677
  174MOL    C9821204   1.868   4.872   4.694  0.4505 -0.5063 -0.6606
  174MOL    C9921205   1.764   4.780   4.647  1.0231 -0.5998  0.1630
  174MOL   H10021206   1.928   4.911   4.612  1.2604 -1.6812 -0.6369
  174MOL   H10121207   1.937   4.825   4.764 -0.8179  0.4220  1.2682
  174MOL   H10221208   1.730   4.731   4.739  2.0663 -1.0951  0.2920
  174MOL   H10321209   1.681   4.837   4.607 -0.4312 -2.2074  0.8171
  174MOL   C10421210   1.804   4.683   4.543  0.4875 -0.3832 -0.6866
  174MOL   C10521211   1.694   4.591   4.486 -0.2286 -0.0533  0.1929
  174MOL   H10621212   1.852   4.744   4.467  0.6128 -0.1391 -0.4140
  174MOL   H10721213   1.891   4.623   4.570  1.8216  1.4346 -0.7909
  174MOL   H10821214   1.649   4.523   4.559 -0.8996 -0.4044 -0.5445
  174MOL   H10921215   1.612   4.655   4.453  0.5749  0.9816  0.1780
  174MOL   C11021216   1.763   4.513   4.376 -0.4203  0.4085 -0.2925
  174MOL   C11121217   1.683   4.385   4.333 -0.7575  0.5012 -0.1146
  174MOL   H11221218   1.775   4.581   4.292 -1.7113 -0.1733 -0.9683
  174MOL   H11321219   1.863   4.477   4.399  0.4341  1.6534 -1.9299
  174MOL   H11421220   1.676   4.315   4.417  0.5247  0.3305 -0.1303
  174MOL   H11521221   1.582   4.416   4.308 -0.2506  1.6255 -0.8250
  174MOL   C11621222   1.754   4.292   4.229 -0.1738 -0.2826 -0.6811
  174MOL   C11721223   1.871   4.207   4.281 -0.3344  0.0448 -0.1231
  174MOL   H11821224   1.681   4.213   4.213 -0.1896 -1.0882  3.0160
  174MOL   H11921225   1.772   4.338   4.132  0.5407 -0.6791 -0.7366
  174MOL   H12021226   1.837   4.108   4.312  0.8888 -1.0782 -2.2331
  174MOL   H12121227   1.938   4.188   4.197  2.0608  0.7486  1.6038
  174MOL   H12221228   1.937   4.251   4.355  0.4407 -2.9673  1.0418
  175MOL     C121229   3.122   5.000   7.342  0.1583  0.4777  0.1920
  175MOL     C221230   3.000   4.922   7.290 -0.8354 -0.6482 -0.2782
  175MOL     H321231   3.222   4.962   7.324 -0.1289 -0.6981  1.0439
  175MOL     H421232   3.124   5.005   7.451  1.9455  2.2389  0.1027
  175MOL     H521233   2.997   4.820   7.327  0.9976 -1.1902 -1.5467
  175MOL     H621234   2.911   4.974   7.327 -0.3679 -0.5958  0.7951
  175MOL     H721235   3.120   5.104   7.310 -0.6609  0.6089  0.6352
  175MOL     C821236   2.994   4.924   7.141 -0.0496 -0.6533 -0.6280
  175MOL     C921237   2.883   4.830   7.091  0.3904 -0.1911 -0.3504
  175MOL    H1021238   2.981   5.027   7.107  0.7971  0.5824  2.5887
  175MOL    H1121239   3.088   4.886   7.100 -1.0746 -2.4297 -1.3525
  175MOL    H1221240   2.884   4.735   7.145  1.3167 -0.4089 -0.7383
  175MOL    H1321241   2.789   4.879   7.116  1.0626  0.6724  0.5182
  175MOL    C1421242   2.896   4.814   6.941  0.1409  0.1009  0.3895
  175MOL    C1521243   2.781   4.725   6.898 -0.9192  0.1676 -0.0355
  175MOL    H1621244   2.888   4.910   6.890 -0.7425 -0.2047 -0.0708
  175MOL    H1721245   2.992   4.768   6.919 -0.8108 -1.0879 -1.3507
  175MOL    H1821246   2.802   4.621   6.923  5.6301  1.0131 -0.9012
  175MOL    H1921247   2.701   4.749   6.967 -1.4675  0.0439 -0.6239
  175MOL    C2021248   2.720   4.740   6.759 -0.8698 -0.0698  0.4147
  175MOL    C2121249   2.827   4.735   6.650 -0.1428  0.3194  1.0162
  175MOL    H2221250   2.642   4.664   6.751  0.0426 -1.0825  0.9540
  175MOL    H2321251   2.664   4.834   6.766 -3.1965 -1.3291 -0.7187
  175MOL    H2421252   2.868   4.836   6.646  2.0186 -0.5622 -0.0811
  175MOL    H2521253   2.915   4.677   6.678 -0.0624  0.0862  0.2726
  175MOL    C2621254   2.762   4.703   6.517 -0.5201 -0.1885 -0.3655
  175MOL    C2721255   2.724   4.549   6.503 -0.2691  0.3735  0.3497
  175MOL    H2821256   2.669   4.757   6.502 -0.4905 -0.2454 -0.7693
  175MOL    H2921257   2.827   4.738   6.437 -1.0181  0.1169 -0.6380
  175MOL    H3021258   2.800   4.478   6.537 -0.4492  0.6775  1.4202
  175MOL    H3121259   2.636   4.546   6.568 -0.6446  0.8095 -0.1308
  175MOL    C3221260   2.681   4.518   6.354 -0.0833 -0.5036  0.6173
  175MOL    C3321261   2.679   4.368   6.312 -0.2395 -0.4569  0.5145
  175MOL    H3421262   2.585   4.568   6.340  0.0068 -0.0390  1.6593
  175MOL    H3521263   2.755   4.571   6.293  2.9473 -1.7303  3.1068
  175MOL    H3621264   2.771   4.324   6.350 -1.4891 -2.4183  1.3148
  175MOL    H3721265   2.600   4.306   6.354 -1.0554 -0.1277 -0.5016
  175MOL    C3821266   2.664   4.367   6.157  0.3034 -0.5411 -0.4242
  175MOL    C3921267   2.625   4.232   6.097  0.2324 -0.8634  0.5976
  175MOL    H4021268   2.587   4.432   6.116 -0.5215 -0.5209  1.1295
  175MOL    H4121269   2.754   4.406   6.109 -0.6439  2.2156 -0.0244
  175MOL    H4221270   2.517   4.222   6.110  0.1569  0.2146  0.7928
  175MOL    H4321271   2.644   4.253   5.992  0.3751 -0.5691  0.6846
  175MOL    C4421272   2.713   4.111   6.141 -0.1465  0.0508 -0.0805
  175MOL    C4521273   2.688   3.985   6.040 -0.7528 -0.4684 -0.8367
  175MOL    H4621274   2.818   4.138   6.140 -0.6911  2.2968 -3.1369
  175MOL    H4721275   2.684   4.084   6.243 -0.2990 -0.6965 -0.3215
  175MOL    H4821276   2.581   3.963   6.040 -0.7290 -0.6341 -2.9234
  175MOL    H4921277   2.716   4.018   5.940  4.2912 -5.9733 -1.5011
  175MOL    C5021278   2.768   3.859   6.075 -0.4711  0.2484 -0.2333
  175MOL    C5121279   2.757   3.761   5.957  0.1896  0.0527  0.6860
  175MOL    H5221280   2.873   3.885   6.091 -0.8492  0.7737  1.5461
  175MOL    H5321281   2.730   3.809   6.164  1.1923  2.8047  2.0517
  175MOL    H5421282   2.652   3.747   5.929  0.4110  0.8189 -0.5437
  175MOL    H5521283   2.801   3.797   5.864  0.9062 -1.9671  0.2181
  175MOL    C5621284   2.815   3.625   6.000  0.2155  0.0094  0.4656
  175MOL    C5721285   2.815   3.508   5.895 -0.3279 -0.2065 -0.4251
  175MOL    H5821286   2.918   3.644   6.031  0.1433  2.1168 -0.5302
  175MOL    H5921287   2.763   3.592   6.090  1.5861  0.5330  1.4630
  175MOL    H6021288   2.711   3.476   5.887 -0.5317 -0.2521  1.9710
  175MOL    H6121289   2.828   3.559   5.800 -0.4545  1.5023  0.4571
  175MOL    C6221290   2.914   3.393   5.931  0.3117 -0.0046 -0.0306
  175MOL    C6321291   2.914   3.286   5.817  0.2295  0.4505  0.1529
  175MOL    H6421292   3.012   3.438   5.939  0.2215  0.2677 -0.4314
  175MOL    H6521293   2.896   3.341   6.026  0.4437  1.2895  0.7117
  175MOL    H6621294   2.914   3.333   5.719  2.6600 -0.8358 -0.5095
  175MOL    H6721295   3.004   3.227   5.835 -1.3689 -1.7982  0.9260
  175MOL    C6821296   2.793   3.183   5.843 -0.6746 -0.0196  0.0462
  175MOL    C6921297   2.759   3.090   5.726 -0.2942  0.1149  0.1793
  175MOL    H7021298   2.782   3.136   5.941 -0.6899 -2.1338 -0.9424
  175MOL    H7121299   2.703   3.244   5.853 -0.7684 -0.3726  1.4243
  175MOL    H7221300   2.745   3.148   5.634  3.7219  1.4222  0.3079
  175MOL    H7321301   2.848   3.029   5.709 -0.7731 -0.4400 -0.4016
  175MOL    C7421302   2.641   2.998   5.751  0.1170 -0.6073 -0.7595
  175MOL    C7521303   2.667   2.891   5.858  0.7068  0.9432  0.4526
  175MOL    H7621304   2.550   3.058   5.758  0.5390 -0.1354  1.0596
  175MOL    H7721305   2.615   2.947   5.658 -2.1316  0.6878 -0.8887
  175MOL    H7821306   2.756   2.834   5.831 -0.0871  0.4508 -1.2011
  175MOL    H7921307   2.688   2.940   5.953  0.1877  1.6720  0.1944
  175MOL    C8021308   2.546   2.802   5.874  0.1376 -0.2167 -0.4304
  175MOL    C8121309   2.545   2.706   5.993 -0.2711 -0.4902 -0.0668
  175MOL    H8221310   2.466   2.870   5.904  1.7637  1.5314  0.0356
  175MOL    H8321311   2.524   2.743   5.786 -0.8656  1.6756 -1.4922
  175MOL    H8421312   2.622   2.632   5.973 -0.2587 -0.6145  0.4359
  175MOL    H8521313   2.570   2.755   6.087  0.9498  1.2989 -1.3022
  175MOL    C8621314   2.401   2.650   6.024  0.2675  0.1534 -0.1065
  175MOL    C8721315   2.397   2.552   6.140  0.1821  0.8089 -0.7423
  175MOL    H8821316   2.330   2.728   6.051 -0.4325 -1.1870  2.0798
  175MOL    H8921317   2.364   2.603   5.933  0.6106 -0.8189  0.2474
  175MOL    H9021318   2.455   2.463   6.113  2.1748  1.5565  0.8998
  175MOL    H9121319   2.450   2.595   6.225 -0.7423 -0.1157  0.3277
  175MOL    C9221320   2.256   2.516   6.181 -0.3013 -0.0806 -0.1518
  175MOL    C9321321   2.250   2.417   6.301 -0.2360  0.7142 -0.7304
  175MOL    H9421322   2.205   2.610   6.203 -0.7611  0.2041 -2.3541
  175MOL    H9521323   2.205   2.477   6.093 -1.2740 -0.0473  0.3860
  175MOL    H9621324   2.295   2.322   6.272 -2.2322 -0.3862 -0.2950
  175MOL    H9721325   2.296   2.451   6.394 -1.0012  0.3434 -0.2134
  175MOL    C9821326   2.104   2.393   6.339 -0.3888  0.1759  0.4785
  175MOL    C9921327   2.097   2.287   6.442  0.6793 -0.5342 -0.8489
  175MOL   H10021328   2.061   2.489   6.367 -2.1485  0.1138 -1.8599
  175MOL   H10121329   2.062   2.351   6.248  2.4043 -2.0807  0.1383
  175MOL   H10221330   2.160   2.200   6.428  0.8066 -0.4985 -0.5172
  175MOL   H10321331   2.117   2.326   6.542 -0.9254 -0.8117 -0.4003
  175MOL   C10421332   1.949   2.246   6.458 -0.0485  0.0972  0.1642
  175MOL   C10521333   1.935   2.161   6.583  0.7367 -0.1264  0.4832
  175MOL   H10621334   1.884   2.334   6.464 -0.1503  0.0844 -0.7377
  175MOL   H10721335   1.910   2.190   6.373 -2.3666 -0.7598  1.7209
  175MOL   H10821336   1.988   2.066   6.571  0.3632 -0.2012 -0.6334
  175MOL   H10921337   1.991   2.213   6.661 -1.3645  0.6048  1.5332
  175MOL   C11021338   1.789   2.142   6.628  0.2570 -0.4418 -0.1648
  175MOL   C11121339   1.771   2.081   6.767 -0.5628 -0.3861  0.2249
  175MOL   H11221340   1.745   2.241   6.623 -0.1568 -0.6939 -2.3382
  175MOL   H11321341   1.727   2.085   6.558  0.4870 -0.4227 -0.3883
  175MOL   H11421342   1.830   1.990   6.771  0.5771  0.4024  1.9088
  175MOL   H11521343   1.800   2.147   6.849  0.2974 -1.8585  1.1113
  175MOL   C11621344   1.624   2.050   6.795 -0.1250 -0.2096 -0.3441
  175MOL   C11721345   1.593   1.964   6.915 -0.3597  0.0022  0.6703
  175MOL   H11821346   1.559   2.137   6.804  0.4389  0.4275 -2.2874
  175MOL   H11921347   1.583   2.015   6.701 -1.3406 -0.3043  0.2087
  175MOL   H12021348   1.638   1.865   6.906  0.9492  0.4659  1.9544
  175MOL   H12121349   1.629   2.014   7.005  2.3569 -2.1003  0.8145
  175MOL   H12221350   1.488   1.942   6.933 -1.0656  0.8088 -2.2688
  176MOL     C121351   3.675   7.063   5.461 -0.3696 -0.1837  0.2921
  176MOL     C221352   3.577   7.135   5.556 -0.6353  0.0251 -0.5337
  176MOL     H321353   3.768   7.120   5.453  0.8000 -2.0179  0.5730
  176MOL     H421354   3.634   7.037   5.363  0.5425  2.3492 -0.8175
  176MOL     H521355   3.500   7.061   5.576  1.0614 -1.6307  0.0473
  176MOL     H621356   3.627   7.159   5.650 -1.6245  0.9974 -0.2446
  176MOL     H721357   3.712   6.974   5.512 -0.9667  1.0570  2.9877
  176MOL     C821358   3.521   7.262   5.483 -0.1264 -0.1193 -0.3717
  176MOL     C921359   3.454   7.355   5.586 -0.0043 -0.2462  0.2110
  176MOL    H1021360   3.609   7.314   5.445 -1.1720  1.5002 -0.6378
  176MOL    H1121361   3.462   7.245   5.393 -0.2496 -2.3097  0.1118
  176MOL    H1221362   3.523   7.377   5.668  1.1149 -2.7285 -0.0239
  176MOL    H1321363   3.447   7.454   5.541 -1.5414 -0.9286 -1.0692
  176MOL    C1421364   3.322   7.315   5.656 -0.0185 -0.5310 -0.3809
  176MOL    C1521365   3.260   7.434   5.726 -0.5640 -0.1994  0.7186
  176MOL    H1621366   3.262   7.276   5.574  1.6449 -1.4683 -1.1948
  176MOL    H1721367   3.319   7.222   5.713  1.4681 -1.4655 -1.7762
  176MOL    H1821368   3.300   7.444   5.826 -0.7235  2.1479  0.5718
  176MOL    H1921369   3.286   7.523   5.669 -0.0584 -0.6593  0.2236
  176MOL    C2021370   3.105   7.414   5.741 -0.2031 -1.0408  0.2839
  176MOL    C2121371   3.056   7.486   5.869  0.0392 -0.6266 -0.7977
  176MOL    H2221372   3.059   7.443   5.646 -1.3137  1.1497  1.4428
  176MOL    H2321373   3.074   7.310   5.753  0.8877 -1.3681  0.3029
  176MOL    H2421374   3.104   7.442   5.956 -0.6925 -2.9363 -1.5391
  176MOL    H2521375   3.086   7.589   5.847  1.5184 -1.3777 -2.3928
  176MOL    C2621376   2.902   7.466   5.902  0.1167 -0.0973 -0.5372
  176MOL    C2721377   2.843   7.517   6.042 -0.7493 -0.2394 -0.4321
  176MOL    H2821378   2.846   7.520   5.825  0.3842  0.9385 -0.0136
  176MOL    H2921379   2.887   7.359   5.886  2.2748 -0.3644 -0.8741
  176MOL    H3021380   2.911   7.473   6.115 -0.2971  1.9442  0.5093
  176MOL    H3121381   2.861   7.625   6.047 -2.4836  0.2361 -3.2542
  176MOL    C3221382   2.689   7.476   6.072 -0.1960 -0.1893 -0.0206
  176MOL    C3321383   2.629   7.535   6.203 -0.3179 -0.0714  0.3228
  176MOL    H3421384   2.630   7.510   5.986  1.6843  0.4433 -1.1037
  176MOL    H3521385   2.681   7.368   6.079  2.7128 -0.3159  2.2948
  176MOL    H3621386   2.669   7.495   6.297  1.7829  0.8847 -0.1402
  176MOL    H3721387   2.653   7.640   6.214  1.4992 -0.2517 -1.6288
  176MOL    C3821388   2.477   7.533   6.208 -0.1369  0.1118 -0.0179
  176MOL    C3921389   2.426   7.548   6.353  0.0009  0.0213  0.2237
  176MOL    H4021390   2.429   7.613   6.152 -0.0618 -0.5699 -1.0697
  176MOL    H4121391   2.449   7.433   6.174  0.7593  0.5237 -2.0299
  176MOL    H4221392   2.464   7.461   6.407 -1.8956  0.5909  2.5503
  176MOL    H4321393   2.454   7.642   6.399  1.8535  0.1028 -0.9992
  176MOL    C4421394   2.271   7.554   6.376  0.1440  0.2893  0.3139
  176MOL    C4521395   2.235   7.546   6.524  0.0449  0.5697  0.3895
  176MOL    H4621396   2.229   7.647   6.338  0.1544 -0.0088 -0.4373
  176MOL    H4721397   2.218   7.469   6.332  0.1479  0.9612 -1.0016
  176MOL    H4821398   2.139   7.592   6.546  0.5794  2.3119 -0.8737
  176MOL    H4921399   2.220   7.440   6.546  3.3955  0.0482  0.5351
  176MOL    C5021400   2.339   7.587   6.635  0.3282 -0.0788 -0.7298
  176MOL    C5121401   2.273   7.589   6.775  1.1182  0.2497 -0.0011
  176MOL    H5221402   2.435   7.535   6.642 -1.1782 -3.0990 -1.5136
  176MOL    H5321403   2.357   0.001   6.620 -1.4335  0.6011  1.7104
  176MOL    H5421404   2.178   7.642   6.764  1.0150  0.6931  2.7967
  176MOL    H5521405   2.249   7.487   6.806 -0.6782  0.5948 -0.1752
  176MOL    C5621406   2.354   7.660   6.880  0.8832 -0.4325  0.0723
  176MOL    C5721407   2.278   7.664   7.016  0.2719  0.0631 -0.3304
  176MOL    H5821408   2.455   7.619   6.879  0.0880 -2.4838 -0.0711
  176MOL    H5921409   2.355   0.074   6.856 -1.8300 -0.9311 -2.5826
  176MOL    H6021410   2.193   0.039   7.013 -0.2302 -0.4661  1.4570
  176MOL    H6121411   2.242   7.563   7.039 -1.4577  0.5922 -0.6734
  176MOL    C6221412   2.373   0.027   7.125 -0.2747 -0.4053 -0.2270
  176MOL    C6321413   2.313   0.030   7.265 -0.1460  0.3421  0.4009
  176MOL    H6421414   2.462   7.657   7.137 -1.6734 -2.5014 -0.4056
  176MOL    H6521415   2.411   0.126   7.102 -0.1999  0.2571  2.5544
  176MOL    H6621416   2.225   0.093   7.258 -0.9429 -0.9919 -2.3130
  176MOL    H6721417   2.272   7.626   7.296 -0.7777  0.7322  0.7690
  176MOL    C6821418   2.408   0.077   7.376  0.6844 -0.0163  0.2240
  176MOL    C6921419   2.332   0.077   7.509  0.4959 -0.3142 -0.4893
  176MOL    H7021420   2.489   0.004   7.385  0.4468 -0.1332  1.4834
  176MOL    H7121421   2.456   0.173   7.359  3.7816 -1.6332 -0.6007
  176MOL    H7221422   2.254   0.152   7.499 -0.2621 -1.0133  0.1835
  176MOL    H7321423   2.283   7.674   7.530  0.2206 -0.0209  0.1950
  176MOL    C7421424   2.415   0.105   7.635 -0.0718 -0.1195 -0.1251
  176MOL    C7521425   2.330   0.123   0.070 -0.4569 -0.1382 -0.1509
  176MOL    H7621426   2.495   0.032   7.646 -0.9441 -1.2031 -0.9001
  176MOL    H7721427   2.459   0.201   7.609  0.2310 -0.2693 -0.1742
  176MOL    H7821428   2.251   0.191   0.039 -0.1539  1.0625  1.6297
  176MOL    H7921429   2.274   0.033   0.097 -0.3958 -0.6351 -1.6626
  176MOL    C8021430   2.413   0.185   0.188  0.1465  0.3061  1.1088
  176MOL    C8121431   2.323   0.274   0.276 -0.7515 -0.3291  1.4526
  176MOL    H8221432   2.469   0.107   0.241  2.0478  1.3864  0.7479
  176MOL    H8321433   2.487   0.254   0.149  0.5380  1.6825  4.1479
  176MOL    H8421434   2.267   0.335   0.205  0.1364 -1.4049 -0.1857
  176MOL    H8521435   2.250   0.197   0.301 -0.6703 -1.1746 -0.8477
  176MOL    C8621436   2.407   0.348   0.380  0.2855  0.1513  0.8412
  176MOL    C8721437   2.316   0.451   0.444 -0.2839  0.2658  0.2522
  176MOL    H8821438   2.453   0.282   0.454  2.1005 -0.0472 -0.4226
  176MOL    H8921439   2.490   0.399   0.330 -0.3992  0.9209  0.4746
  176MOL    H9021440   2.371   0.531   0.494  1.9285  0.4904 -2.4779
  176MOL    H9121441   2.259   0.506   0.369  0.0313  2.4574  1.5619
  176MOL    C9221442   2.215   0.398   0.553 -0.4881 -0.7750 -0.1806
  176MOL    C9321443   2.124   0.503   0.629 -0.4441 -0.8769  0.8072
  176MOL    H9421444   2.155   0.331   0.492 -1.6216 -0.0872  0.1575
  176MOL    H9521445   2.267   0.335   0.624 -2.2849  0.5079  2.3336
  176MOL    H9621446   2.183   0.566   0.695  0.5347 -1.4205  0.4779
  176MOL    H9721447   2.081   0.573   0.557  0.6459 -0.4377  0.5741
  176MOL    C9821448   2.018   0.438   0.726  0.2765 -0.5236  0.1350
  176MOL    C9921449   1.962   0.549   0.817 -0.1747 -0.4119 -0.1970
  176MOL   H10021450   1.938   0.392   0.668 -1.8701  1.6142  1.3658
  176MOL   H10121451   2.073   0.362   0.781  1.1591  0.5964  0.8232
  176MOL   H10221452   2.038   0.584   0.887 -0.9062 -0.3570  0.5892
  176MOL   H10321453   1.929   0.628   0.749  2.6236  1.2353  0.2573
  176MOL   C10421454   1.835   0.504   0.899  0.3683 -0.3024  0.0683
  176MOL   C10521455   1.791   0.599   1.010  0.0170  0.0871 -0.3977
  176MOL   H10621456   1.748   0.497   0.833 -0.0427 -2.0408  0.7710
  176MOL   H10721457   1.839   0.403   0.939 -3.7954 -1.2935 -1.7238
  176MOL   H10821458   1.871   0.613   1.083 -0.9982 -1.1216  0.9866
  176MOL   H10921459   1.776   0.700   0.972  0.0742  0.9998  1.9247
  176MOL   C11021460   1.668   0.558   1.091  0.1052 -0.5402 -0.3022
  176MOL   C11121461   1.628   0.659   1.204  0.1421  1.0715  0.6754
  176MOL   H11221462   1.588   0.551   1.018 -0.0764  2.1128 -0.3885
  176MOL   H11321463   1.688   0.461   1.136 -1.6358 -0.1208  1.4651
  176MOL   H11421464   1.707   0.645   1.278  0.4021  0.3234  0.2518
  176MOL   H11521465   1.640   0.764   1.176 -1.8429  1.4356  1.1465
  176MOL   C11621466   1.502   0.619   1.270  0.1282 -0.2000 -0.5617
  176MOL   C11721467   1.445   0.710   1.379  0.3919  0.2608  0.0243
  176MOL   H11821468   1.431   0.613   1.187  0.4117  1.4468 -0.9357
  176MOL   H11921469   1.508   0.516   1.305  0.5872  0.1244  0.3339
  176MOL   H12021470   1.393   0.797   1.341 -0.4219 -0.2959 -0.1434
  176MOL   H12121471   1.389   0.654   1.453  1.5681  0.8733  1.3954
  176MOL   H12221472   1.539   0.736   1.428  0.3270 -1.0038  0.8305
  177MOL     C121473   4.370   1.965   3.133 -0.2832 -0.0252  0.6367
  177MOL     C221474   4.387   2.115   3.120 -0.1682 -0.4065  0.1038
  177MOL     H321475   4.391   1.933   3.235  0.5475  1.5518  0.9961
  177MOL     H421476   4.432   1.902   3.068 -0.1450  0.5201  0.2304
  177MOL     H521477   4.354   2.144   3.021 -2.2667 -2.2926  0.2199
  177MOL     H621478   4.328   2.171   3.193  1.5596  1.4901  0.1055
  177MOL     H721479   4.271   1.928   3.107  0.1497 -0.3155 -0.6634
  177MOL     C821480   4.532   2.170   3.159  0.6747 -0.0612 -0.3453
  177MOL     C921481   4.637   2.132   3.056  0.3556  0.0656 -0.2510
  177MOL    H1021482   4.530   2.278   3.174  1.0420 -0.1119  0.0831
  177MOL    H1121483   4.566   2.122   3.251 -0.6748 -2.1991 -0.9386
  177MOL    H1221484   4.656   2.025   3.048  0.3341  0.0926 -0.6865
  177MOL    H1321485   4.596   2.143   2.955 -1.2884  0.1059  0.4103
  177MOL    C1421486   4.763   2.212   3.072 -0.1548 -0.3809  0.7702
  177MOL    C1521487   4.863   2.196   2.957  0.7610  0.6496 -0.3758
  177MOL    H1621488   4.728   2.315   3.079 -0.3973 -0.2439 -1.8742
  177MOL    H1721489   4.813   2.182   3.164  1.7209 -1.6423 -0.6191
  177MOL    H1821490   4.889   2.091   2.941  1.3562  0.9725 -1.5949
  177MOL    H1921491   4.825   2.236   2.863 -0.7551  3.0801  1.2146
  177MOL    C2021492   4.991   2.272   2.993 -0.7134  0.6574 -0.2858
  177MOL    C2121493   5.089   2.288   2.875  0.0505 -0.0991  0.6599
  177MOL    H2221494   4.957   2.373   3.018 -1.3773  0.0839  1.1946
  177MOL    H2321495   5.041   2.232   3.082 -0.1276 -0.2189 -0.9942
  177MOL    H2421496   5.118   2.184   2.861  0.8236 -0.0147  1.6182
  177MOL    H2521497   5.038   2.321   2.784  2.3428 -0.0752 -0.6532
  177MOL    C2621498   5.213   2.363   2.903  0.2418 -0.1337  0.4983
  177MOL    C2721499   5.332   2.349   2.811  0.0250 -0.0151 -0.7573
  177MOL    H2821500   5.186   2.468   2.916 -1.3943 -0.4590 -0.1033
  177MOL    H2921501   5.246   2.341   3.004 -0.9025  2.8932  1.5716
  177MOL    H3021502   5.357   2.243   2.809  2.2051  0.4981 -1.3049
  177MOL    H3121503   5.317   2.383   2.709 -0.0365  1.0256 -0.4072
  177MOL    C3221504   5.452   2.429   2.865 -0.1820 -0.3635 -0.0908
  177MOL    C3321505   5.580   2.410   2.788  0.2424 -0.2009  0.1299
  177MOL    H3421506   5.418   2.532   2.877  1.0198  0.0433 -0.1191
  177MOL    H3521507   5.469   2.403   2.969  0.5764  0.0000 -0.1258
  177MOL    H3621508   5.550   2.401   2.683 -1.9605 -1.2060  0.8134
  177MOL    H3721509   5.639   2.501   2.795  2.3433 -1.4076 -1.5204
  177MOL    C3821510   5.665   2.300   2.845  0.3906 -0.3127  0.5633
  177MOL    C3921511   5.772   2.251   2.745 -0.1981  0.1095  0.4531
  177MOL    H4021512   5.719   2.308   2.940  1.0061 -2.1765  0.4070
  177MOL    H4121513   5.599   2.216   2.868  0.7160 -0.3097  1.5802
  177MOL    H4221514   5.744   2.245   2.640  0.7739  3.9223 -0.0819
  177MOL    H4321515   5.846   2.330   2.756 -0.6883  0.6106  0.1481
  177MOL    C4421516   5.842   2.123   2.776 -0.3512 -0.7442 -0.3033
  177MOL    C4521517   5.753   2.004   2.761 -0.4091 -0.0617  0.3278
  177MOL    H4621518   5.937   2.110   2.724  0.6064 -1.7542  1.6220
  177MOL    H4721519   5.865   2.121   2.883 -3.9427  1.1902  0.5872
  177MOL    H4821520   5.815   1.937   2.820  2.4718  0.6228 -1.8269
  177MOL    H4921521   5.657   2.017   2.811  0.0478 -0.2942  1.2802
  177MOL    C5021522   5.739   1.939   2.624  0.5889 -0.2206  0.1062
  177MOL    C5121523   5.601   1.877   2.605 -0.1864 -0.6753  0.3984
  177MOL    H5221524   5.763   2.013   2.547 -0.0194 -0.1537 -0.0201
  177MOL    H5321525   5.814   1.860   2.617  0.2606 -0.5493  0.2730
  177MOL    H5421526   5.605   1.781   2.656 -1.5732 -0.6951  0.4835
  177MOL    H5521527   5.513   1.928   2.645 -0.6527  1.0245 -2.6174
  177MOL    C5621528   5.572   1.859   2.452  0.4324  0.8916  0.0389
  177MOL    C5721529   5.430   1.821   2.417  0.3232  0.1625  0.0363
  177MOL    H5821530   5.607   1.950   2.404  0.5623  1.0891  0.4986
  177MOL    H5921531   5.631   1.777   2.412 -0.6260  0.0385  0.1797
  177MOL    H6021532   5.393   1.738   2.477 -0.2894  0.7947  0.5490
  177MOL    H6121533   5.374   1.908   2.453  0.2329  0.2212 -0.2433
  177MOL    C6221534   5.407   1.792   2.272  0.4379  0.3992  0.1846
  177MOL    C6321535   5.263   1.779   2.230 -0.2108  0.0454 -0.0006
  177MOL    H6421536   5.466   1.868   2.221  0.3878  0.0702 -0.3706
  177MOL    H6521537   5.464   1.700   2.252  1.0084  0.1780  2.6669
  177MOL    H6621538   5.201   1.762   2.318  0.7043  1.1877  0.8739
  177MOL    H6721539   5.226   1.877   2.201  0.4475 -0.1567 -1.5777
  177MOL    C6821540   5.243   1.672   2.116  0.8051  0.2524 -0.0735
  177MOL    C6921541   5.240   1.537   2.187  0.3814 -0.0313  0.2310
  177MOL    H7021542   5.153   1.674   2.054 -0.7980 -0.9424  2.1552
  177MOL    H7121543   5.326   1.672   2.045  0.6238 -2.1308 -0.3324
  177MOL    H7221544   5.321   1.516   2.257  0.2734  1.5108  0.8399
  177MOL    H7321545   5.145   1.539   2.240  1.0904  0.1601  1.5140
  177MOL    C7421546   5.251   1.421   2.084  0.0039  0.7690 -0.4105
  177MOL    C7521547   5.254   1.278   2.151 -0.3989  0.1779 -0.3958
  177MOL    H7621548   5.182   1.422   1.999 -1.5060  0.6477  0.8057
  177MOL    H7721549   5.350   1.434   2.040  0.9229 -0.9655  1.0735
  177MOL    H7821550   5.303   1.203   2.088 -0.1627 -1.7071  1.9759
  177MOL    H7921551   5.336   1.290   2.222  1.0024 -2.5389 -1.4687
  177MOL    C8021552   5.141   1.229   2.242  0.2763  0.2235 -0.1405
  177MOL    C8121553   5.183   1.096   2.310 -0.1713 -0.1129 -0.6402
  177MOL    H8221554   5.117   1.295   2.326  1.1065 -0.0558  0.3187
  177MOL    H8321555   5.054   1.228   2.177  0.3879 -1.1999 -0.2883
  177MOL    H8421556   5.204   1.030   2.225 -0.7575 -1.8576  0.5483
  177MOL    H8521557   5.276   1.108   2.365 -0.0860 -0.0954 -0.7850
  177MOL    C8621558   5.072   1.032   2.393  0.0921 -0.1373  0.0992
  177MOL    C8721559   4.979   0.939   2.316  0.0594  0.3229 -0.5621
  177MOL    H8821560   5.120   0.968   2.466  0.8358  0.8982  0.5419
  177MOL    H8921561   5.021   1.101   2.461 -0.0129 -1.2635  1.1638
  177MOL    H9021562   4.937   1.009   2.243 -0.3932  0.2585 -0.3636
  177MOL    H9121563   5.031   0.857   2.267  0.6167  0.7565 -0.7115
  177MOL    C9221564   4.861   0.875   2.402 -0.5342  0.3154 -0.6618
  177MOL    C9321565   4.803   0.750   2.343  0.6027  0.4542  0.0254
  177MOL    H9421566   4.901   0.837   2.496 -0.6121 -0.2265 -0.8412
  177MOL    H9521567   4.779   0.943   2.420 -0.0919  0.4339  0.9375
  177MOL    H9621568   4.740   0.775   2.258 -1.1465  0.7862  1.3835
  177MOL    H9721569   4.885   0.684   2.314  0.2989  0.9119 -1.9465
  177MOL    C9821570   4.706   0.685   2.440  0.6236  0.7766 -0.4333
  177MOL    C9921571   4.608   0.588   2.388  0.5191  0.0454  0.3059
  177MOL   H10021572   4.758   0.644   2.526 -1.2141 -1.4055 -0.3107
  177MOL   H10121573   4.648   0.766   2.483  1.2923  1.3420 -0.5899
  177MOL   H10221574   4.569   0.622   2.291  0.3744 -0.7326  0.0851
  177MOL   H10321575   4.663   0.496   2.368 -0.2000 -0.0065 -1.5215
  177MOL   C10421576   4.486   0.573   2.480  0.3613  0.2405 -0.2963
  177MOL   C10521577   4.368   0.485   2.437  0.3039 -1.3660 -0.2502
  177MOL   H10621578   4.522   0.528   2.572 -1.3075 -1.1590 -0.3033
  177MOL   H10721579   4.448   0.673   2.501  0.7828  0.2336  0.5071
  177MOL   H10821580   4.391   0.388   2.394 -0.0584 -1.2620 -0.6840
  177MOL   H10921581   4.300   0.474   2.521 -2.7704  3.0849 -1.9151
  177MOL   C11021582   4.271   0.565   2.340  0.0674  0.0990  0.1501
  177MOL   C11121583   4.121   0.510   2.346 -0.1913 -0.3514 -0.2982
  177MOL   H11221584   4.267   0.671   2.367  0.9539  0.1980 -0.0777
  177MOL   H11321585   4.303   0.557   2.236 -1.6754 -0.0207 -0.3879
  177MOL   H11421586   4.079   0.494   2.445  1.7057 -2.0468  0.2826
  177MOL   H11521587   4.057   0.586   2.301  2.1699  0.8686 -1.6906
  177MOL   C11621588   4.107   0.367   2.286  0.0344  0.2814 -0.3865
  177MOL   C11721589   3.982   0.290   2.324  0.7603  0.3118  0.0674
  177MOL   H11821590   4.120   0.374   2.178 -0.3171  0.7094 -0.4063
  177MOL   H11921591   4.195   0.314   2.323  0.4947  1.3568  0.0888
  177MOL   H12021592   3.973   0.185   2.297 -2.3172  0.5270  0.0272
  177MOL   H12121593   3.964   0.301   2.431  0.3033  3.3599 -0.2684
  177MOL   H12221594   3.897   0.348   2.286 -2.9034 -4.5877  0.3465
  178MOL     C121595   3.652   5.344   1.740 -0.0581  0.3148  0.1257
  178MOL     C221596   3.787   5.395   1.804 -0.1638 -0.6402  0.3059
  178MOL     H321597   3.622   5.418   1.666 -2.4199  0.4163  1.1351
  178MOL     H421598   3.575   5.339   1.818  1.6580  1.5494  1.9639
  178MOL     H521599   3.775   5.487   1.862 -1.3090 -0.7478  0.2668
  178MOL     H621600   3.815   5.320   1.879 -0.5367  0.7396  1.8585
  178MOL     H721601   3.658   5.245   1.696 -0.4551 -0.5226  1.9132
  178MOL     C821602   3.899   5.402   1.709  0.9320 -0.2579 -0.0726
  178MOL     C921603   4.039   5.411   1.776 -0.6621 -0.1615 -0.1664
  178MOL    H1021604   3.900   5.312   1.647  0.0558 -1.8630  2.2117
  178MOL    H1121605   3.886   5.487   1.641 -2.8431  1.3727  2.5234
  178MOL    H1221606   4.039   5.503   1.834 -1.1265 -0.9467  1.1013
  178MOL    H1321607   4.048   5.325   1.842  2.7576  0.7370  0.6127
  178MOL    C1421608   4.151   5.404   1.676  0.5018  0.3786  0.7126
  178MOL    C1521609   4.296   5.392   1.728  0.2282  1.0732 -0.2074
  178MOL    H1621610   4.135   5.313   1.618  2.6348 -1.0475  2.2783
  178MOL    H1721611   4.137   5.479   1.598  0.0864 -0.7524 -0.3245
  178MOL    H1821612   4.319   5.467   1.803 -1.2872  0.5034  0.8488
  178MOL    H1921613   4.292   5.296   1.779 -0.6995 -0.0945 -2.3662
  178MOL    C2021614   4.407   5.406   1.628 -0.8355 -1.0719 -0.3573
  178MOL    C2121615   4.540   5.375   1.685  0.3235  0.3020  0.0039
  178MOL    H2221616   4.383   5.355   1.535 -1.5521 -1.4558  0.0350
  178MOL    H2321617   4.404   5.509   1.592 -0.4246 -0.5440  1.0770
  178MOL    H2421618   4.573   5.430   1.773  1.2768  2.6247 -1.7562
  178MOL    H2521619   4.553   5.270   1.714  2.3382  0.4618 -0.2410
  178MOL    C2621620   4.645   5.397   1.567 -0.7600  0.3420 -0.6233
  178MOL    C2721621   4.797   5.371   1.615 -0.2002 -0.0079  0.5044
  178MOL    H2821622   4.624   5.331   1.483 -1.9563 -0.3962  0.2305
  178MOL    H2921623   4.635   5.499   1.530 -1.5389  0.0947 -1.1031
  178MOL    H3021624   4.818   5.427   1.706  0.5538  1.5840 -0.6330
  178MOL    H3121625   4.788   5.267   1.646 -1.2872  0.6369  2.4088
  178MOL    C3221626   4.893   5.425   1.508  0.2269 -0.7778  0.0326
  178MOL    C3321627   5.039   5.419   1.564 -0.3671 -0.0216  0.6108
  178MOL    H3421628   4.885   5.378   1.410  0.7081  0.2417 -0.5113
  178MOL    H3521629   4.866   5.531   1.501  0.4362 -0.6451  1.1231
  178MOL    H3621630   5.036   5.447   1.669  0.2115 -0.3601  0.7216
  178MOL    H3721631   5.074   5.316   1.567 -0.9450 -0.2412 -0.0895
  178MOL    C3821632   5.139   5.514   1.483  0.3242 -0.0462 -0.8571
  178MOL    C3921633   5.108   5.660   1.495 -0.1431 -0.7039 -0.1615
  178MOL    H4021634   5.236   5.491   1.528 -0.2108 -0.0149  0.3225
  178MOL    H4121635   5.145   5.480   1.379  0.0448  1.6333 -1.4412
  178MOL    H4221636   5.025   5.676   1.426 -2.1626  1.9269  2.6805
  178MOL    H4321637   5.079   5.679   1.599 -2.5617  2.5298 -1.3405
  178MOL    C4421638   5.230   5.741   1.444  0.4905  0.7669  0.1907
  178MOL    C4521639   5.209   5.892   1.430 -0.4651  0.0422  0.0626
  178MOL    H4621640   5.302   5.733   1.525 -0.9198 -0.2265  1.3696
  178MOL    H4721641   5.254   5.706   1.344 -0.2135 -0.1015  0.3188
  178MOL    H4821642   5.126   5.914   1.363 -0.4315 -0.1379 -0.0381
  178MOL    H4921643   5.186   5.933   1.528  0.2381  2.0098 -0.5662
  178MOL    C5021644   5.333   5.961   1.376 -0.1355 -0.6259  0.0769
  178MOL    C5121645   5.309   6.113   1.352  0.2217  0.0823  0.1896
  178MOL    H5221646   5.412   5.940   1.448 -0.7760  2.5705  1.8057
  178MOL    H5321647   5.357   5.929   1.274 -1.3464  1.4968 -0.9070
  178MOL    H5421648   5.242   6.129   1.267 -0.7779 -2.1768  0.5113
  178MOL    H5521649   5.250   6.144   1.438  0.7575  0.6706  0.3469
  178MOL    C5621650   5.434   6.190   1.330 -0.0463  0.8710 -0.3189
  178MOL    C5721651   5.426   6.342   1.313  0.4201  0.3428 -0.6763
  178MOL    H5821652   5.493   6.170   1.419  0.6570 -0.5314 -1.0679
  178MOL    H5921653   5.480   6.148   1.240  0.3160 -0.6457  0.5516
  178MOL    H6021654   5.508   6.386   1.255  0.8163  1.2993  0.6001
  178MOL    H6121655   5.329   6.363   1.269 -0.0462  0.8395  0.5712
  178MOL    C6221656   5.409   6.421   1.441  0.2868  0.7917 -0.6708
  178MOL    C6321657   5.437   6.571   1.424 -0.0987 -0.0990 -0.8760
  178MOL    H6421658   5.303   6.413   1.465  0.3411  0.8078 -0.4224
  178MOL    H6521659   5.457   6.375   1.527 -1.5155 -0.1997 -0.1507
  178MOL    H6621660   5.376   6.620   1.348 -1.1682 -0.4909 -0.2876
  178MOL    H6721661   5.377   6.618   1.502  1.4027  2.2009 -1.0647
  178MOL    C6821662   5.586   6.607   1.417 -0.6701  0.1540  0.3105
  178MOL    C6921663   5.648   6.635   1.553 -0.2737 -0.1310 -0.4919
  178MOL    H7021664   5.647   6.538   1.359 -0.5153 -0.6672  1.4245
  178MOL    H7121665   5.584   6.705   1.370  2.3826  0.4917  0.8149
  178MOL    H7221666   5.580   6.705   1.601  0.1281  0.4361 -0.7426
  178MOL    H7321667   5.661   6.545   1.614  4.4714  0.1916 -0.8616
  178MOL    C7421668   5.791   6.700   1.547  0.3766  0.2951 -0.2931
  178MOL    C7521669   5.846   6.762   1.678 -0.2151 -0.4986 -0.5129
  178MOL    H7621670   5.854   6.620   1.508  1.0701 -0.8882  3.1004
  178MOL    H7721671   5.795   6.772   1.466 -1.3173  0.6019 -0.1172
  178MOL    H7821672   5.844   6.683   1.754 -0.0809  1.1971  1.2820
  178MOL    H7921673   5.951   6.792   1.672  0.1868 -1.4521  1.4355
  178MOL    C8021674   5.762   6.871   1.744 -0.5748  0.4279  0.2961
  178MOL    C8121675   5.789   6.893   1.894 -0.0374  0.3184  0.2066
  178MOL    H8221676   5.773   6.960   1.681  0.8965 -0.4676 -0.7207
  178MOL    H8321677   5.654   6.854   1.739 -0.9083  2.6332 -1.0483
  178MOL    H8421678   5.757   6.800   1.942  1.2359  0.1053  0.6691
  178MOL    H8521679   5.896   6.912   1.906 -0.1955  2.0009 -0.8571
  178MOL    C8621680   5.716   7.005   1.966  0.8538  0.5855 -0.0964
  178MOL    C8721681   5.757   7.008   2.117 -0.1182 -0.1971  0.0161
  178MOL    H8821682   5.745   7.101   1.923  1.0171  0.9528  0.8149
  178MOL    H8921683   5.611   6.976   1.965  0.4092  2.0504 -3.8013
  178MOL    H9021684   5.748   6.909   2.162  1.3665 -0.7004 -0.7912
  178MOL    H9121685   5.864   7.025   2.118 -0.1247 -0.1833  1.2712
  178MOL    C9221686   5.683   7.119   2.197 -0.0580 -0.1134  0.1241
  178MOL    C9321687   5.756   7.128   2.335 -0.1920 -0.7147 -0.6176
  178MOL    H9421688   5.660   7.217   2.155 -1.5774 -0.8089 -0.7111
  178MOL    H9521689   5.582   7.089   2.224 -0.4309  0.1579 -0.9433
  178MOL    H9621690   5.770   7.029   2.377  0.9067  0.3725  1.6977
  178MOL    H9721691   5.849   7.182   2.312 -0.1278 -0.4915  0.1513
  178MOL    C9821692   5.666   7.202   2.436 -0.4254  0.1701  0.5990
  178MOL    C9921693   5.736   7.254   2.571 -0.3458 -0.3333  0.9811
  178MOL   H10021694   5.635   7.292   2.383 -0.1807  0.6267  1.2206
  178MOL   H10121695   5.580   7.136   2.449  1.1163 -1.8696  0.8288
  178MOL   H10221696   5.775   7.177   2.637 -1.9351 -0.5848  1.6496
  178MOL   H10321697   5.816   7.318   2.534 -0.3780 -1.5388 -1.2657
  178MOL   C10421698   5.645   7.347   2.639  0.5298 -0.0474  0.2014
  178MOL   C10521699   5.697   7.380   2.775 -0.1214 -0.2164  0.7796
  178MOL   H10621700   5.620   7.435   2.580  2.2799  1.1873  1.2751
  178MOL   H10721701   5.547   7.300   2.649  0.6635 -0.4920 -0.5272
  178MOL   H10821702   5.704   7.284   2.825  3.4858 -1.5310 -2.0028
  178MOL   H10921703   5.798   7.420   2.761  0.1352 -0.8920  0.6798
  178MOL   C11021704   5.611   7.477   2.850  0.3329 -0.3188  0.2226
  178MOL   C11121705   5.672   7.503   2.992 -0.1236  0.3750 -0.1083
  178MOL   H11221706   5.615   7.570   2.793 -2.1099  0.6989  1.6225
  178MOL   H11321707   5.507   7.445   2.858 -0.5777  2.0689 -1.6618
  178MOL   H11421708   5.643   7.412   3.044  0.3576  1.4066  2.0055
  178MOL   H11521709   5.780   7.505   2.987 -0.2059  2.9197 -1.7219
  178MOL   C11621710   5.616   7.620   3.072 -0.1029  0.4472 -0.2222
  178MOL   C11721711   5.668   0.062   3.007 -0.9745  0.1732 -0.3808
  178MOL   H11821712   5.508   7.616   3.067 -0.0648  0.5880 -1.3368
  178MOL   H11921713   5.635   7.608   3.178 -1.6458 -0.3547 -0.0315
  178MOL   H12021714   5.656   0.077   2.900  0.1885  0.1028 -0.5229
  178MOL   H12121715   5.600   0.136   3.050 -1.8568 -1.0402  0.3367
  178MOL   H12221716   5.769   0.098   3.027 -0.8588  1.8298 -3.5551
  179MOL     C121717   6.506   5.387   5.603  0.2887  0.1002  0.7562
  179MOL     C221718   6.514   5.469   5.475 -0.0190 -0.3532 -0.0823
  179MOL     H321719   6.607   5.367   5.641  0.1354 -0.1308  1.0472
  179MOL     H421720   6.447   5.296   5.593 -0.2536  0.3767  1.4154
  179MOL     H521721   6.412   5.482   5.436 -0.1502 -1.5920 -0.1651
  179MOL     H621722   6.561   5.563   5.503  1.1478  0.2934 -3.8236
  179MOL     H721723   6.446   5.441   5.676 -0.6229 -0.3288  0.3293
  179MOL     C821724   6.595   5.401   5.361 -0.0017  0.4835 -0.3838
  179MOL     C921725   6.553   5.455   5.227  0.1868 -0.5778  0.0743
  179MOL    H1021726   6.701   5.427   5.369 -0.1110  1.2785 -1.3906
  179MOL    H1121727   6.579   5.294   5.368  0.2466  0.2397 -3.0266
  179MOL    H1221728   6.444   5.457   5.229  0.1898 -0.7990  2.1023
  179MOL    H1321729   6.594   5.556   5.229 -0.3334 -0.3822  1.3743
  179MOL    C1421730   6.604   5.367   5.108  0.5720 -0.0523 -0.0790
  179MOL    C1521731   6.752   5.364   5.086 -0.4600  0.0619  0.6474
  179MOL    H1621732   6.571   5.265   5.128  2.7340 -0.8784 -0.5758
  179MOL    H1721733   6.555   5.414   5.023 -0.6948 -0.2899  0.4940
  179MOL    H1821734   6.785   5.457   5.040 -0.0492 -1.1628 -1.6447
  179MOL    H1921735   6.806   5.339   5.177 -2.8788 -0.1510  2.0768
  179MOL    C2021736   6.780   5.247   4.983  0.4445 -0.2016  0.2438
  179MOL    C2121737   6.921   5.241   4.931  0.0996  0.1367  0.2228
  179MOL    H2221738   6.760   5.152   5.032 -1.4411  0.2819  0.4463
  179MOL    H2321739   6.705   5.255   4.904  1.4777  2.2597 -0.5461
  179MOL    H2421740   6.947   5.333   4.878  2.4297 -0.0383  0.9907
  179MOL    H2521741   6.990   5.237   5.016 -0.3156 -2.9088  0.4581
  179MOL    C2621742   6.939   5.116   4.841  0.2869 -0.1316  0.3398
  179MOL    C2721743   7.078   5.116   4.775 -0.0147  0.8215  0.4736
  179MOL    H2821744   6.933   5.026   4.902 -1.5067 -0.1320  0.1828
  179MOL    H2921745   6.853   5.101   4.776  1.0192  1.4142 -1.0227
  179MOL    H3021746   7.104   5.199   4.709  0.3145  0.0752 -0.3520
  179MOL    H3121747   7.155   5.121   4.851  0.1401 -0.4882  0.4159
  179MOL    C3221748   7.104   4.984   4.687 -0.2748  0.2016 -0.9132
  179MOL    C3321749   7.033   4.990   4.545 -0.1696 -0.0298 -0.7229
  179MOL    H3421750   7.212   4.966   4.687 -0.4240 -0.7165 -1.9726
  179MOL    H3521751   7.061   4.907   4.751  1.5806 -0.1841 -0.0805
  179MOL    H3621752   6.926   5.002   4.558 -0.0088  2.4173 -1.4468
  179MOL    H3721753   7.068   5.072   4.482  0.2073  1.1419  0.9769
  179MOL    C3821754   7.059   4.855   4.467 -0.0778  0.0205 -0.0395
  179MOL    C3921755   7.004   4.861   4.320 -0.3732  0.5595  0.0303
  179MOL    H4021756   7.166   4.831   4.471  0.0120  0.3981 -0.2083
  179MOL    H4121757   7.017   4.772   4.524  0.5161 -0.4202 -0.2360
  179MOL    H4221758   6.904   4.904   4.317  0.3685  2.2583 -0.8996
  179MOL    H4321759   7.075   4.930   4.275  1.1300  0.5354  2.3060
  179MOL    C4421760   7.018   4.736   4.237  0.5024  0.1240 -0.2137
  179MOL    C4521761   6.965   4.767   4.093 -0.1996  0.1799  0.4399
  179MOL    H4621762   7.121   4.700   4.239  0.0960 -1.1555 -1.2404
  179MOL    H4721763   6.954   4.654   4.272  0.9734 -0.0295  0.3010
  179MOL    H4821764   6.858   4.787   4.102 -0.1326  0.3265  0.8833
  179MOL    H4921765   7.008   4.856   4.046 -0.5053  0.4080  0.5943
  179MOL    C5021766   6.970   4.651   4.001  0.3334 -0.1231 -0.8351
  179MOL    C5121767   6.925   4.680   3.859 -0.1224  0.2764  0.1751
  179MOL    H5221768   7.067   4.602   3.999 -0.1891 -1.2213  0.0069
  179MOL    H5321769   6.904   4.572   4.039  0.9750  0.5989  1.9385
  179MOL    H5421770   6.960   4.779   3.832 -0.3420  0.4310  0.4570
  179MOL    H5521771   6.973   4.607   3.794 -2.5451 -1.3193  0.0715
  179MOL    C5621772   6.770   4.685   3.845 -0.1199  0.1090 -0.0534
  179MOL    C5721773   6.729   4.723   3.702  0.6713 -0.5120  0.1828
  179MOL    H5821774   6.739   4.583   3.867  1.2869 -0.6069 -1.2808
  179MOL    H5921775   6.716   4.755   3.909 -2.4699 -0.5172 -1.2961
  179MOL    H6021776   6.772   4.820   3.678 -1.7871  0.6352  0.3474
  179MOL    H6121777   6.768   4.659   3.623 -2.9454 -1.3715 -0.9630
  179MOL    C6221778   6.579   4.719   3.672  0.6700  0.4797  0.1064
  179MOL    C6321779   6.538   4.785   3.543 -1.1121  0.2147 -0.7091
  179MOL    H6421780   6.539   4.619   3.659  1.2076  0.4834 -1.6468
  179MOL    H6521781   6.529   4.770   3.754  2.6134  3.3109 -0.3913
  179MOL    H6621782   6.561   4.891   3.560 -1.4442 -0.1302  2.1050
  179MOL    H6721783   6.599   4.754   3.458 -0.0141  0.0304  0.1330
  179MOL    C6821784   6.393   4.757   3.509 -0.2243 -0.6974  0.3843
  179MOL    C6921785   6.339   4.820   3.382  0.0925  0.1593 -0.8826
  179MOL    H7021786   6.380   4.649   3.509 -0.7805 -0.6411 -0.5340
  179MOL    H7121787   6.339   4.799   3.594 -0.3139  0.1631 -0.0929
  179MOL    H7221788   6.402   4.794   3.297  1.5491  0.0894  0.1999
  179MOL    H7321789   6.242   4.780   3.351 -0.0913  0.3476 -0.5560
  179MOL    C7421790   6.324   4.967   3.389  0.6777 -0.2082 -0.2996
  179MOL    C7521791   6.302   5.022   3.250  0.5504  0.3728 -0.6970
  179MOL    H7621792   6.248   5.010   3.455 -0.9536 -0.6687 -1.8248
  179MOL    H7721793   6.418   5.005   3.427  2.5558 -3.7898 -1.1237
  179MOL    H7821794   6.388   5.000   3.186  2.8776  3.2740  1.2982
  179MOL    H7921795   6.224   4.957   3.210  1.9345 -1.4625 -0.4752
  179MOL    C8021796   6.263   5.168   3.244  0.4954 -0.0454 -0.2524
  179MOL    C8121797   6.372   5.271   3.275 -0.1360 -0.4794  0.1720
  179MOL    H8221798   6.234   5.182   3.140  0.3827 -0.6775 -0.3084
  179MOL    H8321799   6.173   5.186   3.303  1.3754  1.8542  0.5487
  179MOL    H8421800   6.418   5.245   3.370  0.7045 -0.0280 -0.1049
  179MOL    H8521801   6.445   5.272   3.193 -2.1996 -0.9313 -1.7398
  179MOL    C8621802   6.310   5.414   3.282  0.7351  0.0932  0.5134
  179MOL    C8721803   6.425   5.515   3.301 -0.0777  0.3125  1.0044
  179MOL    H8821804   6.261   5.428   3.185  1.3178 -2.2295 -0.1465
  179MOL    H8921805   6.231   5.413   3.356 -1.8459 -1.0598 -2.1568
  179MOL    H9021806   6.500   5.490   3.376  1.6248  0.6685 -0.5662
  179MOL    H9121807   6.476   5.532   3.207 -1.0382 -0.2496  0.3676
  179MOL    C9221808   6.374   5.660   3.342 -0.4144 -0.4973 -0.0438
  179MOL    C9321809   6.491   5.742   3.397 -0.4389 -0.1653  0.5759
  179MOL    H9421810   6.328   5.713   3.258  0.4511 -0.0385 -0.2283
  179MOL    H9521811   6.290   5.653   3.412 -0.3710 -2.9269 -0.1750
  179MOL    H9621812   6.549   5.686   3.471  1.5844 -1.4602 -1.9234
  179MOL    H9721813   6.558   5.770   3.316  1.4639  2.5008  2.9544
  179MOL    C9821814   6.444   5.868   3.480  1.0797 -0.1345 -0.0481
  179MOL    C9921815   6.425   5.988   3.387  0.4166 -0.3458 -0.0905
  179MOL   H10021816   6.355   5.833   3.532  1.9533 -0.7085  1.0905
  179MOL   H10121817   6.513   5.897   3.559 -0.1318 -0.0950  1.0041
  179MOL   H10221818   6.512   6.017   3.328  0.7211 -3.5990 -1.3135
  179MOL   H10321819   6.351   5.963   3.311  0.7305 -0.3166 -0.4064
  179MOL   C10421820   6.373   6.115   3.463 -0.0271  0.4040 -0.0217
  179MOL   C10521821   6.341   6.231   3.366  0.0835  0.3320  0.4832
  179MOL   H10621822   6.283   6.095   3.521 -1.6178  2.1455 -1.8372
  179MOL   H10721823   6.442   6.146   3.542  1.0002  0.1908 -0.8162
  179MOL   H10821824   6.425   6.247   3.299  0.2541  1.1215  0.8831
  179MOL   H10921825   6.258   6.216   3.296 -0.3002  0.4850  0.9057
  179MOL   C11021826   6.290   6.363   3.424  0.3332  0.0164  0.0659
  179MOL   C11121827   6.402   6.453   3.483 -0.1142 -0.3056  0.8150
  179MOL   H11221828   6.237   6.431   3.358  0.0555  0.1168  0.3900
  179MOL   H11321829   6.227   6.330   3.507 -0.7462  3.0839  0.5146
  179MOL   H11421830   6.355   6.539   3.529 -1.6235  0.5857 -2.2434
  179MOL   H11521831   6.448   6.401   3.568  0.9307 -1.5310 -0.4655
  179MOL   C11621832   6.513   6.500   3.383  0.5070 -0.4027  0.1258
  179MOL   C11721833   6.625   6.595   3.427  0.5453  0.6041  0.1253
  179MOL   H11821834   6.554   6.407   3.342 -0.1592 -1.1382  1.0857
  179MOL   H11921835   6.468   6.541   3.292  1.4755 -1.9719 -1.1020
  179MOL   H12021836   6.697   6.606   3.346  1.7587  2.0204  1.3802
  179MOL   H12121837   6.581   6.692   3.450 -2.9691 -0.5043 -1.4474
  179MOL   H12221838   6.671   6.555   3.517 -1.1332  1.0280  1.1979
  180MOL     C121839   0.211   4.138   5.387 -0.3095 -0.0965 -0.6218
  180MOL     C221840   0.258   4.252   5.296  0.1831 -0.1393 -0.3742
  180MOL     H321841   0.273   4.123   5.475  0.3387  2.4744 -0.6194
  180MOL     H421842   0.207   4.040   5.339  0.1718 -0.3403 -0.1626
  180MOL     H521843   0.190   4.249   5.211 -1.0235  0.2903  0.5637
  180MOL     H621844   0.254   4.348   5.347  1.9918 -0.2893  0.1063
  180MOL     H721845   0.116   4.157   5.438 -0.0654 -0.7894  0.1130
  180MOL     C821846   0.405   4.227   5.260 -0.1339  1.2655  0.4510
  180MOL     C921847   0.457   4.316   5.150 -0.0914  0.2352 -0.1560
  180MOL    H1021848   0.473   4.236   5.345 -1.2084  0.1733  1.4533
  180MOL    H1121849   0.427   4.123   5.237  1.0842  1.3286  1.2718
  180MOL    H1221850   0.427   4.277   5.053  0.7109  1.1076 -0.7622
  180MOL    H1321851   0.421   4.416   5.173 -0.3961  0.1219 -0.1390
  180MOL    C1421852   0.612   4.324   5.159 -0.6906  0.0449 -0.0825
  180MOL    C1521853   0.670   4.383   5.028 -0.3518 -0.4042 -0.2386
  180MOL    H1621854   0.649   4.384   5.242 -0.0725  0.0850 -0.3792
  180MOL    H1721855   0.661   4.227   5.169  1.5663  1.0032 -1.4231
  180MOL    H1821856   0.611   4.339   4.947  0.5212 -0.4068 -0.8852
  180MOL    H1921857   0.641   4.488   5.020 -0.2410 -0.2547  1.2707
  180MOL    C2021858   0.813   4.359   5.008 -0.1540  0.4206  0.5510
  180MOL    C2121859   0.860   4.381   4.860 -0.0398  0.3460 -0.6272
  180MOL    H2221860   0.859   4.436   5.070  1.1844 -0.4448  0.6645
  180MOL    H2321861   0.838   4.262   5.051 -0.7296  0.0087 -0.0310
  180MOL    H2421862   0.804   4.469   4.828 -2.0029 -0.6775 -0.1298
  180MOL    H2521863   0.966   4.400   4.846  0.2514 -0.2923  0.5841
  180MOL    C2621864   0.819   4.261   4.776 -0.2439 -0.8738  0.8190
  180MOL    C2721865   0.912   4.250   4.657 -0.4916 -0.7413 -0.3650
  180MOL    H2821866   0.842   4.170   4.830  2.2119 -1.1249 -0.6004
  180MOL    H2921867   0.716   4.274   4.743  0.3208  0.6453 -0.4161
  180MOL    H3021868   0.936   4.346   4.611 -0.2305 -0.9510 -0.6652
  180MOL    H3121869   1.009   4.215   4.694  0.3151  0.6482 -1.1118
  180MOL    C3221870   0.859   4.139   4.552  0.0897 -0.3947 -0.8127
  180MOL    C3321871   0.947   4.115   4.437  0.1942 -0.3057  0.4015
  180MOL    H3421872   0.850   4.050   4.615 -0.4450  0.9141  0.9938
  180MOL    H3521873   0.757   4.165   4.523 -0.0230 -0.4279 -0.4509
  180MOL    H3621874   0.943   4.210   4.382  1.4777  1.9514  4.0559
  180MOL    H3721875   1.053   4.114   4.461  0.0895 -0.0064  0.8822
  180MOL    C3821876   0.912   3.997   4.354 -0.2836 -0.4849 -0.4246
  180MOL    C3921877   0.954   3.863   4.420 -0.4714 -0.2396 -0.1516
  180MOL    H4021878   0.805   4.002   4.336 -0.6894 -1.9488  1.4585
  180MOL    H4121879   0.969   4.010   4.262 -2.3928 -1.8674 -1.9690
  180MOL    H4221880   1.062   3.868   4.431 -0.3539 -1.4115 -0.6721
  180MOL    H4321881   0.916   3.861   4.522  1.1254 -0.4027  0.4524
  180MOL    C4421882   0.916   3.728   4.350 -0.3463  0.1238 -0.0210
  180MOL    C4521883   0.970   3.616   4.435 -0.2913 -0.0686  0.1479
  180MOL    H4621884   0.808   3.725   4.338 -0.1915  1.7021 -2.0438
  180MOL    H4721885   0.955   3.729   4.248 -0.6164  0.0061 -0.1231
  180MOL    H4821886   1.072   3.627   4.472 -0.6700  0.6447  1.0168
  180MOL    H4921887   0.908   3.620   4.524 -2.0135 -2.0565 -0.9282
  180MOL    C5021888   0.952   3.473   4.380 -0.3147 -0.3365  0.6037
  180MOL    C5121889   1.038   3.366   4.453  0.5953  0.3496  0.7191
  180MOL    H5221890   0.847   3.448   4.366 -0.2729 -0.8794  1.1950
  180MOL    H5321891   0.992   3.484   4.279 -1.8752 -0.5494 -0.0461
  180MOL    H5421892   1.145   3.387   4.453  0.6275  0.4029 -1.9633
  180MOL    H5521893   1.010   3.379   4.557  0.0133  0.9956  0.4895
  180MOL    C5621894   1.022   3.223   4.406  0.9528 -0.2349 -0.1147
  180MOL    C5721895   1.040   3.201   4.256  0.7325 -0.0802  0.3263
  180MOL    H5821896   1.101   3.160   4.447  0.4774 -0.1739  0.9131
  180MOL    H5921897   0.925   3.189   4.442  1.9065 -0.6853  2.1195
  180MOL    H6021898   1.003   3.281   4.192  1.2389  0.5110  0.7636
  180MOL    H6121899   1.145   3.209   4.225  0.4832 -1.2568 -0.9136
  180MOL    C6221900   0.987   3.067   4.207  0.2661  0.4893  0.7002
  180MOL    C6321901   1.001   3.028   4.059 -0.8902  0.2771 -0.3438
  180MOL    H6421902   1.015   2.991   4.279 -0.8415 -0.3079  0.3099
  180MOL    H6521903   0.880   3.073   4.226 -0.0230  0.8105 -0.9234
  180MOL    H6621904   1.102   3.049   4.025  0.1435 -2.0740  1.0968
  180MOL    H6721905   0.985   2.922   4.044 -1.4662  0.4114 -0.6688
  180MOL    C6821906   0.908   3.110   3.969 -0.6193  0.3564 -0.5151
  180MOL    C6921907   0.883   3.048   3.830 -0.0840 -0.9027 -0.5993
  180MOL    H7021908   0.809   3.113   4.017  0.6041 -0.5821  2.1831
  180MOL    H7121909   0.952   3.210   3.961  0.4115  0.0060  0.6782
  180MOL    H7221910   0.983   3.021   3.794  0.8337  2.2855 -0.5988
  180MOL    H7321911   0.830   2.954   3.841  0.0232 -0.9094 -0.1555
  180MOL    C7421912   0.815   3.141   3.731  1.4639 -0.6358  0.0562
  180MOL    C7521913   0.908   3.255   3.680 -0.3392  0.2556 -0.2733
  180MOL    H7621914   0.764   3.078   3.659  1.1082 -0.6668  0.3322
  180MOL    H7721915   0.731   3.184   3.786  0.8220 -0.1476 -1.2840
  180MOL    H7821916   0.956   3.297   3.768 -1.0863 -1.8782  1.1835
  180MOL    H7921917   0.989   3.214   3.619 -0.2226 -0.3150  0.2638
  180MOL    C8021918   0.835   3.361   3.593 -0.2635 -0.3657 -0.1428
  180MOL    C8121919   0.933   3.459   3.533 -0.3411 -0.0095 -1.1897
  180MOL    H8221920   0.781   3.305   3.516 -0.3677 -0.5449  0.0601
  180MOL    H8321921   0.767   3.412   3.661 -1.2209 -0.2498 -1.1722
  180MOL    H8421922   1.003   3.493   3.609 -1.3862  0.0589 -0.2334
  180MOL    H8521923   0.988   3.407   3.455  0.0960 -1.4497  0.0794
  180MOL    C8621924   0.876   3.582   3.461  0.2921 -0.3341  0.8481
  180MOL    C8721925   0.826   3.705   3.541 -0.4556  0.5711 -0.2695
  180MOL    H8821926   0.958   3.611   3.396  0.6415  1.1281  1.9018
  180MOL    H8921927   0.798   3.553   3.390 -0.7479  0.0427  1.8074
  180MOL    H9021928   0.774   3.770   3.471  0.3141 -0.3176 -1.6896
  180MOL    H9121929   0.755   3.659   3.610  0.7248 -0.5666  0.2271
  180MOL    C9221930   0.936   3.791   3.608  0.2953  0.2553  0.8548
  180MOL    C9321931   0.868   3.890   3.701 -0.0922  0.5695  0.2924
  180MOL    H9421932   1.004   3.718   3.652 -0.2018  0.2910  1.6914
  180MOL    H9521933   0.995   3.850   3.538  0.7494  0.2507  1.2281
  180MOL    H9621934   0.788   3.933   3.640  0.9725  0.6610 -1.0506
  180MOL    H9721935   0.821   3.827   3.777 -1.1407  1.5516  0.4680
  180MOL    C9821936   0.962   3.999   3.746 -0.3783  0.8748  0.0258
  180MOL    C9921937   0.906   4.087   3.852  0.2694 -0.5992  0.0512
  180MOL   H10021938   1.052   3.951   3.784 -0.3850 -0.4569 -1.5718
  180MOL   H10121939   0.986   4.063   3.661 -1.8439  0.9390 -0.3531
  180MOL   H10221940   0.831   4.156   3.814  0.4636  0.5574  1.6825
  180MOL   H10321941   0.859   4.021   3.925 -0.5086  2.7577  2.7520
  180MOL   C10421942   1.015   4.174   3.927 -0.0092  0.7055 -0.0878
  180MOL   C10521943   0.947   4.269   4.026 -0.2318  0.1251  0.2331
  180MOL   H10621944   1.082   4.100   3.971 -2.4367 -0.7262  1.2580
  180MOL   H10721945   1.070   4.227   3.849  3.1214 -1.3150  0.6524
  180MOL   H10821946   0.893   4.348   3.972 -0.8000  0.3117  1.0720
  180MOL   H10921947   0.876   4.214   4.087 -0.0744 -0.4142 -0.0645
  180MOL   C11021948   1.042   4.333   4.121 -0.7614  0.2597  0.5839
  180MOL   C11121949   1.149   4.426   4.046  0.1560 -0.0929  0.2622
  180MOL   H11221950   0.992   4.400   4.191 -1.5979  2.9305 -2.4574
  180MOL   H11321951   1.092   4.253   4.176 -1.4588 -0.2119  0.5432
  180MOL   H11421952   1.189   4.381   3.955 -0.5006 -0.9292  0.3820
  180MOL   H11521953   1.098   4.508   3.995 -0.4610 -0.1985  0.7067
  180MOL   C11621954   1.258   4.474   4.139 -0.2484  0.1282  1.0494
  180MOL   C11721955   1.377   4.536   4.056  0.8597 -0.0363 -0.5995
  180MOL   H11821956   1.207   4.539   4.209 -1.0521  1.3352 -0.6306
  180MOL   H11921957   1.299   4.387   4.191 -1.1530 -1.0177 -0.1410
  180MOL   H12021958   1.434   4.603   4.120  0.8367 -2.1445  1.7065
  180MOL   H12121959   1.447   4.462   4.018 -0.7739 -1.5665 -0.6515
  180MOL   H12221960   1.343   4.602   3.976  2.4370 -1.1874 -2.2638
  181MOL     C121961   0.302   0.325   5.711  0.0976  0.3343 -0.5436
  181MOL     C221962   0.375   0.270   5.586  0.4483 -0.2112 -0.4596
  181MOL     H321963   0.235   0.248   5.748 -0.1877 -0.2947 -2.3280
  181MOL     H421964   0.245   0.415   5.687  1.2043  1.2232  0.0696
  181MOL     H521965   0.442   0.343   5.541  1.6411  0.0936  1.7677
  181MOL     H621966   0.436   0.181   5.604  1.9819  0.8890 -0.1592
  181MOL     H721967   0.374   0.344   5.790 -0.0252  0.1683 -0.3915
  181MOL     C821968   0.282   0.239   5.470 -0.0846  0.0479 -0.2398
  181MOL     C921969   0.363   0.202   5.345  0.1151  0.0003  0.0728
  181MOL    H1021970   0.215   0.159   5.500  0.1793 -0.6486 -1.5023
  181MOL    H1121971   0.229   0.326   5.433 -1.6687  0.3836  2.6641
  181MOL    H1221972   0.435   0.279   5.318 -0.4547 -0.4580 -2.9883
  181MOL    H1321973   0.422   0.110   5.354  0.4636  0.2625  0.4629
  181MOL    C1421974   0.272   0.176   5.221  0.7817 -0.1450 -0.2828
  181MOL    C1521975   0.360   0.164   5.101  0.2961 -0.7001 -0.0759
  181MOL    H1621976   0.225   0.080   5.239  2.7975 -1.1269 -0.1587
  181MOL    H1721977   0.195   0.253   5.221  1.0938  0.1870  1.2201
  181MOL    H1821978   0.412   0.258   5.081  3.3398 -2.1958  0.5506
  181MOL    H1921979   0.442   0.094   5.120 -0.3957 -2.5317 -3.3881
  181MOL    C2021980   0.267   0.135   4.975  0.3986  0.7578 -0.4235
  181MOL    C2121981   0.348   0.101   4.847  0.4440 -0.5473 -0.1243
  181MOL    H2221982   0.209   0.047   5.002  0.9835  0.9823  1.6231
  181MOL    H2321983   0.188   0.211   4.971  1.9678  2.4076 -0.4506
  181MOL    H2421984   0.387   0.198   4.816 -0.0854 -0.8504 -1.7521
  181MOL    H2521985   0.437   0.043   4.873  0.0361 -1.2114 -0.1936
  181MOL    C2621986   0.260   0.024   4.738 -0.4165 -1.0355 -0.5124
  181MOL    C2721987   0.337   0.028   4.607 -0.0499  0.1766  0.9403
  181MOL    H2821988   0.246   7.612   4.766  1.0574 -1.6392 -1.9536
  181MOL    H2921989   0.166   0.079   4.735  1.4224  2.2850 -0.0472
  181MOL    H3021990   0.366   0.127   4.574  2.8807 -1.3445 -1.2881
  181MOL    H3121991   0.425   7.656   4.602 -0.3767 -0.2722  0.8707
  181MOL    C3221992   0.247   7.664   4.502  0.1508 -0.1569 -0.6534
  181MOL    C3321993   0.324   7.663   4.375 -1.0377  0.0620  0.1536
  181MOL    H3421994   0.219   7.562   4.529  0.2094  0.2238  0.9309
  181MOL    H3521995   0.157   0.032   4.490  1.4154  2.0244  0.3250
  181MOL    H3621996   0.342   0.074   4.346 -2.0011  0.2266  0.1000
  181MOL    H3721997   0.423   7.618   4.380 -0.3392  1.4652 -0.9722
  181MOL    C3821998   0.250   7.580   4.266  0.0692 -0.1705  0.1258
  181MOL    C3921999   0.152   7.662   4.186  0.0537  0.1014 -0.2282
  181MOL    H4022000   0.315   7.532   4.193 -0.3148  0.6678 -0.7733
  181MOL    H4122001   0.203   7.491   4.306 -0.9548  1.0626  1.7209
  181MOL    H4222002   0.079   0.004   4.260 -0.1591 -0.0931 -0.3466
  181MOL    H4322003   0.189   0.064   4.145  0.7332  0.2926  0.8044
  181MOL    C4422004   0.084   7.582   4.071  0.4615  0.5715 -0.3025
  181MOL    C4522005   7.679   7.671   3.982 -0.0131 -0.1571 -0.2871
  181MOL    H4622006   0.148   7.514   4.015  0.9677  0.3006  0.5983
  181MOL    H4722007   0.021   7.511   4.126 -0.5582  2.8478  1.5516
  181MOL    H4822008   7.600   0.026   4.041  0.4378  1.4453 -0.9278
  181MOL    H4922009   0.045   0.058   3.934 -0.5834 -0.0558 -0.8126
  181MOL    C5022010   7.630   7.588   3.857  0.4731 -0.8025  0.6476
  181MOL    C5122011   7.519   7.656   3.775  0.9900  0.2750 -0.5844
  181MOL    H5222012   0.019   7.569   3.786  2.0166  0.7901  1.9633
  181MOL    H5322013   7.593   7.493   3.896  0.5193 -0.9175  0.4143
  181MOL    H5422014   7.555   0.061   3.741 -2.0349  1.2991 -1.0017
  181MOL    H5522015   7.498   7.601   3.683 -1.0302  1.2825 -0.7553
  181MOL    C5622016   7.385   7.668   3.853 -0.3830 -0.4707 -0.2186
  181MOL    C5722017   7.286   0.076   3.785 -0.2074 -0.6120 -0.2251
  181MOL    H5822018   7.351   7.565   3.856 -0.1404 -0.5620 -0.5505
  181MOL    H5922019   7.406   0.004   3.957  1.4324  0.0212 -0.6887
  181MOL    H6022020   7.321   0.178   3.803  1.6644 -0.8370 -2.3769
  181MOL    H6122021   7.302   0.067   3.677  0.3333 -0.8084 -0.1283
  181MOL    C6222022   7.145   0.050   3.829  0.5374 -0.6238  0.7685
  181MOL    C6322023   7.038   0.147   3.765 -0.0377  0.0367 -0.3049
  181MOL    H6422024   7.119   7.637   3.813  0.2635 -0.4790  0.2640
  181MOL    H6522025   7.152   0.063   3.937 -1.6972 -0.2717  0.8868
  181MOL    H6622026   7.004   0.225   3.833 -0.6398 -0.6621  0.1965
  181MOL    H6722027   7.089   0.186   3.677  0.8996  0.5154  0.4372
  181MOL    C6822028   6.922   0.069   3.711  0.3820  0.0111  0.3606
  181MOL    C6922029   6.815   0.164   3.648  0.0806  0.3724 -0.4174
  181MOL    H7022030   6.945   7.690   3.631  0.3009 -0.3376  0.6466
  181MOL    H7122031   6.863   0.024   3.791  2.8330 -3.6018  0.2713
  181MOL    H7222032   6.769   0.239   3.711 -1.1961 -0.7522  0.0186
  181MOL    H7322033   6.877   0.212   3.572 -1.8357  1.3181 -1.4143
  181MOL    C7422034   6.709   0.091   3.577  0.6031  0.1792  0.2967
  181MOL    C7522035   6.600   0.174   3.518  0.1818 -0.4116 -0.1274
  181MOL    H7622036   6.754   0.027   3.500  1.4569  2.1951 -0.9136
  181MOL    H7722037   6.662   0.036   3.659 -1.8976 -0.2335 -1.3596
  181MOL    H7822038   6.541   0.196   3.607  2.8029  0.0976  1.5336
  181MOL    H7922039   6.610   0.273   3.473 -3.1600  0.6899  1.3630
  181MOL    C8022040   6.503   0.093   3.426 -0.3797  0.5352 -0.0262
  181MOL    C8122041   6.557   0.076   3.284  0.8229 -0.0791  1.2335
  181MOL    H8222042   6.480   7.689   3.471  1.4539 -0.3652 -0.9302
  181MOL    H8322043   6.412   0.153   3.418  0.6467  2.0580 -0.7028
  181MOL    H8422044   6.566   0.176   3.240 -4.6007  0.2325  0.4790
  181MOL    H8522045   6.653   0.026   3.294  0.3107 -1.7030 -1.3392
  181MOL    C8622046   6.464   7.662   3.213 -0.1991 -0.3282 -0.4052
  181MOL    C8722047   6.445   0.016   3.070  0.4909  0.1200 -0.4433
  181MOL    H8822048   6.511   7.564   3.223 -0.9858 -0.7554 -0.8995
  181MOL    H8922049   6.366   7.661   3.260 -0.2531 -1.0479 -0.5342
  181MOL    H9022050   6.363   0.089   3.068  2.4176  2.3924  1.0096
  181MOL    H9122051   6.535   0.055   3.023 -0.1920  2.2288 -0.0821
  181MOL    C9222052   6.414   7.584   2.981  0.1404 -0.1509 -0.1515
  181MOL    C9322053   6.395   7.623   2.834  0.3094 -0.3643  0.3296
  181MOL    H9422054   6.494   7.511   2.994  0.3361 -0.0220 -0.6204
  181MOL    H9522055   6.317   7.544   3.013  1.4115 -0.8641  3.0130
  181MOL    H9622056   6.379   0.039   2.829  0.0305 -0.3736  0.9459
  181MOL    H9722057   6.493   7.604   2.789  0.1083 -0.5580 -0.0337
  181MOL    C9822058   6.282   7.537   2.763  0.5861  0.3437  0.5774
  181MOL    C9922059   6.304   7.535   2.613  0.3135  0.1062  0.4984
  181MOL   H10022060   6.289   7.434   2.799 -0.7389 -0.0850 -0.3621
  181MOL   H10122061   6.190   7.584   2.797 -0.2890 -0.8410 -0.1278
  181MOL   H10222062   6.300   7.639   2.581 -0.5308 -0.8750 -2.7548
  181MOL   H10322063   6.409   7.507   2.599 -0.2075 -1.2969 -0.7928
  181MOL   C10422064   6.206   7.446   2.543 -0.3385 -0.2146  0.4202
  181MOL   C10522065   6.235   7.444   2.392 -0.2112  0.3208  0.0257
  181MOL   H10622066   6.210   7.342   2.577 -1.2650 -0.7068 -0.9121
  181MOL   H10722067   6.102   7.474   2.563 -0.2616 -0.6012  1.3407
  181MOL   H10822068   6.232   7.546   2.357 -0.5928  0.2978 -0.0135
  181MOL   H10922069   6.341   7.424   2.382  0.0279  0.5572  1.8999
  181MOL   C11022070   6.147   7.347   2.309 -0.2604 -0.2438 -0.0035
  181MOL   C11122071   6.164   7.363   2.158  0.4470 -1.0075 -0.6061
  181MOL   H11222072   6.169   7.242   2.327 -0.1845 -0.3898 -0.9304
  181MOL   H11322073   6.042   7.360   2.332 -0.0773 -1.6127  1.7079
  181MOL   H11422074   6.120   7.460   2.136 -3.1084 -2.3933 -0.0504
  181MOL   H11522075   6.268   7.361   2.127 -0.2603  0.4910 -3.2005
  181MOL   C11622076   6.077   7.252   2.092 -0.4701 -0.9041  1.1386
  181MOL   C11722077   6.134   7.192   1.961 -0.2385  0.4281 -0.1930
  181MOL   H11822078   6.044   7.170   2.156 -1.7205 -0.5589  0.9515
  181MOL   H11922079   5.983   7.305   2.079  0.1965  0.2330  0.9078
  181MOL   H12022080   6.076   7.110   1.918  0.7881  0.2079 -1.1872
  181MOL   H12122081   6.143   7.278   1.894  1.1821  1.3062  1.1161
  181MOL   H12222082   6.233   7.149   1.973  0.1038  0.4677 -2.5763
  182MOL     C122083   5.933   2.767   4.190 -0.2717 -0.4079 -0.4169
  182MOL     C222084   5.917   2.876   4.085  0.6420  0.1189  0.4807
  182MOL     H322085   5.956   2.673   4.139  0.2675 -1.9210  2.5305
  182MOL     H422086   5.838   2.745   4.240 -1.1987  0.9012 -1.5382
  182MOL     H522087   6.001   2.871   4.015  0.0031  1.0947 -0.3673
  182MOL     H622088   5.822   2.861   4.034  0.6246  0.2021  0.4884
  182MOL     H722089   6.014   2.792   4.258 -0.6142  0.1665 -0.2133
  182MOL     C822090   5.918   3.025   4.138 -0.2322  0.2834 -0.0717
  182MOL     C922091   5.905   3.138   4.039 -0.2224 -0.1891  0.1321
  182MOL    H1022092   5.832   3.042   4.202 -1.8327 -1.8888 -1.5396
  182MOL    H1122093   6.001   3.040   4.208 -0.9731  0.2000  0.8242
  182MOL    H1222094   5.999   3.152   3.986  0.6077 -2.8256  0.8021
  182MOL    H1322095   5.825   3.109   3.971  1.2295 -0.5940 -1.4384
  182MOL    C1422096   5.857   3.270   4.107  0.1639  0.7655  0.3714
  182MOL    C1522097   5.968   3.345   4.176 -0.1853 -0.7815 -0.7468
  182MOL    H1622098   5.819   3.339   4.031  0.3746 -0.0986 -0.5247
  182MOL    H1722099   5.769   3.254   4.169  0.0231 -3.3551 -0.7842
  182MOL    H1822100   6.002   3.279   4.255  0.9047 -1.4769 -1.7948
  182MOL    H1922101   6.057   3.358   4.115  0.9573  1.2219  1.2240
  182MOL    C2022102   5.941   3.484   4.215  0.0585  0.6577 -0.0068
  182MOL    C2122103   6.049   3.546   4.307 -0.1500  0.6433 -0.2209
  182MOL    H2222104   5.928   3.545   4.125  0.1697 -0.4998 -0.8199
  182MOL    H2322105   5.844   3.495   4.265 -0.1411  1.8306 -0.6324
  182MOL    H2422106   6.060   3.480   4.393  0.2723 -1.0445 -1.5487
  182MOL    H2522107   6.147   3.537   4.259  0.3067  1.3576  0.5793
  182MOL    C2622108   6.038   3.690   4.352  0.2062 -1.0802  0.0327
  182MOL    C2722109   5.912   3.715   4.428 -0.4534 -0.3973  0.5572
  182MOL    H2822110   6.124   3.717   4.414  1.0200 -0.5489 -1.2918
  182MOL    H2922111   6.036   3.761   4.269  1.8987 -0.6006  0.3643
  182MOL    H3022112   5.822   3.678   4.379 -0.6809  2.9303 -1.7186
  182MOL    H3122113   5.912   3.666   4.526 -2.0544  1.2545  1.4062
  182MOL    C3222114   5.886   3.863   4.440  0.4918 -0.7593 -0.4565
  182MOL    C3322115   5.758   3.895   4.517  0.0579 -0.1077  0.1127
  182MOL    H3422116   5.973   3.909   4.487 -0.3579 -0.8103  1.1807
  182MOL    H3522117   5.873   3.912   4.343 -1.3016 -1.4857 -0.6033
  182MOL    H3622118   5.677   3.860   4.454  0.8373  1.2127 -1.6491
  182MOL    H3722119   5.753   3.835   4.609  0.3952  1.0969  0.9254
  182MOL    C3822120   5.747   4.039   4.557  0.3847 -0.0443 -0.2047
  182MOL    C3922121   5.643   4.055   4.669  0.0565 -0.2479 -0.2661
  182MOL    H4022122   5.841   4.085   4.588  0.4728  0.2427 -0.8798
  182MOL    H4122123   5.720   4.079   4.459  0.0173 -1.9115 -0.8892
  182MOL    H4222124   5.547   4.017   4.635  0.0486  0.0074 -0.5280
  182MOL    H4322125   5.662   3.984   4.749  1.4768 -0.0824 -0.4372
  182MOL    C4422126   5.626   4.202   4.726 -0.8261 -0.5618 -0.0713
  182MOL    C4522127   5.709   4.240   4.851  1.4504  0.4460  0.0796
  182MOL    H4622128   5.632   4.279   4.649  0.0944 -0.9605 -0.4051
  182MOL    H4722129   5.523   4.214   4.760 -0.2327 -0.2135  1.6383
  182MOL    H4822130   5.809   4.199   4.837  1.6171  0.4275  1.2382
  182MOL    H4922131   5.726   4.347   4.864  1.8385  0.8148 -3.1262
  182MOL    C5022132   5.639   4.189   4.980  0.2641 -0.0802  0.0496
  182MOL    C5122133   5.732   4.209   5.104 -0.7344 -0.6580  1.0654
  182MOL    H5222134   5.537   4.227   4.986 -0.9810 -2.9104 -1.7254
  182MOL    H5322135   5.620   4.082   4.969 -0.7716  0.2278 -1.3104
  182MOL    H5422136   5.825   4.167   5.064 -1.5296 -1.1417 -0.3107
  182MOL    H5522137   5.765   4.312   5.119  0.2221 -0.7283 -0.3707
  182MOL    C5622138   5.694   4.148   5.243 -0.7843  0.4321 -0.8094
  182MOL    C5722139   5.801   4.162   5.341  0.6951 -0.2191  0.3753
  182MOL    H5822140   5.609   4.200   5.286  0.5761  2.1742 -0.1394
  182MOL    H5922141   5.678   4.042   5.225  1.0009 -0.1404  0.8479
  182MOL    H6022142   5.876   4.084   5.322  2.5670  1.5097  0.4795
  182MOL    H6122143   5.844   4.262   5.338  0.2811 -0.0782 -1.4167
  182MOL    C6222144   5.754   4.144   5.472 -0.6324  0.2011 -0.2984
  182MOL    C6322145   5.871   4.137   5.567 -0.1562  0.5301 -0.1509
  182MOL    H6422146   5.694   4.227   5.510 -1.9675 -0.1309 -1.6379
  182MOL    H6522147   5.687   4.058   5.479  1.8424 -1.6147  1.8312
  182MOL    H6622148   5.941   4.218   5.548 -1.3432  2.3326  2.7068
  182MOL    H6722149   5.834   4.170   5.664  2.5524 -1.3286  1.5661
  182MOL    C6822150   5.934   3.996   5.591 -0.9492 -0.6273 -0.4787
  182MOL    C6922151   6.039   3.984   5.699 -0.0145  0.0142 -0.9486
  182MOL    H7022152   5.852   3.930   5.618 -1.0159 -0.9150 -1.3463
  182MOL    H7122153   5.969   3.966   5.492 -0.8832  1.1629 -1.0196
  182MOL    H7222154   6.109   4.068   5.701 -0.1357  0.2183 -3.7711
  182MOL    H7322155   5.984   4.000   5.791  0.4066  1.3213 -0.9115
  182MOL    C7422156   6.107   3.851   5.707  0.2689 -0.0035 -0.0816
  182MOL    C7522157   6.233   3.837   5.610 -0.1813 -0.2452 -0.2058
  182MOL    H7622158   6.139   3.835   5.810 -0.2502 -1.1164 -0.0887
  182MOL    H7722159   6.059   3.755   5.695  1.7257 -0.9856  1.7040
  182MOL    H7822160   6.259   3.731   5.606 -1.1556 -0.4603 -0.9611
  182MOL    H7922161   6.190   3.870   5.516  0.6562 -0.9435 -0.8389
  182MOL    C8022162   6.357   3.917   5.640  0.2356 -0.2141  0.1322
  182MOL    C8122163   6.468   3.889   5.531  0.8344  0.1003 -0.1914
  182MOL    H8222164   6.341   4.024   5.656  0.3705 -0.0668 -0.6959
  182MOL    H8322165   6.397   3.890   5.738 -0.3152 -2.4616 -0.2441
  182MOL    H8422166   6.513   3.790   5.544 -0.7325 -0.7478 -1.0800
  182MOL    H8522167   6.419   3.888   5.434 -1.8863 -0.5224  1.1450
  182MOL    C8622168   6.575   4.000   5.526 -0.0321  0.0743  0.3268
  182MOL    C8722169   6.694   3.960   5.427 -0.3731 -0.1048 -0.4212
  182MOL    H8822170   6.541   4.102   5.505 -2.4718 -0.7644  0.0723
  182MOL    H8922171   6.622   4.018   5.623 -0.0612  4.7616 -0.4143
  182MOL    H9022172   6.738   3.861   5.441 -0.4147 -0.2272 -1.1187
  182MOL    H9122173   6.671   3.952   5.321 -1.7408 -1.4838 -0.0290
  182MOL    C9222174   6.815   4.055   5.435 -0.1525 -0.2639 -0.2813
  182MOL    C9322175   6.929   4.035   5.329 -0.9521  0.2383  1.2808
  182MOL    H9422176   6.799   4.159   5.409  0.1297 -0.4466 -1.2253
  182MOL    H9522177   6.852   4.067   5.537 -2.2688  2.5283  0.2128
  182MOL    H9622178   6.951   3.929   5.318  1.3540  0.9502 -1.5809
  182MOL    H9722179   6.899   4.071   5.230  0.1074 -0.1125  0.8281
  182MOL    C9822180   7.056   4.101   5.374  0.9041  0.1142  0.0156
  182MOL    C9922181   7.168   4.105   5.270  0.0208  0.2267 -0.1329
  182MOL   H10022182   7.034   4.202   5.410 -1.7990  0.7972 -3.3387
  182MOL   H10122183   7.084   4.053   5.468  1.3244 -2.7394 -1.5402
  182MOL   H10222184   7.178   4.000   5.240  1.0369  0.8176 -1.9160
  182MOL   H10322185   7.144   4.156   5.177 -0.2902 -0.2263 -0.3032
  182MOL   C10422186   7.309   4.144   5.314  0.6642 -0.2226 -0.6136
  182MOL   C10522187   7.417   4.114   5.208  0.5207  0.4513 -0.6266
  182MOL   H10622188   7.304   4.247   5.351  0.5611 -1.0529  1.7613
  182MOL   H10722189   7.332   4.095   5.409 -1.5465  2.4565  1.4065
  182MOL   H10822190   7.514   4.125   5.254  1.8075 -0.7822 -2.9422
  182MOL   H10922191   7.397   4.010   5.180 -1.5555  0.5548  0.3609
  182MOL   C11022192   7.410   4.210   5.083 -0.0647 -0.4979 -0.3340
  182MOL   C11122193   7.544   4.234   5.019  0.0326 -0.0402  0.6484
  182MOL   H11222194   7.339   4.175   5.008  0.5709 -0.2029 -1.0713
  182MOL   H11322195   7.362   4.302   5.115  0.2804 -0.9141  1.4713
  182MOL   H11422196   7.620   4.264   5.091  0.1545 -0.8080  0.8457
  182MOL   H11522197   7.594   4.141   4.991 -0.0279 -0.3607  1.5994
  182MOL   C11622198   7.520   4.316   4.891  0.0528 -0.2723  0.0545
  182MOL   C11722199   7.654   4.354   4.827 -0.0490  0.2056  1.1036
  182MOL   H11822200   7.448   4.260   4.831  1.5740 -0.1987 -1.9174
  182MOL   H11922201   7.477   4.410   4.923  1.2738 -0.3015  1.8293
  182MOL   H12022202   7.628   4.417   4.742 -0.2994 -0.9109  0.3361
  182MOL   H12122203   0.022   4.405   4.902 -2.7080 -1.5848  4.5985
  182MOL   H12222204   0.012   4.266   4.788  2.2000  2.8426 -2.1848
  183MOL     C122205   5.274   6.070   2.893  0.1212  0.0063 -0.1412
  183MOL     C222206   5.213   6.201   2.942  1.3959  0.0245  0.0284
  183MOL     H322207   5.295   6.074   2.786  1.4892  0.7899  0.1505
  183MOL     H422208   5.201   5.990   2.907 -0.8057  1.1565  1.8265
  183MOL     H522209   5.209   6.188   3.050  1.3763 -1.8864 -0.1806
  183MOL     H622210   5.286   6.280   2.926  0.5833  0.4224 -1.9032
  183MOL     H722211   5.360   6.050   2.957 -1.6013 -1.7714  1.7224
  183MOL     C822212   5.080   6.237   2.890  0.2701 -1.0304  0.6750
  183MOL     C922213   5.014   6.344   2.975  0.8618  0.4701  0.4478
  183MOL    H1022214   5.089   6.276   2.789  1.7001 -1.0043  0.8008
  183MOL    H1122215   5.009   6.154   2.894 -2.6696  1.2489 -1.8840
  183MOL    H1222216   5.007   6.312   3.079  0.3518  0.1290  0.3100
  183MOL    H1322217   5.080   6.431   2.976  2.6409 -0.8567  0.8087
  183MOL    C1422218   4.873   6.378   2.922 -0.2200 -0.4388 -0.1710
  183MOL    C1522219   4.800   6.488   3.017 -0.0134  0.0818 -0.4578
  183MOL    H1622220   4.874   6.426   2.824  0.2954 -0.1134 -0.0080
  183MOL    H1722221   4.818   6.284   2.926  0.5897 -0.8433  1.9366
  183MOL    H1822222   4.781   6.441   3.113 -0.4542  0.9175 -0.1298
  183MOL    H1922223   4.862   6.575   3.037  3.7503 -2.7250  0.7368
  183MOL    C2022224   4.666   6.525   2.959 -0.0138  0.0564 -0.0591
  183MOL    C2122225   4.596   6.636   3.047  0.7927 -0.6593 -0.7721
  183MOL    H2222226   4.678   6.564   2.858 -2.6479  0.5793 -0.2045
  183MOL    H2322227   4.610   6.432   2.950 -2.6804  1.2381  3.2108
  183MOL    H2422228   4.575   6.599   3.147  0.7947 -0.0310 -0.5370
  183MOL    H2522229   4.668   6.718   3.049 -0.0819  0.1176 -1.0269
  183MOL    C2622230   4.468   6.672   2.980  0.0375  0.0114 -0.4911
  183MOL    C2722231   4.384   6.781   3.054 -0.6763 -0.5877 -0.2002
  183MOL    H2822232   4.485   6.709   2.879 -0.7860 -0.0586 -0.6598
  183MOL    H2922233   4.405   6.583   2.976 -0.7676  0.3794  2.5918
  183MOL    H3022234   4.357   6.730   3.147  1.6587  0.5736  1.1541
  183MOL    H3122235   4.458   6.858   3.077  0.4997 -1.6256 -0.4215
  183MOL    C3222236   4.266   6.842   2.972 -0.6822 -0.4820 -0.3516
  183MOL    C3322237   4.171   6.936   3.054  0.1112  0.2756  0.5777
  183MOL    H3422238   4.314   6.892   2.887 -1.6946  0.8056 -0.1913
  183MOL    H3522239   4.201   6.767   2.926 -0.6624 -0.6170 -0.1610
  183MOL    H3622240   4.122   6.884   3.137 -0.4985 -0.7072 -0.3819
  183MOL    H3722241   4.247   7.003   3.094  1.6728 -1.3383  0.3687
  183MOL    C3822242   4.071   7.024   2.978  0.4047  0.2925  0.1657
  183MOL    C3922243   4.004   7.124   3.076  0.4612 -1.2605  0.6900
  183MOL    H4022244   4.134   7.069   2.901 -1.7017  0.2893 -1.6140
  183MOL    H4122245   3.999   6.952   2.939  0.3704 -0.0402  0.8439
  183MOL    H4222246   3.953   7.066   3.152  0.1215 -0.1805  1.2879
  183MOL    H4322247   4.079   7.185   3.126  1.0390 -2.2541  1.0370
  183MOL    C4422248   3.902   7.216   2.999  0.1675 -0.1077 -0.0449
  183MOL    C4522249   3.867   7.332   3.089 -0.0659  0.5698  0.8052
  183MOL    H4622250   3.942   7.261   2.909 -1.9616 -1.0390 -1.4930
  183MOL    H4722251   3.815   7.160   2.965  0.7307 -1.4994  0.7657
  183MOL    H4822252   3.846   7.307   3.193 -1.2132  2.4327  1.0277
  183MOL    H4922253   3.957   7.394   3.090 -1.0778  2.0497  1.0756
  183MOL    C5022254   3.741   7.397   3.025  0.2704  0.1452 -0.2417
  183MOL    C5122255   3.719   7.544   3.076  0.3059  0.0365 -0.1579
  183MOL    H5222256   3.759   7.396   2.917 -2.0433 -1.0550 -0.6499
  183MOL    H5322257   3.657   7.328   3.035  1.3256 -0.8670  2.0887
  183MOL    H5422258   3.811   7.601   3.082 -0.1034  1.1039 -2.9404
  183MOL    H5522259   3.657   7.605   3.010  1.2332  1.0427 -0.1104
  183MOL    C5622260   3.655   7.539   3.217  0.0900  0.5017  0.1586
  183MOL    C5722261   3.617   7.674   3.272  0.2508  0.0043  0.4037
  183MOL    H5822262   3.561   7.487   3.198 -0.5503  2.1596 -1.3931
  183MOL    H5922263   3.714   7.481   3.287  0.3325  1.1264  0.4757
  183MOL    H6022264   3.711   0.037   3.282  0.5708 -0.5659  0.5848
  183MOL    H6122265   3.556   0.038   3.201  0.7472  0.2059  0.1275
  183MOL    C6222266   3.565   7.657   3.418 -0.3897  0.6776  0.5079
  183MOL    C6322267   3.487   0.089   3.470  0.2868 -0.2167 -0.1575
  183MOL    H6422268   3.498   7.572   3.422 -1.6247  1.5826 -0.7968
  183MOL    H6522269   3.644   7.634   3.489  0.1176 -0.3808 -0.3935
  183MOL    H6622270   3.560   0.170   3.480  0.7217 -0.7676  1.4400
  183MOL    H6722271   3.421   0.109   3.387  1.6180  0.5537 -1.0521
  183MOL    C6822272   3.412   0.076   3.601  0.3305 -0.1446 -0.0820
  183MOL    C6922273   3.369   0.206   3.660  0.7536 -0.3780 -0.0442
  183MOL    H7022274   3.320   0.020   3.580 -1.4997  2.7891 -0.2328
  183MOL    H7122275   3.479   0.030   3.672 -0.1018 -1.6015 -0.6015
  183MOL    H7222276   3.460   0.256   3.693  2.4836 -1.8887 -2.3660
  183MOL    H7322277   3.318   0.270   3.588 -0.1863 -0.5308  0.4702
  183MOL    C7422278   3.278   0.185   3.783  0.2646 -0.7401  0.1127
  183MOL    C7522279   3.237   0.324   3.846  0.9971  0.6842  0.0897
  183MOL    H7622280   3.187   0.146   3.739 -0.2072  0.1432  0.2847
  183MOL    H7722281   3.319   0.117   3.857 -0.3186 -0.4871  0.6680
  183MOL    H7822282   3.334   0.373   3.850  1.3676  0.1294 -1.6572
  183MOL    H7922283   3.179   0.387   3.779 -1.4499 -2.5888 -0.9970
  183MOL    C8022284   3.172   0.298   3.976  0.2012 -0.0048  0.4695
  183MOL    C8122285   3.158   0.428   4.055 -0.2720 -0.2556 -0.5003
  183MOL    H8222286   3.070   0.260   3.965  0.1973 -0.2033  1.1290
  183MOL    H8322287   3.214   0.221   4.042  1.5499  0.1881 -0.1593
  183MOL    H8422288   3.253   0.463   4.094  0.4146  1.1992 -3.3217
  183MOL    H8522289   3.130   0.508   3.986  1.4671 -1.5801 -2.8046
  183MOL    C8622290   3.054   0.422   4.171 -0.3047  0.2453  0.5776
  183MOL    C8722291   3.111   0.370   4.309  0.9652  0.1828 -0.5297
  183MOL    H8822292   2.989   0.508   4.190 -1.7443 -0.6325 -0.2803
  183MOL    H8922293   2.979   0.347   4.146 -0.9561  0.4606  1.8130
  183MOL    H9022294   3.180   0.288   4.290  1.9378  1.1004 -1.0568
  183MOL    H9122295   3.183   0.443   4.347 -0.5680  1.4617 -0.0706
  183MOL    C9222296   3.007   0.344   4.418 -0.1811 -1.1412  0.1672
  183MOL    C9322297   3.072   0.284   4.538 -0.0207  0.1691  0.6435
  183MOL    H9422298   2.952   0.436   4.435  2.0859  0.0639  1.2955
  183MOL    H9522299   2.933   0.277   4.374 -0.3568 -0.0488 -1.2528
  183MOL    H9622300   3.133   0.196   4.516 -0.1863  0.0979  0.4606
  183MOL    H9722301   3.154   0.344   4.576  0.5745  0.6703 -1.3947
  183MOL    C9822302   2.977   0.268   4.656 -1.1419  0.6795  0.0359
  183MOL    C9922303   3.056   0.232   4.791 -0.0988  0.3521 -0.2699
  183MOL   H10022304   2.922   0.361   4.668  0.1550  1.7921 -2.2422
  183MOL   H10122305   2.905   0.190   4.631 -0.4909  0.0156  0.2143
  183MOL   H10222306   3.113   0.317   4.829  1.7143 -0.9646  0.0217
  183MOL   H10322307   2.971   0.223   4.858 -0.5452 -0.4349 -0.9189
  183MOL   C10422308   3.132   0.104   4.797  0.1194  0.5938  0.0687
  183MOL   C10522309   3.190   0.071   4.941 -1.1356 -0.0290 -0.8962
  183MOL   H10622310   3.066   0.023   4.765  2.4271 -0.7566 -1.4045
  183MOL   H10722311   3.210   0.105   4.721 -0.2920  3.3203 -0.3397
  183MOL   H10822312   3.121   0.094   5.023 -1.9315  1.8890 -2.0591
  183MOL   H10922313   3.199   7.654   4.944 -1.2594 -0.1266 -3.2666
  183MOL   C11022314   3.325   0.133   4.955  0.3928  0.3095 -0.0137
  183MOL   C11122315   3.391   0.113   5.094  0.2324  0.2791 -0.0907
  183MOL   H11222316   3.394   0.090   4.882  3.5249  2.3281  1.6518
  183MOL   H11322317   3.325   0.241   4.944 -1.0983  0.2781 -0.4654
  183MOL   H11422318   3.391   0.004   5.105  0.1595  0.4073  1.2067
  183MOL   H11522319   3.492   0.151   5.084  0.5849 -0.2663  1.3366
  183MOL   C11622320   3.330   0.202   5.205 -0.5630  0.6245  0.7265
  183MOL   C11722321   3.422   0.234   5.324  0.2030  0.2889  1.0436
  183MOL   H11822322   3.279   0.291   5.167  1.0393  0.6315 -1.4638
  183MOL   H11922323   3.247   0.139   5.237 -1.2888  0.3906 -1.5494
  183MOL   H12022324   3.441   0.138   5.371 -0.3484 -0.7139 -0.7802
  183MOL   H12122325   3.524   0.267   5.302  0.9718 -2.8884 -0.4769
  183MOL   H12222326   3.377   0.307   5.392 -0.2734 -1.0648  2.1883
  184MOL     C122327   4.831   2.404   3.750  0.7434  0.2326 -0.4380
  184MOL     C222328   4.974   2.405   3.776 -0.3313  0.9203  0.1252
  184MOL     H322329   4.777   2.498   3.735 -1.6014 -1.1871 -1.2851
  184MOL     H422330   4.783   2.355   3.835  1.1470 -0.1212 -0.4152
  184MOL     H522331   5.006   2.425   3.878  0.2063  0.1668  0.1118
  184MOL     H622332   5.006   2.301   3.761  0.9471  1.4048 -0.6716
  184MOL     H722333   4.819   2.337   3.664 -0.5499  0.2237 -0.2645
  184MOL     C822334   5.052   2.501   3.675 -0.7824  0.2976 -0.0159
  184MOL     C922335   5.186   2.544   3.722 -1.1594 -0.5092 -0.2920
  184MOL    H1022336   5.059   2.445   3.582  2.2353 -0.8120  0.7985
  184MOL    H1122337   4.995   2.592   3.657 -0.0886  0.6792 -0.2850
  184MOL    H1222338   5.178   2.599   3.816  0.8335  0.8701 -0.8961
  184MOL    H1322339   5.250   2.459   3.744 -3.0912 -1.3567  2.4867
  184MOL    C1422340   5.272   2.630   3.622  0.0680 -0.2375  0.0260
  184MOL    C1522341   5.228   2.777   3.603  0.2473 -0.0627  0.2937
  184MOL    H1622342   5.377   2.624   3.648 -0.1313 -2.3876  0.3682
  184MOL    H1722343   5.260   2.581   3.525 -1.0091 -2.9189  1.4632
  184MOL    H1822344   5.124   2.779   3.571  0.4850 -1.6045 -0.6390
  184MOL    H1922345   5.219   2.830   3.698  1.9163 -0.2983  0.6000
  184MOL    C2022346   5.313   2.854   3.504  0.2954 -0.0700  0.0038
  184MOL    C2122347   5.255   2.991   3.476 -0.0093 -0.5213 -0.2604
  184MOL    H2222348   5.419   2.863   3.525  0.0825  0.7542  0.7315
  184MOL    H2322349   5.291   2.802   3.411  1.7795  0.4928 -0.6840
  184MOL    H2422350   5.148   2.994   3.459 -0.2448  1.6284  1.3228
  184MOL    H2522351   5.276   3.060   3.558 -0.8289  1.3463 -1.5849
  184MOL    C2622352   5.317   3.053   3.347  0.0851 -1.2529  0.2772
  184MOL    C2722353   5.470   3.084   3.367  0.2392 -0.4049  0.0437
  184MOL    H2822354   5.312   2.989   3.259  1.3962 -1.0423  0.0468
  184MOL    H2922355   5.262   3.144   3.321  1.1174 -1.0481 -1.2020
  184MOL    H3022356   5.484   3.118   3.470 -0.3432  0.8289 -0.2773
  184MOL    H3122357   5.535   2.998   3.348  0.9484  0.1916 -0.2584
  184MOL    C3222358   5.529   3.182   3.263  0.0178  0.1303  0.2163
  184MOL    C3322359   5.679   3.215   3.276  0.4550 -0.2268 -0.2996
  184MOL    H3422360   5.514   3.130   3.169 -2.7229 -3.3189  2.4060
  184MOL    H3522361   5.469   3.273   3.274  1.3889  0.8759  1.7556
  184MOL    H3622362   5.673   3.290   3.355  1.9530 -0.2952 -0.1125
  184MOL    H3722363   5.734   3.130   3.316 -0.6587  0.2510  2.4047
  184MOL    C3822364   5.744   3.280   3.152 -0.4971 -0.2748 -0.0071
  184MOL    C3922365   5.898   3.286   3.169 -0.1365 -0.4546 -0.1761
  184MOL    H4022366   5.718   3.211   3.072 -1.6935  1.1750 -0.8899
  184MOL    H4122367   5.709   3.382   3.136  0.4858  0.0929  0.1215
  184MOL    H4222368   5.923   3.326   3.267 -3.4087  0.3077  0.4223
  184MOL    H4322369   5.929   3.182   3.177  0.0168 -0.2880  1.6015
  184MOL    C4422370   5.969   3.345   3.047  0.4649  0.0087  0.2461
  184MOL    C4522371   6.114   3.392   3.085  0.2102 -0.7262  0.8291
  184MOL    H4622372   5.992   3.266   2.975  1.6408 -0.2323  0.8809
  184MOL    H4722373   5.916   3.433   3.011  0.0720 -0.6649 -0.8539
  184MOL    H4822374   6.158   3.323   3.157 -0.2009  2.1795  3.9686
  184MOL    H4922375   6.165   3.383   2.989  0.6812 -0.7498  1.0798
  184MOL    C5022376   6.118   3.544   3.129 -0.3423 -0.0743 -0.3439
  184MOL    C5122377   6.075   3.571   3.276 -0.1368 -0.0354 -0.0847
  184MOL    H5222378   6.223   3.563   3.109 -0.2912 -0.4473 -0.4358
  184MOL    H5322379   6.064   3.606   3.057 -1.4116  0.7073  1.0850
  184MOL    H5422380   5.978   3.526   3.298 -1.0977  2.1507  0.3249
  184MOL    H5522381   6.146   3.519   3.340  1.3923  1.4971 -0.5205
  184MOL    C5622382   6.079   3.721   3.322 -0.1606 -0.4099 -0.1652
  184MOL    C5722383   6.061   3.737   3.469 -0.0199 -0.1073  0.7690
  184MOL    H5822384   6.178   3.754   3.292 -0.1962 -0.3588 -0.2266
  184MOL    H5922385   6.009   3.778   3.261 -2.1784  0.3932  2.7685
  184MOL    H6022386   6.111   3.651   3.515  0.8897  0.7059  1.3100
  184MOL    H6122387   6.122   3.821   3.501 -0.5994  0.9783 -0.9223
  184MOL    C6222388   5.925   3.751   3.524 -0.0624  0.4504 -0.1344
  184MOL    C6322389   5.845   3.616   3.534 -0.1880 -0.4957  0.1396
  184MOL    H6422390   5.935   3.773   3.630 -0.7913 -0.8212  0.2151
  184MOL    H6522391   5.875   3.829   3.466 -3.7957 -1.0857  0.8630
  184MOL    H6622392   5.823   3.583   3.433  0.4154 -0.6248  0.0485
  184MOL    H6722393   5.907   3.538   3.580  0.5190 -0.2469 -0.3818
  184MOL    C6822394   5.716   3.643   3.621  0.5128  0.1257 -0.1840
  184MOL    C6922395   5.604   3.540   3.586  0.5935  0.5825 -0.5680
  184MOL    H7022396   5.742   3.645   3.726  0.7679 -0.7185 -0.2289
  184MOL    H7122397   5.681   3.743   3.593 -1.9134 -0.8927 -1.0236
  184MOL    H7222398   5.513   3.564   3.640  1.4120  1.9213  0.2462
  184MOL    H7322399   5.580   3.546   3.479 -0.8143  0.2171 -0.2762
  184MOL    C7422400   5.644   3.404   3.643 -0.3385 -0.9339 -0.1896
  184MOL    C7522401   5.530   3.308   3.680  0.8312  0.0085  0.0508
  184MOL    H7622402   5.710   3.354   3.573 -0.8868 -0.9012 -0.7379
  184MOL    H7722403   5.697   3.423   3.736 -2.2157  2.6563  0.2284
  184MOL    H7822404   5.474   3.352   3.762 -2.0671  0.0213 -1.8769
  184MOL    H7922405   5.460   3.300   3.597  0.9010  0.4278 -0.0513
  184MOL    C8022406   5.598   3.176   3.725  0.8710 -0.7351  0.2674
  184MOL    C8122407   5.503   3.073   3.791  0.2338 -0.3610  0.4484
  184MOL    H8222408   5.636   3.124   3.637  0.6676  1.2063 -0.9925
  184MOL    H8322409   5.684   3.197   3.788 -0.6150 -0.0556  2.1146
  184MOL    H8422410   5.491   3.102   3.895  0.3548  0.0073  0.3597
  184MOL    H8522411   5.400   3.064   3.755  0.8503  0.0707 -1.5107
  184MOL    C8622412   5.573   2.936   3.793  0.2285  0.2839  0.0409
  184MOL    C8722413   5.505   2.839   3.888 -0.7942  0.3518 -0.2010
  184MOL    H8822414   5.581   2.896   3.692 -0.8563  0.9788 -0.3237
  184MOL    H8922415   5.672   2.950   3.836 -1.0685  1.1107  2.8743
  184MOL    H9022416   5.507   2.896   3.981  1.8516 -0.7451  0.4444
  184MOL    H9122417   5.407   2.809   3.849 -1.2971  0.0735  1.2228
  184MOL    C9222418   5.583   2.711   3.903  0.4171  0.2576 -0.3875
  184MOL    C9322419   5.550   2.623   4.027 -0.4534 -0.1151  0.8471
  184MOL    H9422420   5.573   2.637   3.824 -2.1305 -0.7615  0.8171
  184MOL    H9522421   5.688   2.740   3.906  0.6007 -0.1767 -2.1519
  184MOL    H9622422   5.517   2.685   4.110  2.2739  2.2656  0.2180
  184MOL    H9722423   5.459   2.569   4.001 -0.8983  0.4381  1.2395
  184MOL    C9822424   5.662   2.531   4.055 -0.2019 -0.2649  0.1216
  184MOL    C9922425   5.652   2.444   4.181 -0.6113  0.1526 -1.0398
  184MOL   H10022426   5.689   2.462   3.975 -1.7428 -1.0460  0.2626
  184MOL   H10122427   5.753   2.592   4.054  0.6587 -1.5369  0.2690
  184MOL   H10222428   5.639   2.499   4.274  3.0436 -3.2598  1.6219
  184MOL   H10322429   5.558   2.389   4.170 -0.9165  0.3299  0.6106
  184MOL   C10422430   5.783   2.361   4.182 -0.4560  0.2350 -0.0728
  184MOL   C10522431   5.779   2.249   4.280  0.1495  0.0126 -0.1560
  184MOL   H10622432   5.809   2.328   4.082  0.6111  3.4916 -0.9154
  184MOL   H10722433   5.862   2.434   4.203 -0.1193 -0.5240  1.3648
  184MOL   H10822434   5.885   2.221   4.281  0.0499 -0.3709  0.2133
  184MOL   H10922435   5.754   2.288   4.379 -0.1037 -2.3497  0.7437
  184MOL   C11022436   5.689   2.138   4.249 -0.3751  0.1185 -0.0538
  184MOL   C11122437   5.690   2.025   4.350  0.3565  0.2975  0.3677
  184MOL   H11222438   5.587   2.176   4.253 -0.9529 -1.4967  1.1662
  184MOL   H11322439   5.712   2.108   4.146  0.6595  1.7254 -0.2967
  184MOL   H11422440   5.652   2.056   4.447 -0.0425  0.5887  0.1202
  184MOL   H11522441   5.611   1.954   4.324  1.3562 -0.5967 -0.2502
  184MOL   C11622442   5.833   1.966   4.359  0.2442  0.8537  0.1457
  184MOL   C11722443   5.843   1.855   4.466 -0.2534 -0.3474  0.5389
  184MOL   H11822444   5.851   1.920   4.262 -0.8130  2.0556 -0.6536
  184MOL   H11922445   5.907   2.044   4.377  1.4349 -0.5827  1.5553
  184MOL   H12022446   5.777   1.773   4.439  1.4935 -1.2089 -1.2495
  184MOL   H12122447   5.936   1.801   4.481 -1.5706 -2.8840 -0.1875
  184MOL   H12222448   5.820   1.898   4.563  0.8190 -1.4876  1.2989
  185MOL     C122449   1.436   4.949   4.413  0.1205  0.1486  0.7347
  185MOL     C222450   1.414   4.886   4.551  0.7926 -0.2156 -0.3640
  185MOL     H322451   1.363   5.023   4.380 -0.8769 -0.5806  1.2419
  185MOL     H422452   1.447   4.873   4.336  1.5027 -1.1979  2.2075
  185MOL     H522453   1.310   4.855   4.548 -0.0370  2.5474 -1.5904
  185MOL     H622454   1.461   4.789   4.569  0.5920 -0.3129 -0.3641
  185MOL     H722455   1.529   5.004   4.400  0.5896 -0.7228  0.4003
  185MOL     C822456   1.447   4.986   4.665  0.2244  0.1596  0.9307
  185MOL     C922457   1.436   4.924   4.806  0.3127  0.4093  0.3390
  185MOL    H1022458   1.547   5.028   4.653  0.3419 -0.6207 -0.9791
  185MOL    H1122459   1.377   5.069   4.657 -0.5773 -0.5420  0.5787
  185MOL    H1222460   1.530   4.873   4.830 -0.5484 -0.0299  2.9081
  185MOL    H1322461   1.439   5.006   4.877 -0.2885  0.5962  0.1459
  185MOL    C1422462   1.308   4.840   4.825 -0.2834 -0.0765 -0.3108
  185MOL    C1522463   1.271   4.826   4.975 -0.3045 -0.3859 -0.3938
  185MOL    H1622464   1.229   4.888   4.768 -1.2970 -0.4723  0.7585
  185MOL    H1722465   1.319   4.750   4.765  0.2126  0.6776 -1.3711
  185MOL    H1822466   1.362   4.793   5.025  2.4873  0.4571 -4.5700
  185MOL    H1922467   1.259   4.924   5.021  1.1929 -0.1331 -0.5074
  185MOL    C2022468   1.139   4.749   4.996  0.2468 -0.0870  0.3683
  185MOL    C2122469   1.092   4.759   5.139 -0.4020 -0.4206 -0.1990
  185MOL    H2222470   1.069   4.795   4.926 -1.3461 -1.5690  0.9743
  185MOL    H2322471   1.136   4.648   4.956 -1.0599  0.0876  0.0073
  185MOL    H2422472   1.175   4.751   5.209 -1.2455  1.0410  1.0052
  185MOL    H2522473   1.058   4.861   5.159  3.2348  0.4889  1.6180
  185MOL    C2622474   0.994   4.650   5.194  1.0836  0.5488 -0.2275
  185MOL    C2722475   0.924   4.713   5.310  0.3670  0.3659  0.0630
  185MOL    H2822476   0.924   4.630   5.113  0.8276 -0.2940  0.2059
  185MOL    H2922477   1.037   4.558   5.233 -0.7964 -0.4081 -0.3906
  185MOL    H3022478   0.988   4.736   5.396 -0.0984  0.6392  0.3406
  185MOL    H3122479   0.865   4.799   5.276  2.6557  3.1375  2.7725
  185MOL    C3222480   0.812   4.623   5.360 -0.1437 -0.6198 -0.4154
  185MOL    C3322481   0.730   4.696   5.466  0.2215 -0.1470 -0.6373
  185MOL    H3422482   0.739   4.594   5.285 -0.9290 -1.0145  0.4938
  185MOL    H3522483   0.845   4.529   5.403  1.1010 -0.2075 -0.4279
  185MOL    H3622484   0.796   4.728   5.547 -1.6744 -0.8289  1.2385
  185MOL    H3722485   0.669   4.779   5.433  0.4674  0.3210  0.0707
  185MOL    C3822486   0.624   4.599   5.530  0.1104  0.1767  0.7694
  185MOL    C3922487   0.487   4.610   5.453 -0.2459 -0.6903 -0.0405
  185MOL    H4022488   0.650   4.495   5.511 -1.6075  0.1803 -1.8799
  185MOL    H4122489   0.604   4.615   5.637 -2.5212 -0.3983  0.3918
  185MOL    H4222490   0.497   4.642   5.349 -0.7259 -1.4028 -0.3122
  185MOL    H4322491   0.445   4.510   5.439  0.3357 -0.8883 -0.4144
  185MOL    C4422492   0.391   4.705   5.522  0.4949 -0.2317 -0.5200
  185MOL    C4522493   0.320   4.639   5.641 -0.9712 -0.2251  0.6772
  185MOL    H4622494   0.440   4.797   5.554  0.4506 -0.5037  0.3656
  185MOL    H4722495   0.316   4.731   5.448  0.5087 -0.4635 -0.6160
  185MOL    H4822496   0.253   4.561   5.605  0.0870 -0.9603  0.2743
  185MOL    H4922497   0.389   4.592   5.710 -1.7241 -1.6020  0.5068
  185MOL    C5022498   0.243   4.755   5.712  0.0570  0.0155 -0.4332
  185MOL    C5122499   0.157   4.686   5.818 -0.2212 -0.6325 -0.1542
  185MOL    H5222500   0.305   4.826   5.767  0.4831 -1.5436  1.2003
  185MOL    H5322501   0.180   4.800   5.637  0.8862 -1.5530 -2.1178
  185MOL    H5422502   0.091   4.615   5.768  1.3028 -2.3840  0.2612
  185MOL    H5522503   0.223   4.631   5.885 -0.0147 -2.2823 -1.6589
  185MOL    C5622504   0.064   4.785   5.896  0.3869  0.2662 -0.1536
  185MOL    C5722505   7.645   4.703   5.971  0.0960 -0.5904 -0.2937
  185MOL    H5822506   0.112   4.858   5.961 -1.4220  0.1321  1.3875
  185MOL    H5922507   0.016   4.854   5.827 -1.4917 -0.8790 -0.0274
  185MOL    H6022508   7.590   4.655   5.890  2.0565 -1.4607 -1.1470
  185MOL    H6122509   7.681   4.621   6.033 -0.8055 -2.4387 -2.1642
  185MOL    C6222510   7.563   4.797   6.069 -0.1547  0.7279  0.1998
  185MOL    C6322511   7.631   4.802   6.208 -0.1423  0.4362 -0.6211
  185MOL    H6422512   7.561   4.898   6.026  1.4432  1.9543  2.8919
  185MOL    H6522513   7.464   4.759   6.093 -0.2916 -0.7619 -2.5238
  185MOL    H6622514   7.612   4.699   6.239  1.1966 -0.0536 -1.3835
  185MOL    H6722515   0.046   4.817   6.203 -0.1289  0.2218 -1.0206
  185MOL    C6822516   7.558   4.896   6.303 -0.5863  0.3323  0.5811
  185MOL    C6922517   7.619   4.911   6.448  0.5301 -0.0845  0.3261
  185MOL    H7022518   7.572   4.996   6.261 -0.5994 -0.2664 -0.8908
  185MOL    H7122519   7.453   4.872   6.290 -0.1327 -0.6758 -1.6291
  185MOL    H7222520   7.579   4.992   6.509  1.3227  1.3663 -1.0422
  185MOL    H7322521   7.587   4.820   6.499 -1.0850  0.4642  0.3200
  185MOL    C7422522   0.076   4.942   6.443  0.3263 -1.0471  0.1967
  185MOL    C7522523   0.135   4.976   6.581  0.1941  0.2168  0.0269
  185MOL    H7622524   0.133   4.859   6.402  0.8998 -0.1462 -0.8702
  185MOL    H7722525   0.086   5.023   6.371 -0.6497 -1.5102 -0.4746
  185MOL    H7822526   0.070   5.049   6.630  0.1719 -0.5655  1.1657
  185MOL    H7922527   0.129   4.885   6.640 -2.4654  0.4825  0.2197
  185MOL    C8022528   0.270   5.049   6.571  0.7621  0.2745 -0.4283
  185MOL    C8122529   0.334   5.101   6.700 -0.1673 -0.6534  0.3127
  185MOL    H8222530   0.338   4.985   6.514  0.2193 -1.2314  0.5732
  185MOL    H8322531   0.250   5.136   6.509  2.8073  1.0010 -0.1204
  185MOL    H8422532   0.279   5.188   6.737  0.2312 -0.2344 -0.0769
  185MOL    H8522533   0.355   5.025   6.774  0.4752  2.0378  3.0002
  185MOL    C8622534   0.477   5.165   6.658 -0.7017 -0.2182 -0.0591
  185MOL    C8722535   0.547   5.243   6.775 -0.0695 -0.2758 -1.1940
  185MOL    H8822536   0.547   5.095   6.611  0.6508  0.4065  0.9907
  185MOL    H8922537   0.460   5.230   6.572 -1.1226 -1.8616 -1.2320
  185MOL    H9022538   0.477   5.318   6.810 -0.1062  0.2587 -2.4021
  185MOL    H9122539   0.570   5.175   6.857  1.3039 -0.4375 -1.6857
  185MOL    C9222540   0.671   5.308   6.721  0.1795  0.2357  0.4117
  185MOL    C9322541   0.759   5.370   6.832  0.2319  0.2016 -0.2739
  185MOL    H9422542   0.728   5.237   6.662 -0.1352  2.1423 -2.2971
  185MOL    H9522543   0.650   5.385   6.647  0.3551 -0.7637 -0.6938
  185MOL    H9622544   0.710   5.442   6.898  0.7373  0.4153 -0.1277
  185MOL    H9722545   0.811   5.297   6.894  1.7481 -0.5996 -2.4211
  185MOL    C9822546   0.880   5.453   6.778 -0.4186  0.0626  0.6170
  185MOL    C9922547   0.990   5.478   6.886 -0.3906 -0.6994  1.3843
  185MOL   H10022548   0.920   5.394   6.696 -2.2553 -1.4361  0.7502
  185MOL   H10122549   0.831   5.546   6.750  0.6863  0.5622  0.3481
  185MOL   H10222550   0.938   5.532   6.965 -3.0675 -0.9503 -0.1181
  185MOL   H10322551   1.025   5.384   6.928  0.8078 -0.0597  1.8578
  185MOL   C10422552   1.112   5.555   6.825  0.4737  0.1042  0.2183
  185MOL   C10522553   1.194   5.633   6.920 -0.1545  0.2310  0.2959
  185MOL   H10622554   1.177   5.483   6.776 -0.0457  0.6641 -1.3255
  185MOL   H10722555   1.080   5.628   6.750  0.1938 -1.2820 -1.0366
  185MOL   H10822556   1.147   5.723   6.959  0.5189  0.7291 -0.0454
  185MOL   H10922557   1.208   5.582   7.016 -1.9321 -2.8106 -0.9876
  185MOL   C11022558   1.330   5.683   6.863  0.5735 -0.0573  0.7871
  185MOL   C11122559   1.417   5.756   6.967  0.0426  0.0605  0.8790
  185MOL   H11222560   1.395   5.606   6.822  3.0522  1.6235  1.4760
  185MOL   H11322561   1.315   5.759   6.786  1.0933 -1.7739 -1.0523
  185MOL   H11422562   1.353   5.817   7.032  1.9303  0.4959  2.3785
  185MOL   H11522563   1.467   5.682   7.029  0.9527 -2.7407 -3.0482
  185MOL   C11622564   1.516   5.853   6.899  0.3226  0.6653 -1.0191
  185MOL   C11722565   1.611   5.924   6.997  0.2620 -0.6807 -0.0921
  185MOL   H11822566   1.573   5.787   6.833  0.8246 -1.2241  1.2210
  185MOL   H11922567   1.469   5.934   6.843 -0.4501  1.2940  0.5199
  185MOL   H12022568   1.679   5.865   7.058 -1.2775  0.5580  2.9328
  185MOL   H12122569   1.674   5.996   6.944  0.8142 -0.3863  0.9487
  185MOL   H12222570   1.559   5.992   7.065 -1.6631 -1.4828 -0.7446
  186MOL     C122571   7.053   6.231   2.459 -0.1456  0.2812 -0.4315
  186MOL     C222572   6.910   6.184   2.447 -0.1410 -0.0827 -0.5884
  186MOL     H322573   7.110   6.216   2.367 -2.4164  0.3191 -1.8843
  186MOL     H422574   7.100   6.165   2.533  0.3114  1.2568  0.1504
  186MOL     H522575   6.869   6.236   2.360  0.7887  0.5618 -0.6441
  186MOL     H622576   6.898   6.078   2.428  2.2821 -0.4591 -0.0807
  186MOL     H722577   7.074   6.329   2.501  0.2879  0.5994 -1.3818
  186MOL     C822578   6.825   6.221   2.573  0.5211 -0.2148 -0.7276
  186MOL     C922579   6.683   6.193   2.553 -0.5157 -0.2140  0.2790
  186MOL    H1022580   6.858   6.157   2.655 -0.2632  1.4268  0.9061
  186MOL    H1122581   6.828   6.327   2.600 -0.8153 -0.4574  0.4609
  186MOL    H1222582   6.633   6.225   2.644 -1.5438 -1.2127  0.0821
  186MOL    H1322583   6.647   6.259   2.474 -0.4658 -2.2698 -1.4847
  186MOL    C1422584   6.651   6.046   2.525 -0.2569 -0.1262  0.0413
  186MOL    C1522585   6.503   6.019   2.508 -0.0396 -0.5312 -0.3282
  186MOL    H1622586   6.703   6.011   2.436  0.9897  0.8639  0.3684
  186MOL    H1722587   6.687   5.992   2.613  0.5868 -0.2514 -0.3821
  186MOL    H1822588   6.458   6.055   2.600  2.8825  0.3784  0.8020
  186MOL    H1922589   6.460   6.083   2.431 -0.2652  0.3606  0.5246
  186MOL    C2022590   6.455   5.878   2.482 -0.3388 -0.3672 -0.1307
  186MOL    C2122591   6.303   5.865   2.506 -0.3470 -1.3311  0.5149
  186MOL    H2222592   6.498   5.846   2.387  1.0126 -0.6796  0.5747
  186MOL    H2322593   6.507   5.809   2.548 -1.6922 -2.1495 -0.8853
  186MOL    H2422594   6.281   5.888   2.611  1.2639 -3.4591  1.3645
  186MOL    H2522595   6.245   5.942   2.456 -0.2415 -0.7149  1.3128
  186MOL    C2622596   6.256   5.727   2.481 -0.6725  0.9300 -0.7006
  186MOL    C2722597   6.104   5.697   2.512 -0.2679  0.0729  0.0961
  186MOL    H2822598   6.284   5.691   2.382 -0.2976 -0.0912 -0.2317
  186MOL    H2922599   6.324   5.681   2.553 -2.9846  1.4309  1.8791
  186MOL    H3022600   6.090   5.722   2.617  2.2467  1.9913  0.0391
  186MOL    H3122601   6.040   5.766   2.457  0.5566  0.0239 -0.9417
  186MOL    C3222602   6.061   5.562   2.470 -0.0135 -0.0727  0.0664
  186MOL    C3322603   5.922   5.538   2.526 -0.3391  0.4047  0.0402
  186MOL    H3422604   6.069   5.557   2.362  1.5095 -0.8148  0.2008
  186MOL    H3522605   6.114   5.475   2.509 -2.9859 -1.5590  0.9741
  186MOL    H3622606   5.926   5.494   2.626 -2.0051 -0.2368 -0.1468
  186MOL    H3722607   5.870   5.633   2.533 -0.2928  0.3633  1.0485
  186MOL    C3822608   5.833   5.442   2.440  0.0054 -0.7981 -0.2249
  186MOL    C3922609   5.689   5.434   2.483 -0.0689 -0.7950 -0.4889
  186MOL    H4022610   5.823   5.482   2.339  0.4241  0.2205  0.1279
  186MOL    H4122611   5.877   5.342   2.432 -0.1237 -0.9127  0.4528
  186MOL    H4222612   5.669   5.415   2.589  0.7858 -1.0153 -0.3619
  186MOL    H4322613   5.650   5.535   2.474  2.0830 -0.0328 -1.5762
  186MOL    C4422614   5.611   5.337   2.388  0.1163 -1.0320  0.6323
  186MOL    C4522615   5.587   5.380   2.245  0.6872  0.2445  0.4632
  186MOL    H4622616   5.669   5.245   2.385 -0.8521 -1.6147 -1.7894
  186MOL    H4722617   5.512   5.321   2.429  0.6215 -1.1705  1.8074
  186MOL    H4822618   5.680   5.368   2.190 -0.7986 -0.4017 -2.0044
  186MOL    H4922619   5.527   5.296   2.210  1.2803  0.1591 -0.3554
  186MOL    C5022620   5.515   5.521   2.238  0.0071  0.3449  0.0706
  186MOL    C5122621   5.441   5.537   2.103 -0.6032 -0.0402 -0.0478
  186MOL    H5222622   5.444   5.517   2.320 -0.4584  0.5694 -0.3162
  186MOL    H5322623   5.581   5.606   2.255 -0.0883  0.3842  0.2443
  186MOL    H5422624   5.511   5.568   2.025 -2.3193 -0.9283 -1.9809
  186MOL    H5522625   5.394   5.444   2.071 -2.5973  1.3264 -1.2290
  186MOL    C5622626   5.332   5.644   2.098  0.2526  0.2557 -0.7454
  186MOL    C5722627   5.276   5.666   1.957 -0.4897 -0.0866  0.1144
  186MOL    H5822628   5.244   5.616   2.156  0.4127 -2.0072 -1.5518
  186MOL    H5922629   5.370   5.740   2.133  1.1491 -0.2429 -0.3441
  186MOL    H6022630   5.363   5.684   1.894  0.7775  0.4913  1.9624
  186MOL    H6122631   5.235   5.569   1.930  0.5178 -0.2486 -0.9008
  186MOL    C6222632   5.171   5.775   1.936  0.7539  0.1896 -0.2401
  186MOL    C6322633   5.036   5.735   1.993  0.8719 -0.3553  0.0057
  186MOL    H6422634   5.199   5.876   1.967  2.6489 -0.7387  1.2173
  186MOL    H6522635   5.166   5.782   1.827 -1.6698  1.5739 -0.0779
  186MOL    H6622636   5.041   5.746   2.101 -1.1697  1.1212 -0.0285
  186MOL    H6722637   4.957   5.808   1.977 -1.6828 -2.8208  1.0665
  186MOL    C6822638   4.980   5.603   1.944 -0.0317 -0.3529 -0.7592
  186MOL    C6922639   4.833   5.586   1.988  0.5608  0.3831  0.5915
  186MOL    H7022640   4.993   5.595   1.836 -0.6560 -1.0066 -0.7904
  186MOL    H7122641   5.038   5.523   1.990  1.5009  1.5016  0.6211
  186MOL    H7222642   4.765   5.668   1.969 -1.8311 -2.0525 -1.8825
  186MOL    H7322643   4.792   5.498   1.938  0.4839 -0.8170  2.6937
  186MOL    C7422644   4.820   5.542   2.134 -0.2203 -0.1374  0.3557
  186MOL    C7522645   4.680   5.513   2.183  0.3275  0.4171  1.1287
  186MOL    H7622646   4.876   5.449   2.144  1.8439  0.8415 -1.7221
  186MOL    H7722647   4.876   5.602   2.206  0.6517 -1.8821  1.1846
  186MOL    H7822648   4.650   5.422   2.131  2.1277 -0.2808  1.2684
  186MOL    H7922649   4.697   5.471   2.282  2.6517 -2.5530 -0.4201
  186MOL    C8022650   4.580   5.629   2.178  0.7837 -0.1061  0.2096
  186MOL    C8122651   4.622   5.756   2.254 -0.5765 -0.0557  0.4104
  186MOL    H8222652   4.552   5.660   2.078  0.9493  1.1075  0.5309
  186MOL    H8322653   4.486   5.598   2.226 -0.0639  2.5084  0.3201
  186MOL    H8422654   4.647   5.727   2.356  0.7914  3.7060  1.2278
  186MOL    H8522655   4.713   5.793   2.208 -0.7740 -0.1815 -0.0830
  186MOL    C8622656   4.507   5.860   2.260 -0.4221  0.4085 -0.4450
  186MOL    C8722657   4.549   5.998   2.277  0.1262  0.0666  0.1168
  186MOL    H8822658   4.445   5.847   2.172 -1.8286 -1.7144  0.7979
  186MOL    H8922659   4.438   5.826   2.338  0.5682 -2.7118 -0.8326
  186MOL    H9022660   4.479   6.059   2.334 -2.0849 -3.1983  1.0902
  186MOL    H9122661   4.635   6.001   2.343  1.9857  2.7083 -2.3264
  186MOL    C9222662   4.580   6.069   2.143  0.4061 -0.0235 -0.3089
  186MOL    C9322663   4.669   6.189   2.153 -0.3576 -0.0104 -0.2433
  186MOL    H9422664   4.631   5.997   2.080  0.0427 -0.2466 -0.3521
  186MOL    H9522665   4.486   6.090   2.090  0.1687 -0.5407 -0.0947
  186MOL    H9622666   4.621   6.272   2.204  1.2749  0.0954  1.1707
  186MOL    H9722667   4.751   6.152   2.215 -0.7524  1.0133  0.9163
  186MOL    C9822668   4.727   6.231   2.021  0.4344  1.0106 -0.1219
  186MOL    C9922669   4.648   6.352   1.959  0.8304 -0.0608  0.1478
  186MOL   H10022670   4.832   6.259   2.031  1.2727 -0.6971 -3.3138
  186MOL   H10122671   4.735   6.159   1.939  1.0460 -0.0999  0.9047
  186MOL   H10222672   4.635   6.421   2.042  0.6141 -0.4385  0.4279
  186MOL   H10322673   4.699   6.412   1.883  1.9252  0.1744  1.0568
  186MOL   C10422674   4.504   6.336   1.909  0.3412 -1.1229  0.7568
  186MOL   C10522675   4.487   6.241   1.789 -0.3521 -0.1879  0.2700
  186MOL   H10622676   4.438   6.309   1.991 -0.2313 -0.4153  0.5364
  186MOL   H10722677   4.464   6.435   1.888 -0.5366 -1.4141  1.0278
  186MOL   H10822678   4.543   6.283   1.706  1.2408 -0.1586  1.3467
  186MOL   H10922679   4.530   6.145   1.816 -1.8611 -0.4945  1.6648
  186MOL   C11022680   4.335   6.215   1.751  0.1651  0.8158  0.0403
  186MOL   C11122681   4.260   6.342   1.703 -0.0718  0.2669  0.3928
  186MOL   H11222682   4.325   6.140   1.673 -0.6735 -0.4977  1.3921
  186MOL   H11322683   4.278   6.169   1.830  0.0148 -1.4083 -1.3360
  186MOL   H11422684   4.266   6.416   1.782  0.2769  1.2449 -0.5463
  186MOL   H11522685   4.301   6.376   1.608 -0.2422  0.5782  0.4304
  186MOL   C11622686   4.106   6.317   1.676  0.3043 -0.1181 -0.3776
  186MOL   C11722687   4.017   6.310   1.805 -0.1169  0.2560  0.7619
  186MOL   H11822688   4.067   6.388   1.603 -0.7708 -2.4922 -2.2207
  186MOL   H11922689   4.100   6.227   1.614 -0.0342  1.0637 -2.1217
  186MOL   H12022690   3.980   6.408   1.836  1.5142  1.4177 -0.9190
  186MOL   H12122691   3.933   6.245   1.781  0.0204  0.8185 -1.2761
  186MOL   H12222692   4.066   6.266   1.892 -2.4499 -0.8509  1.5538
  187MOL     C122693   7.187   5.935   2.349 -0.5646 -0.3020 -0.0176
  187MOL     C222694   7.124   5.797   2.326  0.0139 -0.4569 -0.0304
  187MOL     H322695   7.126   6.006   2.294  0.3705  2.0213  1.8764
  187MOL     H422696   7.294   5.933   2.327 -0.4988  0.9919  0.1546
  187MOL     H522697   7.143   5.775   2.221  0.8651 -0.2863  0.0905
  187MOL     H622698   7.180   5.725   2.386  1.2269  1.1002  0.7211
  187MOL     H722699   7.184   5.954   2.456 -1.4608 -2.1206  0.3135
  187MOL     C822700   6.973   5.787   2.376 -0.2354  0.4066 -0.0690
  187MOL     C922701   6.897   5.658   2.345 -0.1429 -0.1777  0.3032
  187MOL    H1022702   6.965   5.801   2.484 -3.8296  1.6205 -0.4223
  187MOL    H1122703   6.929   5.869   2.319  0.2004  0.2290 -0.6690
  187MOL    H1222704   6.899   5.635   2.238 -0.2648  1.0009  0.0389
  187MOL    H1322705   6.954   5.576   2.388  0.8827 -0.2034 -1.0470
  187MOL    C1422706   6.765   5.642   2.414 -0.0059  0.3092  0.2024
  187MOL    C1522707   6.704   5.504   2.367 -0.5425  0.2059 -0.3390
  187MOL    H1622708   6.765   5.665   2.520 -1.4320 -1.1697  0.5361
  187MOL    H1722709   6.708   5.724   2.369  3.0571  1.9535 -0.8529
  187MOL    H1822710   6.703   5.505   2.258  1.4224 -3.1072 -0.4409
  187MOL    H1922711   6.765   5.423   2.406  0.3236  0.6427 -0.7683
  187MOL    C2022712   6.565   5.482   2.430 -0.2364  0.0654  0.1573
  187MOL    C2122713   6.503   5.342   2.409 -0.1902  0.1641  0.3471
  187MOL    H2222714   6.591   5.510   2.532  0.2958 -1.3787  0.4304
  187MOL    H2322715   6.492   5.557   2.399 -0.5890 -0.9877 -1.6619
  187MOL    H2422716   6.515   5.328   2.301  0.0550  0.5491  0.3221
  187MOL    H2522717   6.551   5.266   2.471 -1.5333 -0.1482  1.0146
  187MOL    C2622718   6.353   5.331   2.444 -0.0935 -0.2639  0.6632
  187MOL    C2722719   6.302   5.193   2.418 -0.1425  0.2749  0.0939
  187MOL    H2822720   6.343   5.362   2.548 -0.9171 -0.8322  0.7562
  187MOL    H2922721   6.305   5.402   2.377  1.1477  0.8103  0.8870
  187MOL    H3022722   6.314   5.167   2.313  3.0801 -1.4897  0.8425
  187MOL    H3122723   6.350   5.115   2.476 -0.2654  0.3384  0.2844
  187MOL    C3222724   6.148   5.189   2.454  0.4935  0.2290 -0.0336
  187MOL    C3322725   6.087   5.046   2.450 -0.0915 -0.0328 -0.1873
  187MOL    H3422726   6.132   5.231   2.553 -1.1501  0.7107 -0.4927
  187MOL    H3522727   6.090   5.256   2.391  1.1558  4.5379  3.6998
  187MOL    H3622728   6.096   5.000   2.351  0.4215 -0.6481  0.1475
  187MOL    H3722729   6.136   4.974   2.515 -0.4031  0.4660  0.5996
  187MOL    C3822730   5.939   5.051   2.487  0.3242  0.0215  0.6142
  187MOL    C3922731   5.883   4.915   2.518  0.2214  0.0463 -0.2250
  187MOL    H4022732   5.931   5.102   2.583 -1.2451  0.6390  0.1716
  187MOL    H4122733   5.881   5.110   2.417 -0.0738 -0.6540  0.3715
  187MOL    H4222734   5.869   4.865   2.422 -0.8958  0.0571 -0.0775
  187MOL    H4322735   5.950   4.857   2.581 -0.7852  0.0584  0.8812
  187MOL    C4422736   5.742   4.922   2.577  0.0252 -0.1021  0.2304
  187MOL    C4522737   5.678   4.788   2.598  0.3403  0.4320 -0.2256
  187MOL    H4622738   5.749   4.967   2.676 -1.6638  0.9349 -0.1034
  187MOL    H4722739   5.679   4.997   2.528  0.5557  0.0095 -0.2930
  187MOL    H4822740   5.686   4.730   2.506 -1.8134 -1.2642  0.5887
  187MOL    H4922741   5.744   4.742   2.671 -0.5800 -0.5602  0.0020
  187MOL    C5022742   5.534   4.806   2.652 -0.3347 -0.7384  0.0670
  187MOL    C5122743   5.443   4.680   2.647 -0.0026  0.3655  0.3268
  187MOL    H5222744   5.535   4.841   2.756  1.5508  2.1598 -0.8784
  187MOL    H5322745   5.478   4.873   2.587  0.6924  0.1489  0.0988
  187MOL    H5422746   5.429   4.660   2.541 -0.0286  1.6159  0.0834
  187MOL    H5522747   5.505   4.597   2.681 -1.3711 -0.1487  1.6172
  187MOL    C5622748   5.312   4.695   2.725  0.0362  0.3216 -0.9007
  187MOL    C5722749   5.248   4.559   2.750  0.4200  0.2500 -0.7614
  187MOL    H5822750   5.315   4.751   2.818  2.4025 -1.1271 -0.0831
  187MOL    H5922751   5.239   4.745   2.660 -0.9764 -1.4967 -1.1846
  187MOL    H6022752   5.224   4.523   2.650  0.5039  1.4368 -1.2194
  187MOL    H6122753   5.317   4.494   2.804 -0.1717 -0.8477 -1.2910
  187MOL    C6222754   5.117   4.571   2.831  0.9124 -0.3151  0.4450
  187MOL    C6322755   5.061   4.435   2.884  0.3040  0.1425  0.2489
  187MOL    H6422756   5.132   4.644   2.911  2.8564  1.1341 -1.1743
  187MOL    H6522757   5.042   4.608   2.761 -1.3103 -1.4628  2.1499
  187MOL    H6622758   5.052   4.364   2.802 -2.7107  1.2089 -0.4094
  187MOL    H6722759   5.122   4.384   2.959 -1.2088 -0.0374  1.3847
  187MOL    C6822760   4.930   4.460   2.953 -0.0215  0.2565  0.5499
  187MOL    C6922761   4.855   4.332   2.982 -0.3844  0.3793  1.0355
  187MOL    H7022762   4.941   4.515   3.046 -3.3335  3.2637 -0.7052
  187MOL    H7122763   4.860   4.515   2.890  0.6678 -2.2512 -2.5305
  187MOL    H7222764   4.849   4.262   2.898  3.9957  0.6664  0.3624
  187MOL    H7322765   4.915   4.285   3.059 -0.3312  1.8232  1.9032
  187MOL    C7422766   4.714   4.366   3.027 -0.2407  0.3591  0.3882
  187MOL    C7522767   4.636   4.262   3.108 -0.0378  0.1212 -0.3239
  187MOL    H7622768   4.693   4.464   3.068 -1.5625  0.1340  0.2792
  187MOL    H7722769   4.678   4.371   2.924  1.6363 -0.6179 -0.3469
  187MOL    H7822770   4.625   4.174   3.046  1.1731  0.5717 -1.2025
  187MOL    H7922771   4.691   4.237   3.199 -0.3074 -0.2816 -0.2726
  187MOL    C8022772   4.496   4.307   3.150  0.5297 -0.7354 -0.0082
  187MOL    C8122773   4.377   4.294   3.051 -0.0312 -0.2435  0.0828
  187MOL    H8222774   4.480   4.247   3.240  0.2813 -1.5783 -0.6079
  187MOL    H8322775   4.503   4.409   3.187  2.8071 -0.9335  0.2197
  187MOL    H8422776   4.391   4.343   2.955 -1.4990  0.2571  0.1049
  187MOL    H8522777   4.365   4.188   3.030  0.7033 -0.2526 -0.2949
  187MOL    C8622778   4.247   4.354   3.106 -0.4876 -0.0219  0.0992
  187MOL    C8722779   4.182   4.283   3.229  0.3876  0.1710  0.0245
  187MOL    H8822780   4.257   4.458   3.135 -1.0911  0.4408 -1.3430
  187MOL    H8922781   4.176   4.347   3.025 -0.9123 -1.1101  0.5501
  187MOL    H9022782   4.194   4.177   3.207  0.5443 -0.0947  1.3478
  187MOL    H9122783   4.236   4.296   3.323 -1.0557  3.0891  0.4927
  187MOL    C9222784   4.039   4.319   3.255  0.0054 -0.4344  1.1126
  187MOL    C9322785   3.975   4.255   3.387 -0.4854 -0.1191 -0.3206
  187MOL    H9422786   4.029   4.427   3.261  0.1433 -0.3254 -0.3582
  187MOL    H9522787   3.959   4.311   3.182  0.0408 -0.7333  1.1049
  187MOL    H9622788   3.869   4.282   3.377 -0.5509 -0.0757  0.4316
  187MOL    H9722789   3.983   4.147   3.378  0.0823 -0.1726  0.7638
  187MOL    C9822790   4.021   4.322   3.518  0.1007  0.0234 -0.1368
  187MOL    C9922791   3.964   4.257   3.639  0.5253 -0.7735  0.4288
  187MOL   H10022792   4.129   4.309   3.526  0.2244  0.2156 -1.3753
  187MOL   H10122793   3.994   4.428   3.518  0.0544  0.0458 -2.4602
  187MOL   H10222794   3.855   4.262   3.628  0.5480 -1.7177 -0.3370
  187MOL   H10322795   3.992   4.152   3.645  1.7492 -0.3606  2.4843
  187MOL   C10422796   4.013   4.317   3.775  0.0843 -0.8374  0.2403
  187MOL   C10522797   3.973   4.225   3.889  0.1230  0.1243 -0.2786
  187MOL   H10622798   4.120   4.335   3.780 -0.3319  1.8864 -0.1197
  187MOL   H10722799   3.963   4.414   3.782 -2.9368 -2.1241 -1.9072
  187MOL   H10822800   3.869   4.194   3.878  0.4909 -0.4782 -2.2828
  187MOL   H10922801   4.026   4.131   3.873 -0.1221  0.4034 -2.9639
  187MOL   C11022802   4.007   4.286   4.027  0.1571 -0.5544  0.8283
  187MOL   C11122803   3.968   4.204   4.148 -0.7697 -0.2391  0.4423
  187MOL   H11222804   4.115   4.302   4.026  0.0080  0.6057 -1.4350
  187MOL   H11322805   3.956   4.382   4.034 -1.0517 -1.1044 -0.3296
  187MOL   H11422806   3.859   4.194   4.157 -0.7949 -0.7641 -0.4578
  187MOL   H11522807   4.014   4.105   4.154 -0.4814 -0.2082 -1.2576
  187MOL   C11622808   3.998   4.273   4.285  0.1617 -0.3343  0.3067
  187MOL   C11722809   3.935   4.205   4.408 -1.2240 -0.9163 -0.7174
  187MOL   H11822810   4.107   4.276   4.290  0.2297  0.9072 -1.2932
  187MOL   H11922811   3.970   4.378   4.277 -1.1875 -0.6947  0.2724
  187MOL   H12022812   3.826   4.209   4.413 -1.1953 -1.9306  1.1071
  187MOL   H12122813   3.971   4.104   4.427 -0.6804 -0.6255 -0.1947
  187MOL   H12222814   3.974   4.257   4.496  4.0420 -1.3085 -2.6446
  188MOL     C122815   0.431   0.311   0.998 -1.2857  0.0992  0.0970
  188MOL     C222816   0.294   0.367   0.953 -0.5723 -0.0247  0.5099
  188MOL     H322817   0.499   0.304   0.913 -0.5824 -1.3684  0.7750
  188MOL     H422818   0.422   0.218   1.054  0.9084  0.1730  0.6149
  188MOL     H522819   0.230   0.380   1.040 -0.1563  0.0003  0.8167
  188MOL     H622820   0.316   0.468   0.917  0.8605 -0.6078 -0.2938
  188MOL     H722821   0.470   0.390   1.063 -0.6572 -1.0808  1.1769
  188MOL     C822822   0.226   0.288   0.840 -0.0338 -0.4616  0.1542
  188MOL     C922823   0.090   0.351   0.807 -0.4955 -0.2761  0.1024
  188MOL    H1022824   0.296   0.284   0.756 -0.7760 -1.6418 -0.4245
  188MOL    H1122825   0.208   0.183   0.865  0.4766 -0.8742 -1.1867
  188MOL    H1222826   0.026   0.362   0.894 -0.2517  2.5848 -0.0515
  188MOL    H1322827   0.099   0.451   0.765 -0.1007 -0.9036 -1.3526
  188MOL    C1422828   0.015   0.252   0.714  0.1293 -0.0852  0.1030
  188MOL    C1522829   7.633   0.129   0.777 -0.3717 -0.6518  0.6243
  188MOL    H1622830   7.628   0.310   0.666  0.3066  0.4583  0.4604
  188MOL    H1722831   0.079   0.214   0.634 -0.7528 -0.4711 -0.4303
  188MOL    H1822832   0.013   0.053   0.807 -1.7331 -1.1909  2.6192
  188MOL    H1922833   7.582   0.155   0.870  0.4331  0.8151  0.6689
  188MOL    C2022834   7.543   0.058   0.670  0.1528 -0.3189 -0.4691
  188MOL    C2122835   7.456   7.639   0.724 -0.5409  0.4174 -0.0317
  188MOL    H2222836   7.483   0.138   0.627  0.6747 -0.7607 -2.0366
  188MOL    H2322837   7.609   0.032   0.588  0.9812  1.9126 -0.5400
  188MOL    H2422838   7.527   7.566   0.762 -2.3313 -0.1472  2.3418
  188MOL    H2522839   7.402   7.678   0.811 -0.5898  0.7237 -0.1965
  188MOL    C2622840   7.352   7.583   0.619 -0.2872  0.3289  1.1863
  188MOL    C2722841   7.280   7.453   0.659  0.3825 -0.1124  0.6672
  188MOL    H2822842   7.276   7.660   0.603 -1.1666 -0.2141  2.5762
  188MOL    H2922843   7.412   7.558   0.533 -1.7460 -2.2559  0.8659
  188MOL    H3022844   7.344   7.370   0.688  0.2339  0.4933  2.8344
  188MOL    H3122845   7.223   7.465   0.752 -0.3956  0.9731  0.0601
  188MOL    C3222846   7.179   7.409   0.549  0.8084  0.3028  0.1335
  188MOL    C3322847   7.103   7.281   0.569  0.4416  0.4443  0.1691
  188MOL    H3422848   7.103   7.487   0.553 -0.1575 -0.6568  0.7735
  188MOL    H3522849   7.229   7.417   0.453  2.0760 -3.3792  0.4067
  188MOL    H3622850   7.165   7.198   0.534 -0.3743  0.0748 -0.4403
  188MOL    H3722851   7.077   7.267   0.674  2.3865 -2.1762  0.3659
  188MOL    C3822852   6.984   7.270   0.472 -0.1194  0.7979  0.4648
  188MOL    C3922853   6.904   7.151   0.521 -0.1816 -0.1896  0.5031
  188MOL    H4022854   6.923   7.359   0.487 -4.3762 -2.0227  0.6523
  188MOL    H4122855   7.001   7.262   0.365  0.7942  1.1278  0.5792
  188MOL    H4222856   6.969   7.064   0.513  0.8266  0.8017 -2.4915
  188MOL    H4322857   6.882   7.164   0.628 -0.1453 -1.4601  0.6771
  188MOL    C4422858   6.778   7.121   0.439 -0.3077  0.4558  0.4350
  188MOL    C4522859   6.700   6.996   0.480 -0.1340 -0.2304  0.2674
  188MOL    H4622860   6.712   7.207   0.443 -0.9353 -0.0967  2.3016
  188MOL    H4722861   6.813   7.112   0.336  2.1332  0.5305  1.2213
  188MOL    H4822862   6.767   6.910   0.488  0.5073  0.2361 -0.0739
  188MOL    H4922863   6.668   7.011   0.583  1.1753  0.2017  0.6220
  188MOL    C5022864   6.584   6.968   0.380  0.3769 -0.4407 -0.0015
  188MOL    C5122865   6.491   6.855   0.412 -0.3219  0.7014  0.2118
  188MOL    H5222866   6.520   7.056   0.372  2.3844  1.3113  2.5605
  188MOL    H5322867   6.625   6.947   0.281 -1.1060  2.2383 -1.2457
  188MOL    H5422868   6.440   6.833   0.318  2.6301 -2.2928 -0.7769
  188MOL    H5522869   6.551   6.764   0.418  1.4706  1.5987 -2.8672
  188MOL    C5622870   6.397   6.887   0.531 -0.6260 -0.0225 -0.1514
  188MOL    C5722871   6.347   6.754   0.591  0.2114  0.5832 -0.0207
  188MOL    H5822872   6.450   6.939   0.611 -2.1527 -1.7166  2.0280
  188MOL    H5922873   6.309   6.946   0.507 -2.9731 -2.7158  1.5351
  188MOL    H6022874   6.279   6.704   0.521 -1.6539  0.0470  2.0821
  188MOL    H6122875   6.431   6.688   0.611 -0.4556 -0.7256 -1.4273
  188MOL    C6222876   6.258   6.766   0.717 -0.0391 -0.2379 -0.0491
  188MOL    C6322877   6.324   6.805   0.847 -0.8128 -0.0003  0.1974
  188MOL    H6422878   6.176   6.837   0.700 -0.2082 -0.3584  0.2538
  188MOL    H6522879   6.219   6.667   0.738  2.7589 -1.5508 -0.8903
  188MOL    H6622880   6.399   6.728   0.865  0.0133  0.5529 -0.7641
  188MOL    H6722881   6.363   6.907   0.841 -0.0661 -0.2842  0.1078
  188MOL    C6822882   6.224   6.813   0.963  0.1148 -0.1804 -0.6558
  188MOL    C6922883   6.298   6.841   1.090 -0.4078  0.4226  0.2084
  188MOL    H7022884   6.156   6.898   0.962 -1.2852 -1.2718 -0.1774
  188MOL    H7122885   6.158   6.726   0.965  0.8337 -0.7211  0.9382
  188MOL    H7222886   6.334   6.944   1.084 -0.1562  0.2303 -1.6783
  188MOL    H7322887   6.223   6.839   1.169 -0.8347  0.4952 -0.1949
  188MOL    C7422888   6.410   6.736   1.137  0.3446  0.5506 -1.0095
  188MOL    C7522889   6.461   6.773   1.282 -0.5479  0.2041  0.0483
  188MOL    H7622890   6.381   6.631   1.136 -0.6848  0.8277 -0.7797
  188MOL    H7722891   6.494   6.737   1.068 -0.4760 -0.6261 -2.0400
  188MOL    H7822892   6.465   6.880   1.303  0.2543  0.2084 -0.0831
  188MOL    H7922893   6.378   6.733   1.339  0.1224 -1.4254 -0.1007
  188MOL    C8022894   6.598   6.731   1.316  0.3657 -0.1131  0.0350
  188MOL    C8122895   6.661   6.817   1.429  0.5918  0.1113  0.6119
  188MOL    H8222896   6.603   6.626   1.345 -1.8538  0.1134  1.4333
  188MOL    H8322897   6.666   6.734   1.231 -0.5161  0.2543 -0.6702
  188MOL    H8422898   6.761   6.773   1.437  0.5954 -0.6254 -2.5678
  188MOL    H8522899   6.693   6.909   1.380 -0.1133 -0.4593 -0.9501
  188MOL    C8622900   6.575   6.832   1.565  0.4480  0.9637  0.1113
  188MOL    C8722901   6.645   6.907   1.679  0.4160 -0.3536  0.7454
  188MOL    H8822902   6.480   6.882   1.547  0.2866 -0.2346 -2.5122
  188MOL    H8922903   6.556   6.731   1.601  2.6020  1.2908  2.2906
  188MOL    H9022904   6.744   6.871   1.707  0.1778  1.0232  3.6285
  188MOL    H9122905   6.663   7.011   1.653 -1.5557  0.3011  1.8519
  188MOL    C9222906   6.559   6.925   1.799 -0.5803 -0.7261  0.2354
  188MOL    C9322907   6.645   7.007   1.900  0.1229  0.0198  0.1896
  188MOL    H9422908   6.472   6.983   1.769  0.4422  0.7872  0.1480
  188MOL    H9522909   6.536   6.827   1.841  0.3483 -0.8740  0.4100
  188MOL    H9622910   6.731   6.950   1.935  0.1467 -0.9025 -1.3386
  188MOL    H9722911   6.678   7.103   1.861 -1.6099  1.7005  2.6445
  188MOL    C9822912   6.550   7.021   2.017  0.8310 -0.1842 -0.5546
  188MOL    C9922913   6.619   7.062   2.141  0.9043  0.2210  0.0873
  188MOL   H10022914   6.479   7.102   2.000  2.5226  1.4001 -0.2469
  188MOL   H10122915   6.496   6.928   2.036 -3.2225  2.1649 -0.0176
  188MOL   H10222916   6.684   6.979   2.167 -0.5664 -0.8035  0.5991
  188MOL   H10322917   6.680   7.150   2.122  2.7489 -0.6910  1.6724
  188MOL   C10422918   6.525   7.077   2.259  0.1618  0.5324  0.3223
  188MOL   C10522919   6.604   7.139   2.377  0.4233  0.7431  0.1301
  188MOL   H10622920   6.453   7.149   2.221 -0.0821  0.3795  0.4897
  188MOL   H10722921   6.476   6.984   2.288 -0.0997  0.4352 -0.4325
  188MOL   H10822922   6.689   7.075   2.404  0.3747 -0.4328 -2.3918
  188MOL   H10922923   6.644   7.237   2.350  1.0054  0.0648 -1.5366
  188MOL   C11022924   6.521   7.161   2.507  0.3733  0.3555 -0.3440
  188MOL   C11122925   6.596   7.228   2.626 -0.2126  0.4788  0.0184
  188MOL   H11222926   6.431   7.215   2.477 -0.1342 -1.7464 -2.7204
  188MOL   H11322927   6.483   7.064   2.537 -1.4472  1.6981  1.8550
  188MOL   H11422928   6.702   7.208   2.640 -0.2608  1.6413  2.2252
  188MOL   H11522929   6.596   7.336   2.611 -1.8577  0.3701 -0.7884
  188MOL   C11622930   6.519   7.197   2.757 -0.2415  0.0366  0.9322
  188MOL   C11722931   6.597   7.221   2.882  0.9498 -0.3344  0.2102
  188MOL   H11822932   6.426   7.252   2.745 -1.1070 -1.9717 -2.1935
  188MOL   H11922933   6.497   7.090   2.758 -1.0105  0.1489 -1.0930
  188MOL   H12022934   6.698   7.180   2.870  0.5431 -0.6849 -2.0371
  188MOL   H12122935   6.622   7.326   2.898  2.2832 -0.4621 -0.9818
  188MOL   H12222936   6.548   7.184   2.973 -0.7628  3.4021  0.8803
  189MOL     C122937   2.250   4.051   1.309  0.1629  0.3960  0.1033
  189MOL     C222938   2.371   4.124   1.356  0.2444  0.0728 -0.7533
  189MOL     H322939   2.255   4.040   1.201  2.8602  1.1560  0.1201
  189MOL     H422940   2.173   4.125   1.333 -0.7472 -0.9599  1.4138
  189MOL     H522941   2.464   4.069   1.336  0.6618  0.8598 -0.9721
  189MOL     H622942   2.379   4.226   1.320 -2.3530  0.9939  1.1408
  189MOL     H722943   2.244   3.955   1.361 -1.1806 -0.7981 -2.1824
  189MOL     C822944   2.374   4.139   1.511 -0.2630 -0.0974 -0.5838
  189MOL     C922945   2.500   4.217   1.560  0.1039 -0.0410  1.1705
  189MOL    H1022946   2.290   4.198   1.547  0.8425  0.0392  1.8620
  189MOL    H1122947   2.370   4.040   1.557 -1.2486 -0.0286 -0.5028
  189MOL    H1222948   2.591   4.162   1.537 -0.0038 -0.2417  1.2273
  189MOL    H1322949   2.514   4.302   1.493  1.0579 -1.2882 -0.2528
  189MOL    C1422950   2.509   4.260   1.707 -0.0323 -0.1581 -0.2101
  189MOL    C1522951   2.642   4.334   1.758  0.0574 -0.8481  0.4989
  189MOL    H1622952   2.428   4.333   1.717 -0.9527 -0.9719 -1.6398
  189MOL    H1722953   2.485   4.177   1.774 -0.0466  0.0522  0.0505
  189MOL    H1822954   2.726   4.267   1.739  0.5745 -0.2795  0.7510
  189MOL    H1922955   2.656   4.417   1.689 -1.9302 -1.0186 -0.1378
  189MOL    C2022956   2.633   4.375   1.905 -0.2812  0.0745 -0.3430
  189MOL    C2122957   2.550   4.501   1.940  0.3204 -0.4808 -0.4270
  189MOL    H2222958   2.585   4.294   1.961 -0.5216 -0.5818 -1.4859
  189MOL    H2322959   2.732   4.381   1.951  0.6934  1.0344 -2.5042
  189MOL    H2422960   2.442   4.499   1.929  0.2365 -1.0296  0.3807
  189MOL    H2522961   2.558   4.511   2.048 -2.0780  1.0838 -0.3524
  189MOL    C2622962   2.593   4.624   1.870 -0.2932 -0.6587  0.3693
  189MOL    C2722963   2.526   4.749   1.921 -0.4847 -0.6257 -0.1098
  189MOL    H2822964   2.700   4.627   1.892  0.5904  1.0559 -3.7056
  189MOL    H2922965   2.566   4.607   1.766 -1.0278  1.0572  0.2766
  189MOL    H3022966   2.545   4.836   1.858  0.4917 -1.7596 -1.4464
  189MOL    H3122967   2.419   4.731   1.923 -0.3292 -1.6436 -0.2407
  189MOL    C3222968   2.574   4.793   2.059 -0.3507  0.0623  0.0531
  189MOL    C3322969   2.513   4.928   2.103 -0.5357  0.3374 -0.0303
  189MOL    H3422970   2.537   4.721   2.132  0.8389 -2.0119 -1.3467
  189MOL    H3522971   2.683   4.789   2.067 -0.2072  1.8403 -0.7360
  189MOL    H3622972   2.405   4.918   2.097 -0.4222 -0.4592 -0.8650
  189MOL    H3722973   2.544   4.939   2.207  0.6011  1.8498 -0.5107
  189MOL    C3822974   2.559   5.055   2.029 -0.3884  0.0757  0.0689
  189MOL    C3922975   2.516   5.180   2.095  0.3903 -0.0672 -0.3741
  189MOL    H4022976   2.666   5.044   2.015 -0.0898  1.3412  1.2478
  189MOL    H4122977   2.516   5.058   1.929 -0.5390  0.6694  0.1497
  189MOL    H4222978   2.408   5.194   2.095  0.3520 -0.2446  1.2740
  189MOL    H4322979   2.551   5.188   2.198  0.0571  1.4503 -0.3607
  189MOL    C4422980   2.583   5.301   2.024  0.3741 -0.4645 -0.4909
  189MOL    C4522981   2.529   5.437   2.085 -0.1006 -0.9185 -0.6023
  189MOL    H4622982   2.691   5.294   2.039  0.1420 -2.9876  0.2472
  189MOL    H4722983   2.544   5.301   1.922  0.0522  1.2489 -0.3938
  189MOL    H4822984   2.422   5.440   2.105 -0.1128 -1.8563 -0.5137
  189MOL    H4922985   2.558   5.437   2.190 -0.6206 -1.1358 -0.4596
  189MOL    C5022986   2.577   5.564   2.011  0.5661  0.2173 -0.2426
  189MOL    C5122987   2.543   5.690   2.081  0.3477  0.1854  0.0643
  189MOL    H5222988   2.683   5.563   1.986  0.7626 -0.2409  0.6013
  189MOL    H5322989   2.535   5.574   1.911  1.9887  0.6531 -0.8032
  189MOL    H5422990   2.443   5.682   2.124  0.0589  2.2751 -0.1859
  189MOL    H5522991   2.612   5.685   2.165  0.1711 -0.8041  0.1572
  189MOL    C5622992   2.563   5.822   2.003 -0.2196 -0.0007 -1.0409
  189MOL    C5722993   2.529   5.950   2.080  0.0538 -0.2221 -0.4234
  189MOL    H5822994   2.671   5.829   1.993 -0.0675 -1.1406 -0.3929
  189MOL    H5922995   2.527   5.817   1.901  1.7537 -0.2194 -1.7494
  189MOL    H6022996   2.422   5.964   2.097  0.3378  0.6523  0.7448
  189MOL    H6122997   2.577   5.961   2.177  0.2220 -0.5648 -0.4659
  189MOL    C6222998   2.555   6.072   1.992 -0.0727 -0.4498 -0.3827
  189MOL    C6322999   2.521   6.200   2.061 -0.0329 -0.2581  0.4777
  189MOL    H6423000   2.663   6.074   1.976 -0.1913  0.6394 -1.1236
  189MOL    H6523001   2.501   6.062   1.897 -1.5253 -0.6078  0.4495
  189MOL    H6623002   2.420   6.200   2.101  0.5919  3.5508  2.3028
  189MOL    H6723003   2.574   6.210   2.155 -0.2743  2.7183  0.3715
  189MOL    C6823004   2.560   6.325   1.979 -0.0135 -0.0913  0.2781
  189MOL    C6923005   2.464   6.440   1.994 -0.5026  0.1207  0.2585
  189MOL    H7023006   2.658   6.366   2.004 -0.6552  2.1785 -0.8915
  189MOL    H7123007   2.572   6.303   1.873  1.6476  0.7563  0.2849
  189MOL    H7223008   2.359   6.413   1.982 -0.7534  1.0685  0.2802
  189MOL    H7323009   2.466   6.461   2.101 -1.9199 -1.0547  0.5330
  189MOL    C7423010   2.498   6.560   1.913  0.4745  0.1318  0.0218
  189MOL    C7523011   2.374   6.652   1.903  0.4976 -0.0194 -0.1331
  189MOL    H7623012   2.584   6.609   1.960 -1.1576  1.9597  1.1829
  189MOL    H7723013   2.539   6.544   1.813 -1.1208 -0.8987 -0.4859
  189MOL    H7823014   2.301   6.584   1.859  1.4612 -1.2341  0.1012
  189MOL    H7923015   2.333   6.676   2.001  0.7185 -0.7629  0.1432
  189MOL    C8023016   2.392   6.776   1.822  0.7102  0.4452 -0.5162
  189MOL    C8123017   2.400   6.751   1.672 -0.5427  0.4015 -0.2209
  189MOL    H8223018   2.315   6.849   1.843  0.0394 -0.3999 -0.0158
  189MOL    H8323019   2.485   6.819   1.860  0.0969  0.0391  1.5247
  189MOL    H8423020   2.487   6.688   1.650 -1.4890 -0.7679 -0.6333
  189MOL    H8523021   2.319   6.683   1.645  0.6640 -0.8397 -0.7908
  189MOL    C8623022   2.395   6.879   1.593  0.2765  1.4220  0.5838
  189MOL    C8723023   2.518   6.964   1.613 -0.2381  0.4108  0.5013
  189MOL    H8823024   2.387   6.861   1.486  2.8681  3.1915  0.0440
  189MOL    H8923025   2.298   6.927   1.607 -1.0411 -0.6640 -1.1249
  189MOL    H9023026   2.507   7.016   1.708  0.2746  1.2081  0.1254
  189MOL    H9123027   2.607   6.903   1.622 -0.5284 -0.1674 -0.4225
  189MOL    C9223028   2.541   7.058   1.491  0.1431 -0.0901  0.2768
  189MOL    C9323029   2.677   7.129   1.484 -0.0848 -0.3989 -0.2057
  189MOL    H9423030   2.533   7.001   1.399 -2.4834  2.5921 -1.2437
  189MOL    H9523031   2.459   7.128   1.473 -1.7727 -2.3715 -0.0072
  189MOL    H9623032   2.680   7.188   1.576  0.4918 -1.4039  0.4331
  189MOL    H9723033   2.760   7.061   1.465  0.2708  0.1435 -0.5987
  189MOL    C9823034   2.678   7.236   1.375 -0.0154  0.3946  0.3112
  189MOL    C9923035   2.812   7.306   1.345 -0.2379 -0.2743  0.9663
  189MOL   H10023036   2.637   7.203   1.279  0.5858  0.1647  0.1279
  189MOL   H10123037   2.610   7.318   1.395  0.1234  0.4962  0.3675
  189MOL   H10223038   2.843   7.361   1.434 -3.1175  0.5540  1.5231
  189MOL   H10323039   2.889   7.232   1.326 -1.4796 -1.2018 -0.5780
  189MOL   C10423040   2.797   7.415   1.229  0.3248  0.5073  0.1637
  189MOL   C10523041   2.925   7.472   1.185 -0.1843  0.2229  0.1674
  189MOL   H10623042   2.733   7.370   1.153  1.9966  0.7941 -1.4457
  189MOL   H10723043   2.737   7.495   1.273 -1.3095 -0.7767  0.3167
  189MOL   H10823044   2.904   7.570   1.142  0.3898 -0.5681 -2.0155
  189MOL   H10923045   2.987   7.495   1.272  0.6465 -0.0570 -0.3357
  189MOL   C11023046   2.997   7.387   1.087 -0.2354  0.3129  0.5700
  189MOL   C11123047   3.140   7.431   1.059  0.3819 -0.1168  0.1121
  189MOL   H11223048   2.993   7.283   1.119 -2.4163  0.5217  1.0517
  189MOL   H11323049   2.956   7.387   0.986  1.1993 -0.4260 -0.0228
  189MOL   H11423050   3.190   7.414   1.154 -1.0477  2.4041  1.3524
  189MOL   H11523051   3.186   7.363   0.987 -0.8715 -0.3180 -0.5205
  189MOL   C11623052   3.160   7.577   1.006  0.3270 -0.3107  1.0408
  189MOL   C11723053   3.300   7.632   0.998 -0.4067  1.5233  0.4727
  189MOL   H11823054   3.114   7.595   0.909  1.5164  2.6772  0.9852
  189MOL   H11923055   3.102   7.642   1.072  0.4720 -0.6601  1.5171
  189MOL   H12023056   3.296   0.048   0.982  1.7167  1.9676  2.6589
  189MOL   H12123057   3.357   7.619   1.090 -0.2276 -1.5956 -0.0480
  189MOL   H12223058   3.352   7.589   0.912 -0.6077  0.3725  0.9209
  190MOL     C123059   0.310   6.782   4.211 -0.7177  0.1203 -0.1780
  190MOL     C223060   0.374   6.775   4.070  0.3301  0.0233 -0.2308
  190MOL     H323061   0.225   6.851   4.212  0.3324  1.4375 -0.3104
  190MOL     H423062   0.376   6.837   4.278 -1.7147  0.8008  0.2613
  190MOL     H523063   0.419   6.869   4.042  0.2394  0.3129  0.5692
  190MOL     H623064   0.463   6.712   4.068 -0.1551 -0.7741  1.7661
  190MOL     H723065   0.274   6.685   4.247 -2.7907  1.1832  0.7491
  190MOL     C823066   0.263   6.717   3.976 -0.7961 -0.0239 -0.4877
  190MOL     C923067   0.317   6.656   3.846  0.5396 -0.9273 -0.7502
  190MOL    H1023068   0.211   6.642   4.035 -0.4489 -1.6316 -2.1680
  190MOL    H1123069   0.189   6.795   3.954 -1.7604 -1.0092 -0.8119
  190MOL    H1223070   0.367   6.743   3.802  1.0745 -1.4366 -1.1626
  190MOL    H1323071   0.394   6.582   3.869  3.4672  2.4068  0.6231
  190MOL    C1423072   0.215   6.589   3.761  0.0792  0.5975  0.4502
  190MOL    C1523073   0.255   6.566   3.619  0.4201 -0.5326  0.3131
  190MOL    H1623074   0.191   6.490   3.800  0.0816  0.2771 -0.3585
  190MOL    H1723075   0.124   6.649   3.758 -1.1119 -1.1293  1.5775
  190MOL    H1823076   0.276   6.654   3.559 -0.0170  0.4120  1.5036
  190MOL    H1923077   0.353   6.519   3.619  2.0771  2.7590 -2.6465
  190MOL    C2023078   0.163   6.478   3.533  0.8495 -0.5954 -0.0087
  190MOL    C2123079   0.205   6.467   3.390 -0.2307 -0.8428 -0.0713
  190MOL    H2223080   0.161   6.380   3.580 -1.5603 -0.4194  0.2889
  190MOL    H2323081   0.064   6.522   3.528  0.1919 -2.1509 -1.0955
  190MOL    H2423082   0.200   6.559   3.331  0.0812  0.6344  2.1327
  190MOL    H2523083   0.307   6.428   3.381 -0.1683 -0.5303 -0.7242
  190MOL    C2623084   0.107   6.371   3.313 -0.0427  0.4285  0.3983
  190MOL    C2723085   0.162   6.318   3.177  0.4063 -0.3148  0.2619
  190MOL    H2823086   0.095   6.283   3.377 -1.3392  0.8310  0.7080
  190MOL    H2923087   0.009   6.416   3.300  0.1183  0.1777 -1.8930
  190MOL    H3023088   0.133   6.389   3.100  1.9338 -1.2998 -1.2416
  190MOL    H3123089   0.271   6.314   3.181  0.5191 -1.1396 -2.6930
  190MOL    C3223090   0.088   6.194   3.124 -0.0080  0.5681 -0.4133
  190MOL    C3323091   0.119   6.068   3.205 -0.6711  0.0918  0.2095
  190MOL    H3423092   7.672   6.206   3.110 -0.3181 -2.1730 -0.7743
  190MOL    H3523093   0.123   6.185   3.021 -2.3517  0.3433 -1.2320
  190MOL    H3623094   0.226   6.053   3.189 -1.0174 -1.9840 -0.3157
  190MOL    H3723095   0.092   6.062   3.310  1.2315  0.6584  0.7570
  190MOL    C3823096   0.057   5.946   3.133 -0.0152 -0.5815 -0.2677
  190MOL    C3923097   0.055   5.828   3.222 -0.5026  0.2208  0.2387
  190MOL    H4023098   7.645   5.968   3.108  0.1658 -1.2558 -1.6214
  190MOL    H4123099   0.101   5.926   3.035 -2.3228 -0.6994 -1.3055
  190MOL    H4223100   0.145   5.808   3.279 -0.5109  2.0193  0.9170
  190MOL    H4323101   7.681   5.846   3.307 -0.0597  0.7166  0.4768
  190MOL    C4423102   0.006   5.706   3.143  0.2799 -0.4705  0.2381
  190MOL    C4523103   0.041   5.574   3.219 -0.4023  0.0728  0.3987
  190MOL    H4623104   7.591   5.723   3.130 -0.1624 -0.7807  3.1433
  190MOL    H4723105   0.047   5.696   3.043  0.4165  1.7407  0.0442
  190MOL    H4823106   0.148   5.552   3.218 -0.5386 -0.5340 -1.4985
  190MOL    H4923107   0.024   5.596   3.325  1.6782 -0.7278  0.9355
  190MOL    C5023108   7.665   5.441   3.173  0.3210  0.7545  0.1084
  190MOL    C5123109   0.007   5.376   3.042 -1.0633  0.1346 -0.6261
  190MOL    H5223110   7.683   5.367   3.252 -2.7237 -0.5920 -0.3837
  190MOL    H5323111   7.562   5.475   3.165 -0.0678 -0.5264 -0.4030
  190MOL    H5423112   7.685   5.451   2.964  0.6313  0.0321 -1.0445
  190MOL    H5523113   0.112   5.347   3.050 -1.1319 -0.0128 -0.2625
  190MOL    C5623114   7.607   5.257   3.027  0.2445 -0.0830 -0.0090
  190MOL    C5723115   7.639   5.178   2.904 -0.7879 -0.4570 -0.4116
  190MOL    H5823116   7.604   5.191   3.113  2.2624  0.7675  0.7506
  190MOL    H5923117   7.508   5.302   3.016  1.5564  2.7436 -0.7542
  190MOL    H6023118   7.640   5.251   2.823 -0.8753  0.0897  0.0803
  190MOL    H6123119   0.042   5.125   2.902 -0.6839 -0.3433  1.0555
  190MOL    C6223120   7.528   5.072   2.874  0.0963 -0.9470  0.1455
  190MOL    C6323121   7.569   4.983   2.751  0.5268  0.7942 -0.1512
  190MOL    H6423122   7.518   5.015   2.967 -0.3140 -1.0763  0.0209
  190MOL    H6523123   7.434   5.123   2.854  0.1281 -0.8807  0.1644
  190MOL    H6623124   7.559   5.045   2.662  0.5108  0.4907 -0.3593
  190MOL    H6723125   7.672   4.948   2.754 -0.0510 -1.0768 -1.3115
  190MOL    C6823126   7.478   4.864   2.725  0.3660 -0.8772 -0.1824
  190MOL    C6923127   7.512   4.772   2.613  0.4648  0.3344  0.1284
  190MOL    H7023128   7.479   4.806   2.817  0.4699 -0.5525  0.0202
  190MOL    H7123129   7.379   4.910   2.715  0.8647  0.2136 -0.1711
  190MOL    H7223130   7.512   4.832   2.522  0.9301 -1.4587 -1.0870
  190MOL    H7323131   7.616   4.736   2.612  0.3044 -0.1843 -2.0734
  190MOL    C7423132   7.411   4.656   2.599  0.3534 -0.0573 -0.4456
  190MOL    C7523133   7.407   4.593   2.457 -0.4621  0.2306  0.5127
  190MOL    H7623134   7.432   4.579   2.673 -1.0963 -0.3680 -0.3424
  190MOL    H7723135   7.312   4.696   2.618  0.4511 -0.9228  1.9314
  190MOL    H7823136   7.340   4.638   2.384 -0.1377 -1.2432 -0.7235
  190MOL    H7923137   7.505   4.596   2.409 -1.3289 -1.4494 -1.4237
  190MOL    C8023138   7.364   4.449   2.469  0.0217  0.8939 -0.0549
  190MOL    C8123139   7.353   4.376   2.334 -0.0354 -0.1825 -0.3442
  190MOL    H8223140   7.424   4.384   2.532  2.7870  3.4452  0.0332
  190MOL    H8323141   7.265   4.452   2.515 -0.4526 -0.2329 -0.9879
  190MOL    H8423142   7.291   4.432   2.264  0.9706 -2.5610 -3.2301
  190MOL    H8523143   7.452   4.372   2.288 -0.3599  0.7237 -1.1459
  190MOL    C8623144   7.305   4.235   2.343  0.0396 -0.4280 -0.8348
  190MOL    C8723145   7.294   4.170   2.205  0.5727 -0.3094  0.3652
  190MOL    H8823146   7.374   4.177   2.403 -0.0095 -0.7482 -1.0885
  190MOL    H8923147   7.212   4.226   2.400 -0.9508 -0.4650 -2.4415
  190MOL    H9023148   7.229   4.228   2.140  1.5660  0.9265  0.4624
  190MOL    H9123149   7.396   4.173   2.167  0.5416  2.9548  0.4039
  190MOL    C9223150   7.227   4.028   2.215 -0.3292 -0.3880  0.4794
  190MOL    C9323151   7.196   3.958   2.084  0.0259 -0.3056 -0.4521
  190MOL    H9423152   7.301   3.964   2.264 -0.0222 -0.3806  0.0320
  190MOL    H9523153   7.140   4.038   2.280 -0.0755  0.7754  0.6638
  190MOL    H9623154   7.120   4.013   2.028 -0.5402  1.5319  2.0161
  190MOL    H9723155   7.290   3.964   2.030  0.7698 -0.8834  0.7334
  190MOL    C9823156   7.166   3.811   2.102 -0.2221 -0.0963  0.1547
  190MOL    C9923157   7.155   3.731   1.970 -0.2226 -1.0535  0.3748
  190MOL   H10023158   7.231   3.770   2.179 -2.3082  1.2582  2.7108
  190MOL   H10123159   7.068   3.810   2.149 -0.2873  1.0849  0.0718
  190MOL   H10223160   7.083   3.780   1.904 -0.1300 -3.8786 -1.8912
  190MOL   H10323161   7.252   3.716   1.922 -0.3022 -1.5502  0.3620
  190MOL   C10423162   7.120   3.583   1.994  0.1866  0.3370  0.0161
  190MOL   C10523163   7.138   3.498   1.866  0.4769  0.0349 -0.0816
  190MOL   H10623164   7.192   3.536   2.061 -1.2060 -1.5172  0.2500
  190MOL   H10723165   7.021   3.568   2.037 -0.5876  0.3209 -1.7541
  190MOL   H10823166   7.063   3.529   1.793  1.0274  1.9823  0.1537
  190MOL   H10923167   7.239   3.502   1.826  1.0072 -3.7714  0.6323
  190MOL   C11023168   7.097   3.350   1.897  0.0943  0.2589 -0.6152
  190MOL   C11123169   7.093   3.269   1.771  0.1589 -0.4895  0.7919
  190MOL   H11223170   7.169   3.306   1.967  0.3178  1.2469 -0.2282
  190MOL   H11323171   7.002   3.343   1.950  0.8455  1.5866  0.9355
  190MOL   H11423172   7.047   3.323   1.689 -0.2179  0.7622  1.7992
  190MOL   H11523173   7.195   3.264   1.733  0.1534 -0.7520  0.8168
  190MOL   C11623174   7.030   3.134   1.791 -0.3200  0.4936  0.4452
  190MOL   C11723175   7.100   3.045   1.905  0.0262 -0.4657 -0.6882
  190MOL   H11823176   6.932   3.144   1.838 -0.5249 -1.7039  0.5143
  190MOL   H11923177   7.011   3.091   1.693  0.5673  1.9967 -0.4050
  190MOL   H12023178   7.088   3.071   2.010  1.0201  0.8567 -0.9047
  190MOL   H12123179   7.049   2.949   1.895  0.0817 -0.6749  0.9004
  190MOL   H12223180   7.204   3.025   1.882  0.5231 -0.6072  1.5886
  191MOL     C123181   1.024   2.226   3.590  0.1966  0.2549  0.3564
  191MOL     C223182   1.145   2.220   3.493  0.0773  0.2803 -0.3689
  191MOL     H323183   0.939   2.266   3.535 -0.0122 -0.5454  0.0839
  191MOL     H423184   1.060   2.283   3.676 -0.5580  0.1282  0.7582
  191MOL     H523185   1.233   2.188   3.548  0.6477 -0.1057 -1.4851
  191MOL     H623186   1.116   2.147   3.417  0.8479 -1.1601  0.6968
  191MOL     H723187   0.993   2.123   3.608 -0.2923  0.2227 -0.6506
  191MOL     C823188   1.181   2.350   3.414 -0.5399  0.8513  0.6002
  191MOL     C923189   1.318   2.335   3.337 -0.0477  0.2666 -0.1601
  191MOL    H1023190   1.103   2.360   3.339  0.1873  0.2564 -0.2424
  191MOL    H1123191   1.180   2.442   3.472  4.2846  2.7485 -2.0475
  191MOL    H1223192   1.403   2.307   3.398 -0.5938 -1.4715 -0.1619
  191MOL    H1323193   1.311   2.252   3.267 -2.2522 -0.0792  0.4197
  191MOL    C1423194   1.349   2.464   3.252 -0.4787  0.4057 -0.4094
  191MOL    C1523195   1.495   2.482   3.204  0.5244  0.2541 -0.1383
  191MOL    H1623196   1.276   2.465   3.171  1.4159  1.4058 -2.1685
  191MOL    H1723197   1.321   2.554   3.307 -0.6065  0.3993 -0.4647
  191MOL    H1823198   1.563   2.486   3.289  2.1534  2.1835 -1.4734
  191MOL    H1923199   1.524   2.397   3.142 -0.2358 -0.4150  0.4258
  191MOL    C2023200   1.515   2.599   3.111  0.3269 -0.1184 -0.0106
  191MOL    C2123201   1.661   2.611   3.070 -0.4823 -0.4390  0.1990
  191MOL    H2223202   1.461   2.576   3.020 -0.6126 -2.0846  1.0169
  191MOL    H2323203   1.494   2.697   3.155  0.4498  0.2242 -0.7205
  191MOL    H2423204   1.724   2.623   3.159  0.0095  0.1173 -0.2197
  191MOL    H2523205   1.694   2.519   3.023  0.1732  1.0057 -2.3097
  191MOL    C2623206   1.698   2.731   2.975 -0.2111 -0.0267  0.0614
  191MOL    C2723207   1.849   2.766   2.950  0.4446 -0.3144 -0.0182
  191MOL    H2823208   1.657   2.709   2.877 -2.0467  2.0049  0.3206
  191MOL    H2923209   1.643   2.821   3.004 -0.8103 -0.1732 -0.6297
  191MOL    H3023210   1.892   2.771   3.050  1.1470  0.3603 -0.3521
  191MOL    H3123211   1.889   2.677   2.902 -2.9513 -1.0755 -1.6366
  191MOL    C3223212   1.873   2.898   2.876 -0.5405 -0.5451 -0.3866
  191MOL    C3323213   2.023   2.941   2.862  0.2102 -0.2960  0.2013
  191MOL    H3423214   1.835   2.903   2.774  1.0824  0.8614 -0.9698
  191MOL    H3523215   1.817   2.979   2.922  0.3615  0.2911 -0.7282
  191MOL    H3623216   2.054   2.958   2.965 -2.1454 -0.1607  0.9164
  191MOL    H3723217   2.084   2.859   2.824 -1.9836 -0.2736 -3.6414
  191MOL    C3823218   2.053   3.067   2.789 -0.3074  0.1777  0.0443
  191MOL    C3923219   2.204   3.092   2.805 -0.0528 -0.3873  0.3395
  191MOL    H4023220   2.013   3.072   2.688  1.6194  1.0209 -0.6982
  191MOL    H4123221   2.003   3.141   2.853  1.0558  0.4496  0.8049
  191MOL    H4223222   2.223   3.109   2.911 -0.3678 -0.0079  0.3376
  191MOL    H4323223   2.263   3.003   2.784  0.4397  0.1116 -0.4385
  191MOL    C4423224   2.246   3.206   2.720 -0.0012  0.5930  0.5274
  191MOL    C4523225   2.394   3.247   2.738  0.2350  0.6539 -0.1136
  191MOL    H4623226   2.237   3.169   2.618  0.7665 -2.0993  1.3852
  191MOL    H4723227   2.173   3.286   2.726 -2.8433 -1.6381 -2.5880
  191MOL    H4823228   2.411   3.273   2.843 -1.7436 -1.4472  0.7735
  191MOL    H4923229   2.458   3.164   2.710  0.1632  1.1248 -1.7070
  191MOL    C5023230   2.435   3.368   2.644  0.5890 -0.0956 -0.6673
  191MOL    C5123231   2.569   3.435   2.686 -0.1837 -0.5766 -0.1171
  191MOL    H5223232   2.438   3.326   2.543 -3.6808 -0.6426 -0.6565
  191MOL    H5323233   2.351   3.437   2.644  0.3408 -0.3945 -0.3782
  191MOL    H5423234   2.544   3.483   2.781 -2.2488 -1.7700 -0.0232
  191MOL    H5523235   2.640   3.357   2.714  0.0671  0.1539  1.3459
  191MOL    C5623236   2.626   3.542   2.607  0.3576  0.0426  0.0602
  191MOL    C5723237   2.672   3.516   2.463  0.2687 -0.6152 -0.4451
  191MOL    H5823238   2.555   3.625   2.598 -0.3017 -0.4903  0.2940
  191MOL    H5923239   2.716   3.569   2.662  0.0223 -0.5980  0.9330
  191MOL    H6023240   2.595   3.459   2.412  0.3571 -1.2760  0.1450
  191MOL    H6123241   2.682   3.609   2.407  0.0078 -0.1552  0.2656
  191MOL    C6223242   2.804   3.439   2.466 -0.4904 -0.1223 -0.2324
  191MOL    C6323243   2.858   3.421   2.321  0.0347 -0.2528  0.4450
  191MOL    H6423244   2.871   3.505   2.521 -0.6709 -2.1481  2.5316
  191MOL    H6523245   2.797   3.343   2.516 -2.8507 -1.1637 -2.4152
  191MOL    H6623246   2.811   3.335   2.274 -2.5981  1.6780 -0.5768
  191MOL    H6723247   2.844   3.520   2.278  0.3171 -0.3522  0.1211
  191MOL    C6823248   3.007   3.375   2.322  0.0149  0.4059  0.2273
  191MOL    C6923249   3.118   3.483   2.337  0.4628  0.1221  0.1019
  191MOL    H7023250   3.021   3.304   2.404 -0.8234 -0.7204 -0.5988
  191MOL    H7123251   3.028   3.313   2.235 -2.7545 -1.4834  0.8630
  191MOL    H7223252   3.106   3.566   2.267 -0.4930  1.3908  1.7321
  191MOL    H7323253   3.101   3.511   2.441  1.7316  0.8485  0.1198
  191MOL    C7423254   3.266   3.430   2.328 -0.3486 -0.0809  0.2262
  191MOL    C7523255   3.389   3.527   2.331  0.0091 -0.7282  0.2804
  191MOL    H7623256   3.263   3.359   2.411 -0.5955  0.1821  0.4432
  191MOL    H7723257   3.263   3.375   2.234 -0.9035  1.4696 -0.6813
  191MOL    H7823258   3.374   3.578   2.236  0.9251 -0.8420  0.0663
  191MOL    H7923259   3.383   3.598   2.414  0.8727 -0.0771 -0.1964
  191MOL    C8023260   3.526   3.466   2.347  0.8118 -0.0809  0.0922
  191MOL    C8123261   3.635   3.574   2.352 -0.3094  0.4734 -0.2193
  191MOL    H8223262   3.517   3.412   2.442 -0.9951  0.0744  0.0343
  191MOL    H8323263   3.548   3.393   2.269  0.5851 -0.4564  0.3749
  191MOL    H8423264   3.625   3.641   2.267  0.9504  1.8593  0.6977
  191MOL    H8523265   3.619   3.637   2.440 -0.6071 -1.3577  1.0602
  191MOL    C8623266   3.781   3.522   2.361  0.8701  0.0159  0.1090
  191MOL    C8723267   3.874   3.641   2.366 -0.2244  0.3722  0.1367
  191MOL    H8823268   3.806   3.457   2.445 -1.8926 -0.0288  0.9341
  191MOL    H8923269   3.802   3.462   2.272 -3.6270 -0.8847 -0.4483
  191MOL    H9023270   3.871   3.701   2.275  2.3260  0.5742  0.1518
  191MOL    H9123271   3.839   3.702   2.449  0.9611 -1.3464  1.9325
  191MOL    C9223272   4.021   3.601   2.388 -0.2978 -0.1943 -0.2363
  191MOL    C9323273   4.131   3.715   2.400  0.3453 -0.3293  0.0154
  191MOL    H9423274   4.019   3.549   2.484  0.0685  0.3730  0.0830
  191MOL    H9523275   4.055   3.524   2.319 -0.5050  0.4770 -1.0917
  191MOL    H9623276   4.133   3.772   2.308 -0.2521  0.8956  0.7524
  191MOL    H9723277   4.097   3.786   2.476 -1.2004 -0.1886 -0.7852
  191MOL    C9823278   4.279   3.668   2.431 -0.0929  0.1180  0.5799
  191MOL    C9923279   4.365   3.787   2.465  0.2258 -0.0010 -0.4036
  191MOL   H10023280   4.283   3.592   2.509  0.0281 -1.3109 -0.7850
  191MOL   H10123281   4.310   3.612   2.343 -0.4195 -1.3635  1.3901
  191MOL   H10223282   4.373   3.841   2.371 -0.4352  0.8319  0.0075
  191MOL   H10323283   4.328   3.851   2.545 -0.3182 -0.0672 -0.6008
  191MOL   C10423284   4.507   3.746   2.497  0.4861  0.7333 -1.1039
  191MOL   C10523285   4.600   3.869   2.493  0.2760  0.4725  0.4056
  191MOL   H10623286   4.510   3.679   2.582  0.8030  0.8036 -1.0597
  191MOL   H10723287   4.541   3.682   2.416 -1.1026  0.1940 -1.3607
  191MOL   H10823288   4.588   3.936   2.408  0.5700  0.9927  0.7728
  191MOL   H10923289   4.581   3.932   2.579  0.0282 -0.2230  0.8650
  191MOL   C11023290   4.740   3.818   2.487  0.5176  0.5474  0.6386
  191MOL   C11123291   4.837   3.934   2.504 -0.3423 -0.1688 -0.1053
  191MOL   H11223292   4.748   3.737   2.559  1.7152  0.1089  0.0346
  191MOL   H11323293   4.751   3.776   2.387 -0.1137  0.8797  0.4275
  191MOL   H11423294   4.784   4.012   2.449  1.1644  0.4999 -0.6303
  191MOL   H11523295   4.849   3.971   2.605 -0.3292 -3.7068  1.2557
  191MOL   C11623296   4.975   3.892   2.463  0.2904 -0.2542 -0.4911
  191MOL   C11723297   5.084   3.995   2.473 -0.0923  0.3197  0.1327
  191MOL   H11823298   5.002   3.809   2.528  1.0963 -0.3498 -0.9483
  191MOL   H11923299   4.969   3.851   2.362  0.3701  2.1414 -1.4901
  191MOL   H12023300   5.063   4.086   2.415 -1.4241 -0.5520 -0.7694
  191MOL   H12123301   5.091   4.012   2.580 -0.9579  0.2686  0.2020
  191MOL   H12223302   5.183   3.955   2.449 -0.5557 -0.8013  0.0681
  192MOL     C123303   1.048   4.885   3.890  0.0906 -0.1949 -0.1830
  192MOL     C223304   1.028   4.955   4.023 -0.6243 -0.7513  0.5370
  192MOL     H323305   1.047   4.777   3.898 -3.0836 -0.2478 -0.9443
  192MOL     H423306   1.134   4.923   3.834  1.3869 -0.0028  1.8877
  192MOL     H523307   1.036   5.063   4.014  0.6835 -0.8528  0.4459
  192MOL     H623308   0.927   4.934   4.059 -0.4569  1.8022  2.6392
  192MOL     H723309   0.965   4.912   3.824 -1.0616 -1.5388  0.7107
  192MOL     C823310   1.132   4.931   4.134 -0.4925  0.4942 -0.4339
  192MOL     C923311   1.098   4.971   4.274 -0.0046 -0.5943  0.1217
  192MOL    H1023312   1.159   4.826   4.126  0.9649  0.9654 -2.0314
  192MOL    H1123313   1.231   4.972   4.113  1.6720 -4.1637 -0.0724
  192MOL    H1223314   1.013   4.915   4.313  0.5963 -1.8587 -0.3501
  192MOL    H1323315   1.173   4.935   4.344 -1.7174 -2.4750  1.0292
  192MOL    C1423316   1.077   5.125   4.297 -0.2105 -0.8278 -0.0933
  192MOL    C1523317   1.010   5.175   4.429 -0.4493  0.0767 -0.7503
  192MOL    H1623318   1.172   5.179   4.289 -0.6714  0.1108  0.7023
  192MOL    H1723319   1.012   5.174   4.224 -0.4355 -1.6225 -0.4335
  192MOL    H1823320   1.023   5.283   4.422  2.3144 -0.1976 -0.3102
  192MOL    H1923321   0.910   5.131   4.429 -0.3810 -0.0809 -1.0511
  192MOL    C2023322   1.080   5.131   4.554  0.0724 -0.6051 -0.1891
  192MOL    C2123323   1.018   5.215   4.668 -0.2097  0.0760 -0.6928
  192MOL    H2223324   1.059   5.024   4.561 -1.5843 -0.2540  0.4855
  192MOL    H2323325   1.188   5.145   4.552 -0.0879  0.9863  1.1751
  192MOL    H2423326   1.069   5.312   4.671 -0.5556  0.2237  1.1751
  192MOL    H2523327   0.910   5.217   4.652 -0.3297  1.9066  0.1033
  192MOL    C2623328   1.037   5.159   4.809 -0.5298 -0.4013  0.1118
  192MOL    C2723329   1.008   5.266   4.916  0.9160 -0.0825 -1.2439
  192MOL    H2823330   0.965   5.078   4.814  1.7490 -2.4910 -0.1399
  192MOL    H2923331   1.128   5.101   4.828 -1.3580 -1.1011  2.0238
  192MOL    H3023332   1.100   5.324   4.927  0.4296  0.1317  2.2998
  192MOL    H3123333   0.931   5.339   4.893  1.1405  0.9303  1.0362
  192MOL    C3223334   0.987   5.205   5.058 -0.0394 -0.3895  0.5089
  192MOL    C3323335   1.023   5.305   5.173  0.3016  0.2946 -0.2380
  192MOL    H3423336   0.883   5.173   5.059 -0.9790  2.5453  0.5186
  192MOL    H3523337   1.048   5.114   5.062  1.4502  0.6500  2.1485
  192MOL    H3623338   1.108   5.371   5.153  0.7202  0.2508  1.3064
  192MOL    H3723339   0.934   5.361   5.201  0.1896 -1.0982  2.3004
  192MOL    C3823340   1.055   5.231   5.304  0.0260  0.2285  0.0175
  192MOL    C3923341   1.033   5.311   5.433 -0.3266 -0.2027  0.1312
  192MOL    H4023342   0.998   5.139   5.296  1.5390 -0.5417 -2.6455
  192MOL    H4123343   1.161   5.204   5.305 -0.1103 -0.3603  2.3526
  192MOL    H4223344   0.929   5.345   5.435 -0.8207 -1.6782 -0.3909
  192MOL    H4323345   1.040   5.233   5.509 -1.8717  0.8889  1.4274
  192MOL    C4423346   1.125   5.432   5.457 -0.7426 -0.0091 -0.2212
  192MOL    C4523347   1.072   5.521   5.579  0.7330  0.2610 -0.3411
  192MOL    H4623348   1.228   5.397   5.471 -0.2505  1.3593 -0.2382
  192MOL    H4723349   1.128   5.492   5.366  1.9345 -0.6780 -0.6327
  192MOL    H4823350   0.965   5.538   5.568  0.2733 -2.5857 -0.7308
  192MOL    H4923351   1.094   5.459   5.666  2.3220 -1.3509 -1.8371
  192MOL    C5023352   1.161   5.643   5.602 -0.9617 -0.3269 -0.4866
  192MOL    C5123353   1.142   5.712   5.740 -0.3017 -0.6612 -0.0315
  192MOL    H5223354   1.268   5.623   5.601 -1.1526 -1.4797  0.5994
  192MOL    H5323355   1.126   5.714   5.527  0.9619  3.4319  1.9892
  192MOL    H5423356   1.039   5.722   5.776  0.1001  0.9492  0.7065
  192MOL    H5523357   1.176   5.641   5.816  0.7793 -1.3720 -1.1634
  192MOL    C5623358   1.217   5.846   5.756  0.4433  0.2561 -0.4486
  192MOL    C5723359   1.238   5.894   5.899 -0.8736  0.1555 -0.2979
  192MOL    H5823360   1.316   5.849   5.711  0.5227  0.7494 -0.2541
  192MOL    H5923361   1.162   5.924   5.703  0.4985  0.7309  0.1858
  192MOL    H6023362   1.150   5.908   5.963 -0.9870 -0.5897 -0.2928
  192MOL    H6123363   1.290   5.813   5.949 -3.6777 -0.7862  1.2065
  192MOL    C6223364   1.340   6.006   5.889 -0.0609 -0.4905 -0.5184
  192MOL    C6323365   1.387   6.075   6.020  0.0630 -0.5752 -0.7881
  192MOL    H6423366   1.437   5.976   5.851  2.0540  2.5926  2.1667
  192MOL    H6523367   1.312   6.084   5.819  1.1731  0.6257  0.2155
  192MOL    H6623368   1.405   5.993   6.090 -0.3547 -1.2174 -1.4228
  192MOL    H6723369   1.477   6.132   5.998  0.3125 -1.1647 -1.3283
  192MOL    C6823370   1.288   6.175   6.067  0.6346  0.5726  0.6074
  192MOL    C6923371   1.332   6.245   6.197 -0.7112  0.0837  0.2734
  192MOL    H7023372   1.259   6.251   5.994  0.3177  0.2714  0.4196
  192MOL    H7123373   1.195   6.123   6.090 -0.9397  2.8611 -0.3443
  192MOL    H7223374   1.248   6.313   6.211  0.9827  2.5716 -1.0703
  192MOL    H7323375   1.324   6.178   6.282 -0.5908  1.2124  1.1835
  192MOL    C7423376   1.468   6.311   6.193  0.4375  0.6744  0.0423
  192MOL    C7523377   1.503   6.399   6.316 -0.4602 -0.6972  0.4447
  192MOL    H7623378   1.547   6.236   6.200 -0.3347 -0.0003  2.1336
  192MOL    H7723379   1.477   6.373   6.105 -0.0760 -1.6104 -1.6676
  192MOL    H7823380   1.434   6.480   6.341  0.6694  0.4981 -0.2358
  192MOL    H7923381   1.503   6.345   6.410  2.3314  0.4794  1.1617
  192MOL    C8023382   1.647   6.456   6.304  0.3791  0.8296 -0.0589
  192MOL    C8123383   1.716   6.500   6.437  0.0312 -0.1132  0.1234
  192MOL    H8223384   1.703   6.375   6.257 -0.5711  0.3733 -0.4276
  192MOL    H8323385   1.659   6.533   6.227  0.4180  0.1961 -0.6944
  192MOL    H8423386   1.642   6.552   6.498  1.2423 -0.7478  2.2259
  192MOL    H8523387   1.733   6.407   6.493  2.2397  0.5613  0.6441
  192MOL    C8623388   1.845   6.579   6.411  0.0909 -0.6585  0.5621
  192MOL    C8723389   1.914   6.630   6.533  0.4374 -0.7401  0.2108
  192MOL    H8823390   1.910   6.515   6.350  0.8128  0.3278  0.2827
  192MOL    H8923391   1.825   6.666   6.349 -0.4639 -1.5524 -0.5292
  192MOL    H9023392   1.840   6.693   6.582  0.2207 -1.1139  0.3613
  192MOL    H9123393   1.927   6.538   6.591 -0.0726 -1.0835 -0.2215
  192MOL    C9223394   2.042   6.699   6.508 -0.1881  0.6266 -0.1546
  192MOL    C9323395   2.094   6.771   6.631  0.6409 -0.1864 -0.0797
  192MOL    H9423396   2.124   6.638   6.469 -0.4221  0.0281  0.2849
  192MOL    H9523397   2.024   6.752   6.415  0.2352  0.6352 -0.2339
  192MOL    H9623398   2.017   6.822   6.689 -0.8737 -1.6447 -0.7826
  192MOL    H9723399   2.137   6.697   6.698 -1.7673  0.9547  2.8578
  192MOL    C9823400   2.202   6.881   6.606  0.0478 -1.0429 -0.0896
  192MOL    C9923401   2.265   6.952   6.737 -0.4376  0.0141 -0.0479
  192MOL   H10023402   2.283   6.841   6.544  0.8999  2.6940 -1.4915
  192MOL   H10123403   2.157   6.958   6.544  0.4183 -0.0669  0.8426
  192MOL   H10223404   2.189   6.960   6.814 -1.1486 -1.7913 -0.5399
  192MOL   H10323405   2.342   6.883   6.772 -1.1252 -1.1105 -0.7218
  192MOL   C10423406   2.329   7.091   6.695 -0.5661 -0.1367 -0.4278
  192MOL   C10523407   2.360   7.195   6.806 -0.1712  0.0340  0.2202
  192MOL   H10623408   2.423   7.080   6.639 -0.4218 -0.0284 -0.2039
  192MOL   H10723409   2.258   7.139   6.627 -0.1473 -1.0825 -1.5612
  192MOL   H10823410   2.384   7.291   6.760 -0.3198  0.1567  0.4019
  192MOL   H10923411   2.269   7.210   6.863  0.5034 -0.6525  1.4887
  192MOL   C11023412   2.466   7.152   6.912 -0.1170  0.0781 -0.2531
  192MOL   C11123413   2.510   7.270   7.006  0.2093  0.3503  0.7292
  192MOL   H11223414   2.414   7.076   6.971 -1.3260  2.2315  1.5494
  192MOL   H11323415   2.560   7.107   6.881  0.7804 -0.4514  3.1355
  192MOL   H11423416   2.424   7.330   7.036 -1.6419 -2.1394  0.5723
  192MOL   H11523417   2.560   7.239   7.098  0.4268 -0.8852  0.1980
  192MOL   C11623418   2.617   7.366   6.944  0.2538  0.4194  0.1855
  192MOL   C11723419   2.754   7.291   6.951  0.4436  0.2951 -0.2747
  192MOL   H11823420   2.583   7.414   6.852  0.1227  0.2577  0.1477
  192MOL   H11923421   2.623   7.451   7.012 -0.6412  3.5225 -3.4535
  192MOL   H12023422   2.839   7.354   6.922  0.5401  0.7113  0.9163
  192MOL   H12123423   2.783   7.268   7.053 -1.2728  0.0549  0.1629
  192MOL   H12223424   2.763   7.203   6.887  0.4491 -0.3504  0.6114
  193MOL     C123425   2.763   5.963   2.474 -0.2186 -0.1623  0.0771
  193MOL     C223426   2.721   6.110   2.465  0.1484  0.0157  0.5314
  193MOL     H323427   2.870   5.953   2.488  0.1644  3.9233  0.7040
  193MOL     H423428   2.736   5.909   2.382  1.4698 -3.3555  1.3664
  193MOL     H523429   2.776   6.162   2.543  0.1079  1.7165 -0.5536
  193MOL     H623430   2.731   6.144   2.362 -0.0432 -1.3734  0.0435
  193MOL     H723431   2.719   5.925   2.566 -0.4491  0.7220  0.3353
  193MOL     C823432   2.573   6.131   2.494 -0.0762  0.5433  0.0805
  193MOL     C923433   2.535   6.277   2.451  1.4092 -0.6100 -0.0075
  193MOL    H1023434   2.513   6.061   2.435  1.3695 -0.8898  0.2751
  193MOL    H1123435   2.557   6.118   2.600  1.8193  2.2232  0.6097
  193MOL    H1223436   2.586   6.345   2.520  0.9683  0.3743 -0.6355
  193MOL    H1323437   2.582   6.298   2.355  1.0509  0.0704 -0.0386
  193MOL    C1423438   2.380   6.289   2.447  0.3460 -0.4002 -0.1964
  193MOL    C1523439   2.322   6.419   2.396 -0.1669  0.1629  0.2457
  193MOL    H1623440   2.346   6.204   2.388 -2.3178  1.1312 -0.9270
  193MOL    H1723441   2.341   6.278   2.548 -0.4098  0.4681 -0.3891
  193MOL    H1823442   2.341   6.499   2.468  2.4557 -0.2574  0.0946
  193MOL    H1923443   2.382   6.456   2.313 -2.1199  1.5359 -0.5706
  193MOL    C2023444   2.179   6.403   2.355 -0.0904  0.7160 -1.0588
  193MOL    C2123445   2.118   6.536   2.294  0.0616 -1.0723 -0.5094
  193MOL    H2223446   2.174   6.324   2.280 -2.4757  0.5556 -0.7973
  193MOL    H2323447   2.119   6.367   2.439  0.2083  1.5678 -0.4672
  193MOL    H2423448   2.121   6.608   2.375  1.3423 -0.6745 -0.9019
  193MOL    H2523449   2.174   6.580   2.211  1.7317 -1.0756  0.5841
  193MOL    C2623450   1.969   6.527   2.241  0.4698  0.0781  0.3067
  193MOL    C2723451   1.925   6.659   2.200 -0.2508  0.2850  0.2153
  193MOL    H2823452   1.970   6.461   2.154 -1.1188  2.2808 -1.4078
  193MOL    H2923453   1.895   6.491   2.313 -0.7952  2.4743  0.2430
  193MOL    H3023454   1.929   6.722   2.289  0.6106  0.7458 -0.1429
  193MOL    H3123455   1.989   6.700   2.121  0.4512  1.3189  1.3002
  193MOL    C3223456   1.787   6.668   2.142  0.5056  0.4102 -0.3203
  193MOL    C3323457   1.711   6.792   2.157 -0.1077  0.2820 -0.4279
  193MOL    H3423458   1.784   6.634   2.038  0.1831 -1.9627  0.4405
  193MOL    H3523459   1.730   6.594   2.199 -0.7534  0.2474 -1.7247
  193MOL    H3623460   1.735   6.826   2.258  0.3375 -2.1137  0.3021
  193MOL    H3723461   1.755   6.869   2.094 -0.7741 -0.9062 -2.3828
  193MOL    C3823462   1.554   6.777   2.155  0.8515  0.6839 -0.0173
  193MOL    C3923463   1.489   6.689   2.046 -0.1480  0.0649 -0.0323
  193MOL    H4023464   1.523   6.737   2.251 -1.1201  2.2673  0.0440
  193MOL    H4123465   1.494   6.868   2.153  1.0791  0.8159 -2.4209
  193MOL    H4223466   1.535   6.590   2.038 -2.4084 -0.9762 -0.6814
  193MOL    H4323467   1.385   6.666   2.071 -0.4553 -0.2896 -1.5556
  193MOL    C4423468   1.503   6.750   1.904 -0.1149 -1.2207 -0.0764
  193MOL    C4523469   1.492   6.660   1.780  0.3632 -0.4241  0.2521
  193MOL    H4623470   1.432   6.833   1.896 -0.2497 -1.4473 -1.1762
  193MOL    H4723471   1.600   6.799   1.889  0.5098 -2.4881 -0.1819
  193MOL    H4823472   1.401   6.600   1.781 -1.1037  1.7253  0.1007
  193MOL    H4923473   1.478   6.725   1.694  0.2997  2.6540  2.5195
  193MOL    C5023474   1.628   6.587   1.760 -0.2091 -0.5753  0.4489
  193MOL    C5123475   1.641   6.507   1.624  0.1451  0.4473 -1.0018
  193MOL    H5223476   1.706   6.663   1.760  1.2460 -2.0153 -0.5780
  193MOL    H5323477   1.644   6.514   1.840 -0.6891 -2.7656 -1.4009
  193MOL    H5423478   1.721   6.433   1.628  1.4168  1.7600 -1.6514
  193MOL    H5523479   1.545   6.455   1.618  0.3687 -0.1709  0.3932
  193MOL    C5623480   1.663   6.591   1.504  0.1501  0.8836  0.0731
  193MOL    C5723481   1.682   6.511   1.374 -0.0978 -0.3698  0.3736
  193MOL    H5823482   1.578   6.656   1.481 -0.4315  0.3711  0.7664
  193MOL    H5923483   1.751   6.653   1.521 -0.6465  1.5591  1.7734
  193MOL    H6023484   1.587   6.463   1.349 -0.7847  2.2356 -2.1730
  193MOL    H6123485   1.707   6.578   1.292 -1.1475 -2.4642 -1.7244
  193MOL    C6223486   1.797   6.405   1.383  0.1096  0.5198  0.5005
  193MOL    C6323487   1.844   6.352   1.253  0.3856 -0.2351 -0.1930
  193MOL    H6423488   1.883   6.449   1.432  0.0277 -0.2234  1.3156
  193MOL    H6523489   1.772   6.317   1.442  1.5463 -1.8915 -2.3270
  193MOL    H6623490   1.768   6.305   1.190 -1.4018  1.7156  0.4570
  193MOL    H6723491   1.884   6.437   1.198  0.1812  0.7763  1.2142
  193MOL    C6823492   1.958   6.249   1.265 -0.0119  0.0835 -0.5130
  193MOL    C6923493   1.922   6.120   1.343  1.4201 -0.4817  0.5937
  193MOL    H7023494   1.983   6.220   1.163 -1.2972  1.5103 -1.2585
  193MOL    H7123495   2.050   6.293   1.305 -0.4755 -0.9098  1.7155
  193MOL    H7223496   1.919   6.146   1.449 -0.1734 -0.4783  0.5693
  193MOL    H7323497   1.828   6.080   1.303  2.4482 -1.3217 -1.0554
  193MOL    C7423498   2.034   6.019   1.321  0.2471 -0.3664 -0.4221
  193MOL    C7523499   2.011   5.883   1.386  0.4990  0.2268 -0.2494
  193MOL    H7623500   2.038   5.999   1.214 -0.1999 -1.2561 -0.2750
  193MOL    H7723501   2.131   6.063   1.344  0.6642 -0.9169 -1.0781
  193MOL    H7823502   2.024   5.899   1.493 -1.8141  1.6558 -0.1504
  193MOL    H7923503   1.911   5.841   1.378  0.6482 -0.4767  1.4953
  193MOL    C8023504   2.113   5.781   1.332  0.1105  0.6166 -0.1803
  193MOL    C8123505   2.094   5.636   1.386 -0.5256  0.2671  0.4773
  193MOL    H8223506   2.104   5.779   1.223  1.8407 -1.0444 -0.3061
  193MOL    H8323507   2.212   5.825   1.335 -0.1320  1.1437  0.2786
  193MOL    H8423508   2.108   5.633   1.495  0.1799  1.3757  0.4196
  193MOL    H8523509   1.989   5.616   1.366 -0.0129 -2.7163  0.5008
  193MOL    C8623510   2.172   5.531   1.309 -0.2343 -0.2898 -0.2272
  193MOL    C8723511   2.134   5.383   1.341 -0.5312 -0.9701  0.2880
  193MOL    H8823512   2.149   5.553   1.204  0.9181  1.2428 -0.1777
  193MOL    H8923513   2.279   5.550   1.313 -0.5263  1.0444  1.4955
  193MOL    H9023514   2.161   5.356   1.443  1.2617  3.5075  1.1052
  193MOL    H9123515   2.027   5.368   1.323 -0.8402  2.1616 -0.9127
  193MOL    C9223516   2.216   5.297   1.244 -0.2101  0.3181 -0.3773
  193MOL    C9323517   2.152   5.160   1.234  0.5072  0.0509 -0.9999
  193MOL    H9423518   2.227   5.342   1.145  2.4980  0.4793 -0.0538
  193MOL    H9523519   2.318   5.283   1.281 -0.8075 -2.1609  0.4250
  193MOL    H9623520   2.142   5.103   1.326  0.5080  0.7339 -0.5687
  193MOL    H9723521   2.049   5.172   1.201 -0.3042  0.7107  1.6451
  193MOL    C9823522   2.228   5.074   1.124 -0.0115 -0.5737  0.2067
  193MOL    C9923523   2.171   4.929   1.098  0.1016 -0.3082  0.0855
  193MOL   H10023524   2.233   5.130   1.030  1.2345  0.6266  0.9644
  193MOL   H10123525   2.332   5.074   1.156 -0.1120 -1.6961  0.5643
  193MOL   H10223526   2.181   4.870   1.189 -2.9196 -0.8942  0.1035
  193MOL   H10323527   2.063   4.945   1.099  0.1818  0.3444 -0.7799
  193MOL   C10423528   2.223   4.862   0.970  0.1518  0.0031 -0.0300
  193MOL   C10523529   2.105   4.798   0.895 -0.2558 -0.0344 -0.2856
  193MOL   H10623530   2.269   4.929   0.897 -0.0560 -0.8933 -0.9920
  193MOL   H10723531   2.304   4.792   0.988 -0.5218 -0.8608 -0.3578
  193MOL   H10823532   2.061   4.718   0.954 -0.7283  0.3213 -0.1516
  193MOL   H10923533   2.032   4.877   0.877 -2.1781 -0.7261  3.7368
  193MOL   C11023534   2.151   4.747   0.760 -0.0045 -0.3991  0.1612
  193MOL   C11123535   2.075   4.630   0.688 -0.3099  0.1397  0.3674
  193MOL   H11223536   2.164   4.827   0.686 -1.9845 -0.1680  0.0260
  193MOL   H11323537   2.247   4.700   0.779  0.6197  0.3719 -1.0077
  193MOL   H11423538   2.140   4.599   0.606 -1.8209 -0.2084 -0.7359
  193MOL   H11523539   2.068   4.554   0.765  1.8686 -1.2629 -0.8061
  193MOL   C11623540   1.941   4.675   0.638 -0.3556 -0.3127 -0.5597
  193MOL   C11723541   1.870   4.561   0.562  0.2972  0.0355 -0.2395
  193MOL   H11823542   1.878   4.712   0.719 -0.2977 -1.8957  0.2337
  193MOL   H11923543   1.962   4.764   0.579 -0.0091 -0.6802 -0.9938
  193MOL   H12023544   1.888   4.463   0.606  0.0661  0.2760  0.3918
  193MOL   H12123545   1.764   4.585   0.546 -0.6183 -3.1170  0.7996
  193MOL   H12223546   1.914   4.554   0.462 -0.5871 -0.4728 -0.6063
  194MOL     C123547   5.730   4.913   2.060  0.1795 -0.6282  0.8300
  194MOL     C223548   5.633   4.967   2.165 -0.3848  0.5302  0.2755
  194MOL     H323549   5.825   4.968   2.065  1.5427 -2.8022 -0.2930
  194MOL     H423550   5.685   4.919   1.961  0.6913 -0.0390  0.6228
  194MOL     H523551   5.658   4.959   2.271 -1.6906  0.4596  0.5777
  194MOL     H623552   5.635   5.075   2.150 -0.6944  0.5250  0.1885
  194MOL     H723553   5.751   4.810   2.085  0.1092 -0.7650  0.3394
  194MOL     C823554   5.491   4.918   2.143 -0.5336  0.1562 -0.4594
  194MOL     C923555   5.380   4.951   2.255  0.1313  0.0756 -0.0954
  194MOL    H1023556   5.469   4.950   2.041 -0.0768 -0.2292 -0.6832
  194MOL    H1123557   5.488   4.809   2.150  0.3299  0.2303  1.3810
  194MOL    H1223558   5.389   4.908   2.355  0.9942  0.7549  0.1193
  194MOL    H1323559   5.380   5.059   2.273 -1.0149  0.1206 -0.3089
  194MOL    C1423560   5.233   4.924   2.212 -0.3461 -0.4066  0.3140
  194MOL    C1523561   5.137   4.937   2.332  0.0539 -0.1682  0.2912
  194MOL    H1623562   5.203   4.988   2.129  0.9052 -0.1750  0.0214
  194MOL    H1723563   5.229   4.823   2.172 -0.3009 -1.2628  2.3821
  194MOL    H1823564   5.167   4.876   2.417  0.4397 -1.2710 -0.6285
  194MOL    H1923565   5.142   5.041   2.367  0.4536  0.1505 -0.7057
  194MOL    C2023566   4.993   4.895   2.307 -0.6299 -0.2810 -0.2877
  194MOL    C2123567   4.905   4.888   2.437  0.4864  0.0487 -0.4073
  194MOL    H2223568   4.946   4.970   2.243  0.4358  1.6996  1.1611
  194MOL    H2323569   4.994   4.797   2.261 -0.2746  0.1808 -1.2935
  194MOL    H2423570   4.927   4.975   2.499  1.6549 -0.2024 -0.4524
  194MOL    H2523571   4.809   4.908   2.388  1.7203  2.3334 -1.9925
  194MOL    C2623572   4.907   4.758   2.511  0.2800  0.4660 -0.3932
  194MOL    C2723573   4.811   4.752   2.635 -0.5196  0.4788  0.2328
  194MOL    H2823574   4.881   4.674   2.446 -1.6392  0.2011  0.6636
  194MOL    H2923575   5.009   4.740   2.546  1.6340  2.2663 -3.2613
  194MOL    H3023576   4.845   4.681   2.710 -0.0655 -0.7571 -1.1111
  194MOL    H3123577   4.823   4.849   2.683 -2.5040  1.0949 -0.4697
  194MOL    C3223578   4.659   4.725   2.603  0.3421 -0.3364  0.8677
  194MOL    C3323579   4.570   4.726   2.731 -0.8558 -0.6076  0.3579
  194MOL    H3423580   4.617   4.802   2.539 -0.9053  0.3032  2.4085
  194MOL    H3523581   4.655   4.631   2.548 -2.4783 -0.1153  0.5864
  194MOL    H3623582   4.608   4.665   2.812 -0.1541 -2.4824 -1.3401
  194MOL    H3723583   4.569   4.830   2.764  0.1591 -0.3405 -0.4318
  194MOL    C3823584   4.428   4.685   2.706  0.3745  0.6256 -0.4611
  194MOL    C3923585   4.340   4.694   2.828  0.2312 -0.3929 -0.0462
  194MOL    H4023586   4.391   4.738   2.618  0.4212 -0.1068 -0.9268
  194MOL    H4123587   4.422   4.587   2.658  1.4765  0.0239  0.6022
  194MOL    H4223588   4.388   4.627   2.899  1.1931  0.7937  0.4407
  194MOL    H4323589   4.358   4.798   2.856  2.3412 -0.5741 -0.6582
  194MOL    C4423590   4.186   4.674   2.803 -0.1052  0.5810 -0.3308
  194MOL    C4523591   4.114   4.673   2.932 -0.2126  0.1207  0.5186
  194MOL    H4623592   4.155   4.757   2.740 -1.7445 -1.5423 -2.3978
  194MOL    H4723593   4.162   4.579   2.756  0.4172  0.4871 -0.4121
  194MOL    H4823594   4.148   4.591   2.995 -1.4240 -0.7167  0.1098
  194MOL    H4923595   4.139   4.768   2.979  0.4799  0.7812 -1.1502
  194MOL    C5023596   3.960   4.657   2.907 -0.2383 -0.2224  0.4186
  194MOL    C5123597   3.874   4.722   3.013 -1.0648 -0.2068 -1.0879
  194MOL    H5223598   3.933   4.693   2.807 -0.7530 -0.6490  0.4016
  194MOL    H5323599   3.929   4.554   2.926 -2.4567  0.7894  2.4699
  194MOL    H5423600   3.905   4.690   3.112 -0.0560  0.5065 -1.1642
  194MOL    H5523601   3.893   4.829   3.021 -0.1441 -0.3676 -1.1453
  194MOL    C5623602   3.724   4.690   2.997 -0.3763 -0.0457 -0.8726
  194MOL    C5723603   3.632   4.778   3.080 -0.2183  0.1587 -0.1970
  194MOL    H5823604   3.702   4.716   2.893  1.7409  2.0282 -0.8465
  194MOL    H5923605   3.690   4.591   3.027  1.7682 -0.5632 -0.0805
  194MOL    H6023606   3.658   4.783   3.185 -0.7785 -0.8271 -0.0065
  194MOL    H6123607   3.649   4.878   3.041 -1.2871  0.8707  1.1195
  194MOL    C6223608   3.482   4.743   3.071  0.5961  0.5085  0.5212
  194MOL    C6323609   3.383   4.828   3.144 -0.3657 -0.9764  0.4868
  194MOL    H6423610   3.463   4.754   2.964  1.5144 -0.1470  0.2751
  194MOL    H6523611   3.458   4.641   3.100 -1.1480  0.3617 -1.3361
  194MOL    H6623612   3.294   4.767   3.129 -0.1158 -0.8809 -1.5280
  194MOL    H6723613   3.422   4.841   3.244  0.9738 -0.6727 -0.0614
  194MOL    C6823614   3.350   4.960   3.082 -0.5184 -0.1274 -0.1011
  194MOL    C6923615   3.223   5.024   3.144  0.6575 -0.1834 -0.5422
  194MOL    H7023616   3.441   5.019   3.079 -0.0385 -0.8312  0.4005
  194MOL    H7123617   3.321   4.945   2.978  1.3959  0.4050 -0.7308
  194MOL    H7223618   3.134   4.965   3.165 -0.8826  2.7649  1.5954
  194MOL    H7323619   3.243   5.054   3.247 -1.9264  0.5854 -0.2401
  194MOL    C7423620   3.182   5.147   3.072 -0.0695 -0.5413  0.4216
  194MOL    C7523621   3.288   5.254   3.072  0.1792 -0.6561 -0.4583
  194MOL    H7623622   3.150   5.112   2.973 -1.4665  0.4140  0.5095
  194MOL    H7723623   3.087   5.177   3.115 -1.0191 -1.3207 -1.0718
  194MOL    H7823624   3.384   5.221   3.033  0.1209 -1.2320 -0.1344
  194MOL    H7923625   3.255   5.323   2.995 -1.2111  2.1267  2.4939
  194MOL    C8023626   3.304   5.333   3.206 -0.4198 -0.0533 -0.6054
  194MOL    C8123627   3.405   5.449   3.213 -0.3371 -0.4803  0.7460
  194MOL    H8223628   3.208   5.366   3.246 -0.5327 -2.3744  1.1083
  194MOL    H8323629   3.331   5.259   3.281  0.3683  0.0816 -0.7517
  194MOL    H8423630   3.365   5.531   3.155  1.5855 -0.7712 -1.0333
  194MOL    H8523631   3.405   5.488   3.315 -0.1630 -1.0802  0.9778
  194MOL    C8623632   3.552   5.421   3.171 -0.2449 -0.8694  0.2538
  194MOL    C8723633   3.625   5.318   3.260 -1.2322  0.3227 -0.1798
  194MOL    H8823634   3.572   5.393   3.068  0.6362 -0.8512  0.4156
  194MOL    H8923635   3.608   5.514   3.170 -0.7158 -0.5947 -1.2227
  194MOL    H9023636   3.637   5.356   3.362 -2.6598 -0.2141  0.1956
  194MOL    H9123637   3.556   5.234   3.268 -1.3495  0.4698  0.3556
  194MOL    C9223638   3.763   5.260   3.213  0.0582  0.2302 -0.6703
  194MOL    C9323639   3.813   5.166   3.324 -0.6910  0.0154 -0.5978
  194MOL    H9423640   3.765   5.206   3.119 -0.0569  0.3166 -0.7224
  194MOL    H9523641   3.834   5.342   3.203 -1.1720  1.2217 -1.5121
  194MOL    H9623642   3.822   5.210   3.423  1.3338  1.0077 -1.2007
  194MOL    H9723643   3.732   5.096   3.346 -0.8116  0.3552  0.0417
  194MOL    C9823644   3.938   5.086   3.286  0.1964  0.3026 -0.1342
  194MOL    C9923645   3.975   4.961   3.367  0.2659 -0.0120  0.4021
  194MOL   H10023646   3.928   5.048   3.185  0.8134  2.3317 -0.9766
  194MOL   H10123647   4.024   5.152   3.273  1.3191 -1.0652  0.2046
  194MOL   H10223648   3.986   4.997   3.469  1.1758 -1.6993  0.9234
  194MOL   H10323649   3.896   4.886   3.376 -0.0137  0.2283 -0.0216
  194MOL   C10423650   4.109   4.904   3.326  0.2008  0.3171 -0.4086
  194MOL   C10523651   4.149   4.810   3.442 -0.5394  0.5000  0.5591
  194MOL   H10623652   4.091   4.855   3.231 -2.6845 -1.7835  1.1594
  194MOL   H10723653   4.187   4.979   3.312  1.4891 -0.9018  0.1079
  194MOL   H10823654   4.153   4.862   3.537 -2.0918  0.8118  0.4599
  194MOL   H10923655   4.059   4.749   3.454 -1.6898  1.9629 -0.4709
  194MOL   C11023656   4.276   4.724   3.408 -0.2474 -0.3014 -0.1903
  194MOL   C11123657   4.289   4.597   3.501 -0.2525 -0.1992 -0.2781
  194MOL   H11223658   4.270   4.689   3.305  0.2249 -0.6670 -0.0992
  194MOL   H11323659   4.361   4.793   3.419 -0.2245 -0.4424  0.5410
  194MOL   H11423660   4.312   4.622   3.604 -1.3560 -1.4137  0.2708
  194MOL   H11523661   4.193   4.548   3.490 -1.4812  1.9101  0.8735
  194MOL   C11623662   4.403   4.493   3.464  1.1851 -0.0055 -0.5597
  194MOL   C11723663   4.534   4.516   3.528  0.0087 -0.3864 -0.1890
  194MOL   H11823664   4.376   4.391   3.493  0.8144 -0.2888 -1.8490
  194MOL   H11923665   4.408   4.491   3.355  0.0630 -0.8099 -0.5977
  194MOL   H12023666   4.545   4.625   3.525 -0.0020 -0.3707  0.3301
  194MOL   H12123667   4.532   4.484   3.632  0.6922 -2.6392 -0.8500
  194MOL   H12223668   4.618   4.467   3.478  0.9660 -0.0192  1.0422
  195MOL     C123669   2.681   1.298   4.882 -0.9835 -0.0868  0.4236
  195MOL     C223670   2.530   1.316   4.904  0.1482  0.3373 -0.1349
  195MOL     H323671   2.699   1.309   4.775 -0.6522 -0.8438  0.3941
  195MOL     H423672   2.709   1.200   4.922 -0.6841 -0.7761 -1.4330
  195MOL     H523673   2.509   1.289   5.008  0.7987  1.0347  0.1742
  195MOL     H623674   2.500   1.419   4.887 -2.0317  0.0854  1.8827
  195MOL     H723675   2.744   1.365   4.939 -2.3505  0.6795  1.0654
  195MOL     C823676   2.440   1.225   4.825  0.3118  0.1341 -0.4831
  195MOL     C923677   2.300   1.273   4.798 -0.1044 -0.0924  0.0056
  195MOL    H1023678   2.492   1.213   4.730  2.7470  0.1904  0.7916
  195MOL    H1123679   2.438   1.122   4.859  1.1835  0.4172  0.4507
  195MOL    H1223680   2.312   1.374   4.759  0.2779  1.1047  3.0503
  195MOL    H1323681   2.251   1.211   4.723  0.4691  0.8942 -1.2020
  195MOL    C1423682   2.200   1.287   4.921 -0.3209  0.0454  0.1903
  195MOL    C1523683   2.147   1.156   4.959 -0.0365  0.3932 -0.4715
  195MOL    H1623684   2.244   1.341   5.005 -1.8489 -0.8281  1.5594
  195MOL    H1723685   2.119   1.348   4.882 -1.0463 -0.6655  0.5596
  195MOL    H1823686   2.105   1.105   4.872  1.5515 -1.0157 -0.4209
  195MOL    H1923687   2.223   1.093   5.003  0.6376  1.8818  0.5386
  195MOL    C2023688   2.052   1.184   5.082 -0.1549 -0.0650 -0.3750
  195MOL    C2123689   1.969   1.068   5.134  0.2582  0.4243  0.1025
  195MOL    H2223690   2.118   1.234   5.154  0.5278 -0.1442 -0.9371
  195MOL    H2323691   1.982   1.260   5.049  1.6677  1.7264 -0.2793
  195MOL    H2423692   1.909   1.027   5.053 -0.2167 -0.7105  1.0251
  195MOL    H2523693   2.025   0.978   5.160 -0.8803 -1.0362 -2.3339
  195MOL    C2623694   1.884   1.096   5.257 -0.0298  0.0599  0.7997
  195MOL    C2723695   1.797   0.974   5.293  0.3848  0.4067  0.1296
  195MOL    H2823696   1.956   1.121   5.335 -0.1828  3.4230 -0.0617
  195MOL    H2923697   1.819   1.182   5.243 -0.6864 -0.0594  3.0061
  195MOL    H3023698   1.714   0.971   5.222 -1.4297 -0.9801  2.2284
  195MOL    H3123699   1.858   0.883   5.284 -0.3509 -0.4907  3.4450
  195MOL    C3223700   1.732   0.985   5.431 -0.4917  0.2189 -0.3407
  195MOL    C3323701   1.610   0.904   5.440 -0.1644  0.2944 -0.8776
  195MOL    H3423702   1.795   0.954   5.515  0.5377 -0.1867 -1.2507
  195MOL    H3523703   1.697   1.086   5.451 -0.3433  0.3772 -0.8683
  195MOL    H3623704   1.569   0.919   5.540  0.2416 -1.0595 -0.4965
  195MOL    H3723705   1.545   0.946   5.364 -0.7333  1.7554  0.3740
  195MOL    C3823706   1.622   0.750   5.422 -0.1663  0.1528  0.0259
  195MOL    C3923707   1.503   0.674   5.470  0.2414  0.0636 -0.4096
  195MOL    H4023708   1.653   0.723   5.322 -0.0726 -1.4436  0.4675
  195MOL    H4123709   1.709   0.727   5.485 -0.3324  2.8012  1.3124
  195MOL    H4223710   1.466   0.699   5.570  1.1886  0.6075 -0.1928
  195MOL    H4323711   1.419   0.696   5.404 -0.4028  0.4743  0.5310
  195MOL    C4423712   1.532   0.531   5.477 -1.2291  0.4796 -0.8417
  195MOL    C4523713   1.412   0.442   5.508  0.3850  0.7663 -0.6574
  195MOL    H4623714   1.586   0.500   5.388  0.8051 -1.0685  0.8631
  195MOL    H4723715   1.599   0.504   5.559 -2.0243 -0.8597 -0.6249
  195MOL    H4823716   1.385   0.467   5.611  0.0356 -0.9600 -0.3169
  195MOL    H4923717   1.324   0.464   5.449  0.2336 -0.5188 -0.9202
  195MOL    C5023718   1.449   0.294   5.508  0.1672  0.7363  0.0530
  195MOL    C5123719   1.349   0.216   5.595 -0.4464 -0.2583  0.3471
  195MOL    H5223720   1.443   0.253   5.407 -0.7270 -0.2103  0.4850
  195MOL    H5323721   1.550   0.266   5.535 -0.6824 -0.4990  1.9752
  195MOL    H5423722   1.327   0.267   5.689  0.7868  0.8631  0.0388
  195MOL    H5523723   1.250   0.225   5.551 -0.0861  4.0707  0.1826
  195MOL    C5623724   1.376   0.065   5.600  0.0339 -0.3072  0.0498
  195MOL    C5723725   1.255   7.681   5.539 -0.7969  0.1165 -0.2917
  195MOL    H5823726   1.461   0.053   5.532 -1.2215 -1.1852 -1.3946
  195MOL    H5923727   1.423   0.039   5.695  0.4396 -0.4969 -0.1970
  195MOL    H6023728   1.164   0.011   5.594 -0.6874 -1.2774  0.4534
  195MOL    H6123729   1.248   0.031   5.439 -3.0798  1.0273  0.2289
  195MOL    C6223730   1.271   7.530   5.514  0.4446 -0.5688  0.4633
  195MOL    C6323731   1.139   7.444   5.499  0.0422 -0.0028 -0.5015
  195MOL    H6423732   1.342   7.516   5.433  4.2167 -0.0290  3.5398
  195MOL    H6523733   1.324   7.484   5.598  1.5037 -1.1879 -0.5322
  195MOL    H6623734   1.080   7.454   5.589 -1.9745 -1.4961 -1.6161
  195MOL    H6723735   1.071   7.485   5.424 -0.3595 -0.8900 -0.6250
  195MOL    C6823736   1.162   7.293   5.482 -0.4061 -0.1548 -0.6860
  195MOL    C6923737   1.036   7.208   5.458 -0.0384  0.4284 -0.4616
  195MOL    H7023738   1.224   7.279   5.394 -2.1735 -1.8800 -1.7105
  195MOL    H7123739   1.208   7.254   5.573 -1.8603 -0.7480 -0.1915
  195MOL    H7223740   1.068   7.113   5.499  1.3417  1.4272  0.8303
  195MOL    H7323741   0.957   7.247   5.522  0.8779 -1.7592  2.0694
  195MOL    C7423742   0.988   7.200   5.309  0.4732 -0.0684 -0.4550
  195MOL    C7523743   0.884   7.090   5.276 -0.5405 -0.4319  0.0928
  195MOL    H7623744   0.929   7.285   5.274 -1.1211 -0.5557  1.0175
  195MOL    H7723745   1.076   7.194   5.244 -0.4824 -2.6290 -1.5697
  195MOL    H7823746   0.938   6.998   5.300 -1.2031 -1.4345 -2.1241
  195MOL    H7923747   0.794   7.090   5.337 -0.8366 -0.1125 -0.3391
  195MOL    C8023748   0.843   7.077   5.122  0.1027  0.6262  0.4457
  195MOL    C8123749   0.966   7.044   5.031 -0.8059  0.8348 -0.1308
  195MOL    H8223750   0.764   7.009   5.090  0.3477  1.2308 -1.5205
  195MOL    H8323751   0.802   7.173   5.093 -1.4296 -0.0372  0.3561
  195MOL    H8423752   1.050   7.014   5.093 -1.5584 -1.1865 -0.0629
  195MOL    H8523753   0.945   6.955   4.972  1.3817  0.1215  0.1179
  195MOL    C8623754   1.009   7.157   4.937  1.0540  0.2496 -0.3285
  195MOL    C8723755   1.093   7.118   4.811 -0.6134 -0.4274 -0.7853
  195MOL    H8823756   0.921   7.216   4.913  0.6444  1.4920  3.8816
  195MOL    H8923757   1.062   7.237   4.989  1.6755  0.5081 -1.3302
  195MOL    H9023758   1.186   7.074   4.847 -0.8795 -2.0533 -2.0268
  195MOL    H9123759   1.051   7.032   4.758 -1.2770 -1.3049  1.1282
  195MOL    C9223760   1.147   7.230   4.721 -0.0096 -0.0847  0.2869
  195MOL    C9323761   1.045   7.272   4.616  0.2968  0.2311  0.5714
  195MOL    H9423762   1.170   7.322   4.775  1.5689 -0.0940 -0.3452
  195MOL    H9523763   1.231   7.190   4.664 -1.0879  0.4512 -1.7095
  195MOL    H9623764   1.022   7.186   4.553  0.2567 -0.8001  1.9829
  195MOL    H9723765   0.952   7.299   4.667  1.0078 -1.0519  2.5958
  195MOL    C9823766   1.092   7.383   4.528 -0.2981 -0.2152 -0.4760
  195MOL    C9923767   1.171   7.498   4.583  0.1639  0.0843 -0.3346
  195MOL   H10023768   1.162   7.339   4.457  1.2218  1.9905 -0.3904
  195MOL   H10123769   1.010   7.422   4.466 -0.1217  0.7997 -0.0842
  195MOL   H10223770   1.105   7.557   4.646  0.8823  0.2521  0.2741
  195MOL   H10323771   1.259   7.464   4.638 -0.1761 -0.8056 -0.3360
  195MOL   C10423772   1.213   7.598   4.471 -0.1887  0.2106  0.4352
  195MOL   C10523773   1.317   7.542   4.361 -0.1198 -0.2046  0.1296
  195MOL   H10623774   1.125   7.643   4.427 -0.6316  0.8276  1.9353
  195MOL   H10723775   1.267   7.683   4.513  1.5394 -1.8526  2.5890
  195MOL   H10823776   1.399   7.482   4.399 -0.1885  0.1557  0.8463
  195MOL   H10923777   1.261   7.472   4.299 -0.2860 -1.1845  1.3673
  195MOL   C11023778   1.370   7.653   4.275 -0.2412 -0.1385  0.2056
  195MOL   C11123779   1.455   7.608   4.151 -0.6311 -0.1988 -0.4620
  195MOL   H11223780   1.286   0.025   4.245 -0.4627 -1.1406 -1.4082
  195MOL   H11323781   1.428   0.034   4.332 -0.3351  1.6479 -1.8947
  195MOL   H11423782   1.543   7.554   4.184 -0.6152 -2.0411 -3.3090
  195MOL   H11523783   1.409   7.529   4.091  0.4164  0.1885 -1.7908
  195MOL   C11623784   1.499   0.030   4.053 -0.0469  0.0015  0.3655
  195MOL   C11723785   1.616   7.679   3.962 -0.0559 -0.5881  0.2890
  195MOL   H11823786   1.419   0.061   3.986 -0.4199 -0.5781  0.5394
  195MOL   H11923787   1.527   0.121   4.105 -0.7671 -0.6155  1.8771
  195MOL   H12023788   1.695   7.650   4.032  1.1879  1.5136 -0.2106
  195MOL   H12123789   1.591   7.610   3.882  1.7788  1.0115 -1.7463
  195MOL   H12223790   1.644   0.065   3.891  0.5701 -1.2701 -0.2154
  196MOL     C123791   6.598   1.234   1.087  0.0383  0.0298 -0.4644
  196MOL     C223792   6.724   1.230   1.174  0.4156  0.6394  0.8007
  196MOL     H323793   6.601   1.162   1.005 -0.7781 -0.2578 -0.2485
  196MOL     H423794   6.580   1.323   1.028  3.1951 -0.1263 -1.7682
  196MOL     H523795   6.817   1.257   1.124  1.3327 -1.4439  1.3294
  196MOL     H623796   6.707   1.301   1.255  0.0172  1.2555  0.1844
  196MOL     H723797   6.509   1.208   1.145  0.3228  1.7086  0.7559
  196MOL     C823798   6.744   1.096   1.253 -0.2370  0.8611  0.1384
  196MOL     C923799   6.861   1.105   1.350 -0.4308 -0.2136 -0.0042
  196MOL    H1023800   6.652   1.067   1.304  0.0256 -5.1235 -2.3561
  196MOL    H1123801   6.762   1.011   1.187 -2.0596 -0.8756  1.7935
  196MOL    H1223802   6.954   1.089   1.297 -0.6911  0.2381 -0.6110
  196MOL    H1323803   6.882   1.204   1.390  1.0115 -0.1632 -0.8571
  196MOL    C1423804   6.869   1.002   1.455 -0.6390  0.5923 -0.5766
  196MOL    C1523805   6.984   1.044   1.562  0.1409  0.5731 -0.5796
  196MOL    H1623806   6.770   0.990   1.500  2.0791 -2.4560  5.1066
  196MOL    H1723807   6.903   0.910   1.408 -1.5532  0.4108 -0.8880
  196MOL    H1823808   7.040   0.953   1.584  0.5445  1.4984  2.4137
  196MOL    H1923809   7.056   1.115   1.522  0.3891  0.6054 -0.0834
  196MOL    C2023810   6.921   1.110   1.690  0.1816  0.3118  0.5743
  196MOL    C2123811   6.860   1.254   1.665 -0.2450  0.0265 -0.4707
  196MOL    H2223812   6.842   1.049   1.735 -0.5005  1.3868  0.8599
  196MOL    H2323813   6.998   1.122   1.766  0.1555  1.0482  0.4860
  196MOL    H2423814   6.935   1.322   1.625 -0.7073  0.5871 -0.3802
  196MOL    H2523815   6.787   1.253   1.585  1.6580  1.2810 -2.2658
  196MOL    C2623816   6.810   1.320   1.790 -0.1701 -0.2798 -0.5517
  196MOL    C2723817   6.734   1.447   1.750 -0.5667 -0.0851  0.3674
  196MOL    H2823818   6.755   1.253   1.856  1.4668  0.2206  1.3855
  196MOL    H2923819   6.896   1.340   1.854 -0.1382  0.7556 -0.9105
  196MOL    H3023820   6.786   1.503   1.672 -1.8001  2.4214  1.2899
  196MOL    H3123821   6.644   1.418   1.697 -1.0342  0.8066  0.6689
  196MOL    C3223822   6.673   1.546   1.858 -0.2697 -0.2386  0.4525
  196MOL    C3323823   6.575   1.648   1.804 -0.4668 -0.0405 -0.3193
  196MOL    H3423824   6.620   1.478   1.925 -1.2387  0.7347  0.6861
  196MOL    H3523825   6.758   1.597   1.904 -0.7441  0.7415  0.2407
  196MOL    H3623826   6.630   1.708   1.732 -0.7567 -1.0717 -1.4178
  196MOL    H3723827   6.494   1.602   1.748 -0.5152 -2.4588  1.6583
  196MOL    C3823828   6.515   1.724   1.930  0.0120  0.7532 -0.2468
  196MOL    C3923829   6.432   1.639   2.028  0.0872  0.3185  0.4932
  196MOL    H4023830   6.597   1.776   1.981  1.8752 -2.7054  0.5182
  196MOL    H4123831   6.452   1.799   1.884 -0.6591  1.3909  1.6548
  196MOL    H4223832   6.498   1.557   2.056 -2.0757 -2.4668 -2.2279
  196MOL    H4323833   6.405   1.705   2.110 -0.5888  0.2884  0.2951
  196MOL    C4423834   6.305   1.574   1.974 -0.3547 -0.1714  0.0086
  196MOL    C4523835   6.226   1.502   2.084 -0.2267 -0.2080  0.6863
  196MOL    H4623836   6.249   1.650   1.920  0.1245 -0.4928 -0.9349
  196MOL    H4723837   6.333   1.514   1.888 -0.8988 -0.3861 -0.0160
  196MOL    H4823838   6.285   1.423   2.132  2.7736 -0.3675 -3.0467
  196MOL    H4923839   6.194   1.580   2.153 -0.5326  1.0781 -0.8825
  196MOL    C5023840   6.107   1.432   2.004  0.2160  0.0908 -0.2809
  196MOL    C5123841   6.007   1.347   2.086  0.0619  0.1374 -0.2443
  196MOL    H5223842   6.037   1.499   1.955  0.8602  3.2130  2.8984
  196MOL    H5323843   6.149   1.369   1.925  0.5666 -0.2365  0.1660
  196MOL    H5423844   6.053   1.261   2.134  0.2572 -0.9495 -2.3235
  196MOL    H5523845   5.971   1.403   2.173  0.6277  1.0464 -0.5934
  196MOL    C5623846   5.899   1.291   1.997  0.8219 -0.1890 -0.0764
  196MOL    C5723847   5.821   1.193   2.083 -0.1430  0.5714  0.2156
  196MOL    H5823848   5.830   1.366   1.958  1.6543  0.1708 -0.8759
  196MOL    H5923849   5.927   1.237   1.906  1.2331 -0.4727  0.2193
  196MOL    H6023850   5.893   1.119   2.117 -1.9303 -1.2957 -0.0116
  196MOL    H6123851   5.777   1.245   2.168  0.2059  0.6284  0.3614
  196MOL    C6223852   5.712   1.124   1.999 -0.4775  0.1216  0.2511
  196MOL    C6323853   5.598   1.070   2.087  0.3634  0.2340  0.7905
  196MOL    H6423854   5.679   1.192   1.921  0.0341 -0.7292 -0.7134
  196MOL    H6523855   5.763   1.053   1.934  1.5212  1.9511 -0.2370
  196MOL    H6623856   5.531   1.152   2.113  0.4685  0.3163  0.8023
  196MOL    H6723857   5.544   1.003   2.020  0.0204  2.0137 -0.7841
  196MOL    C6823858   5.643   0.997   2.212 -0.0580  0.0459  0.5230
  196MOL    C6923859   5.535   0.899   2.260  0.3050  0.2182 -0.4981
  196MOL    H7023860   5.732   0.939   2.187  1.4298  2.1517  0.8289
  196MOL    H7123861   5.669   1.062   2.295 -0.7243 -0.7712  1.3837
  196MOL    H7223862   5.432   0.932   2.246  0.1944 -0.0691 -0.3774
  196MOL    H7323863   5.529   0.811   2.196 -1.9778 -1.1283  1.4828
  196MOL    C7423864   5.570   0.857   2.407 -0.2663 -0.7081 -0.0357
  196MOL    C7523865   5.505   0.732   2.454  0.2589  0.3112 -0.6809
  196MOL    H7623866   5.677   0.837   2.411 -0.1297 -0.2992 -1.5005
  196MOL    H7723867   5.542   0.948   2.461  1.6882  1.8767 -3.1528
  196MOL    H7823868   5.555   0.641   2.420  1.9305  1.1490 -0.5071
  196MOL    H7923869   5.531   0.723   2.560  0.3911 -2.2996 -0.9096
  196MOL    C8023870   5.352   0.721   2.448  0.3162  0.0640 -0.1419
  196MOL    C8123871   5.293   0.594   2.521 -0.7927 -0.4504  0.3538
  196MOL    H8223872   5.300   0.808   2.486  0.1565 -0.3464  0.5846
  196MOL    H8323873   5.329   0.715   2.341  1.5997  1.0162 -0.4862
  196MOL    H8423874   5.358   0.508   2.510 -0.1140  0.3069 -1.6451
  196MOL    H8523875   5.290   0.603   2.630  0.0251 -1.6024  0.4767
  196MOL    C8623876   5.152   0.559   2.468 -0.9062 -0.5266 -0.1600
  196MOL    C8723877   5.089   0.451   2.562  0.5903  0.0354 -0.4304
  196MOL    H8823878   5.086   0.645   2.462  0.4474  0.6033  0.8454
  196MOL    H8923879   5.170   0.533   2.363  1.6065  0.0146  0.1087
  196MOL    H9023880   5.159   0.381   2.608 -0.9841 -0.4618  1.2781
  196MOL    H9123881   5.052   0.509   2.647 -0.0175 -2.6932  1.2207
  196MOL    C9223882   4.971   0.386   2.491 -0.0537 -1.1246  0.2165
  196MOL    C9323883   4.888   0.296   2.585  0.4916  0.2297 -0.3203
  196MOL    H9423884   4.900   0.452   2.441  0.6471  0.9339  1.8642
  196MOL    H9523885   5.013   0.316   2.418  2.5145  0.0970  0.4975
  196MOL    H9623886   4.820   0.224   2.538 -0.0024 -1.9757  3.5790
  196MOL    H9723887   4.969   0.237   2.626  0.0069 -0.6452 -0.6115
  196MOL    C9823888   4.816   0.360   2.704  0.2964  0.2165  0.0425
  196MOL    C9923889   4.751   0.251   2.793  0.0020  0.5623  0.3255
  196MOL   H10023890   4.882   0.427   2.760  0.6047 -0.4918  0.5379
  196MOL   H10123891   4.734   0.421   2.666 -1.8030 -2.0664  0.7540
  196MOL   H10223892   4.665   0.203   2.746 -1.5771  1.0317  2.6169
  196MOL   H10323893   4.830   0.178   2.806  0.5847  0.6811 -2.2513
  196MOL   C10423894   4.718   0.310   2.935  0.6128  0.2579  0.5349
  196MOL   C10523895   4.629   0.227   3.033  0.1751 -0.1865 -0.7315
  196MOL   H10623896   4.811   0.339   2.983 -0.2403  0.3060  2.2227
  196MOL   H10723897   4.676   0.410   2.920  2.2557  1.0145  0.9236
  196MOL   H10823898   4.536   0.207   2.980 -1.9280  2.6134  1.7485
  196MOL   H10923899   4.686   0.141   3.067 -1.4940 -0.2443  1.9824
  196MOL   C11023900   4.592   0.304   3.162 -0.4598  0.2244 -0.3121
  196MOL   C11123901   4.506   0.231   3.259 -0.1958 -0.0624  0.4768
  196MOL   H11223902   4.684   0.332   3.212  0.2607 -0.1375 -1.4036
  196MOL   H11323903   4.539   0.393   3.127 -0.0561 -0.0055 -1.5236
  196MOL   H11423904   4.561   0.142   3.290  0.5688  0.9124  2.0061
  196MOL   H11523905   4.483   0.295   3.344 -1.8459 -1.4631  1.1131
  196MOL   C11623906   4.367   0.184   3.211  0.2081  0.6141  0.3897
  196MOL   C11723907   4.266   0.304   3.199  0.1026  0.0290 -0.3875
  196MOL   H11823908   4.376   0.126   3.119 -1.4298 -0.6870  1.0121
  196MOL   H11923909   4.320   0.109   3.274 -0.9395  0.8615 -0.1539
  196MOL   H12023910   4.318   0.384   3.147  0.1377  1.1149  1.3127
  196MOL   H12123911   4.171   0.297   3.146 -0.8051  0.3667  1.1623
  196MOL   H12223912   4.245   0.348   3.296  2.1528 -0.6792  0.4148
  197MOL     C123913   1.864   1.616   3.970  0.7211 -0.2125 -0.1918
  197MOL     C223914   1.971   1.644   4.078 -0.4002  0.1897  0.4880
  197MOL     H323915   1.817   1.707   3.934 -0.4409 -0.7948 -0.1524
  197MOL     H423916   1.790   1.547   4.011  1.3012 -0.1827  0.9543
  197MOL     H523917   1.923   1.677   4.170  0.1648 -0.5245  1.0430
  197MOL     H623918   2.007   1.545   4.105 -1.8232 -1.3493 -2.9570
  197MOL     H723919   1.916   1.572   3.885 -0.5696 -3.1284  0.4812
  197MOL     C823920   2.089   1.739   4.040 -0.4164 -1.1773 -0.7976
  197MOL     C923921   2.038   1.881   4.019 -0.5623 -0.4637  0.3204
  197MOL    H1023922   2.172   1.744   4.110  0.2287 -2.0606 -1.4899
  197MOL    H1123923   2.142   1.704   3.951  1.3377  1.4319 -0.8516
  197MOL    H1223924   1.965   1.881   3.938 -2.2136 -0.9126  1.7703
  197MOL    H1323925   1.984   1.914   4.108 -3.5629  0.1023 -1.6144
  197MOL    C1423926   2.151   1.980   3.986 -0.5159  0.1019 -0.4001
  197MOL    C1523927   2.096   2.121   3.956  0.7391 -0.1926  0.3334
  197MOL    H1623928   2.234   1.977   4.057 -0.4787 -0.7868 -0.4717
  197MOL    H1723929   2.203   1.953   3.895  1.8062  0.3793  0.8136
  197MOL    H1823930   2.002   2.112   3.902  1.2387  0.8577 -0.7465
  197MOL    H1923931   2.066   2.168   4.050  0.9689 -1.5429  1.0865
  197MOL    C2023932   2.195   2.215   3.879 -0.2332  0.0641 -0.1655
  197MOL    C2123933   2.131   2.348   3.855  0.1815  0.2431 -0.4136
  197MOL    H2223934   2.275   2.234   3.951  1.8955 -2.9337 -1.6459
  197MOL    H2323935   2.251   2.176   3.795  1.6590  0.9117  0.6871
  197MOL    H2423936   2.049   2.327   3.786 -2.0764  0.7059  2.0421
  197MOL    H2523937   2.090   2.399   3.942 -0.6145 -0.9879 -0.0403
  197MOL    C2623938   2.220   2.441   3.778 -0.0706  0.0302  0.6567
  197MOL    C2723939   2.150   2.574   3.731  0.0491 -0.5280 -0.2887
  197MOL    H2823940   2.305   2.477   3.836 -0.5676  1.2896  0.6232
  197MOL    H2923941   2.271   2.386   3.700  0.0980  0.8271  0.2003
  197MOL    H3023942   2.121   2.642   3.811 -0.9992 -0.5280 -0.6592
  197MOL    H3123943   2.220   2.629   3.667  1.0014  0.7585  1.7852
  197MOL    C3223944   2.032   2.554   3.633 -0.5981 -0.1106  0.3110
  197MOL    C3323945   2.065   2.460   3.512  0.3152 -0.0705 -0.1192
  197MOL    H3423946   1.953   2.505   3.690 -2.8999  2.0229 -0.9657
  197MOL    H3523947   1.993   2.649   3.596 -2.4011 -0.5769  0.9546
  197MOL    H3623948   2.147   2.501   3.452 -2.7990  1.8617 -3.2754
  197MOL    H3723949   2.088   2.360   3.548  1.4871  0.0186 -0.5808
  197MOL    C3823950   1.939   2.438   3.423  0.1158  0.2257  0.2713
  197MOL    C3923951   1.974   2.375   3.288  0.4938 -0.2098 -0.0574
  197MOL    H4023952   1.866   2.374   3.473  1.7531  0.1430  2.6794
  197MOL    H4123953   1.888   2.533   3.405 -0.7440 -0.3267 -0.2472
  197MOL    H4223954   1.877   2.370   3.238 -1.0190 -1.0924  2.8418
  197MOL    H4323955   2.045   2.432   3.228  0.0039  0.9981  0.4844
  197MOL    C4423956   2.035   2.236   3.312  1.0142 -0.2916 -0.0816
  197MOL    C4523957   2.052   2.160   3.177 -0.2580 -0.4949  0.0416
  197MOL    H4623958   2.139   2.243   3.344  1.1009  0.2030 -0.4729
  197MOL    H4723959   1.977   2.188   3.391  0.3430  2.3039  1.0456
  197MOL    H4823960   1.956   2.178   3.128  0.4892  0.9721 -0.9255
  197MOL    H4923961   2.125   2.215   3.118  1.2792 -0.4070  1.9568
  197MOL    C5023962   2.094   2.017   3.193  0.5799  0.5516 -0.2803
  197MOL    C5123963   2.243   2.000   3.238 -0.8143 -0.2976 -0.2206
  197MOL    H5223964   2.026   1.965   3.261  0.2309 -1.9152 -2.4361
  197MOL    H5323965   2.082   1.951   3.107 -1.3522 -1.2689  1.3025
  197MOL    H5423966   2.313   1.977   3.158  2.4269  0.5033  2.2834
  197MOL    H5523967   2.277   2.094   3.281  0.1396 -1.0784  0.7975
  197MOL    C5623968   2.265   1.899   3.350 -0.7497  0.1265  0.2438
  197MOL    C5723969   2.409   1.896   3.413  0.1809 -0.0198  0.0587
  197MOL    H5823970   2.191   1.921   3.426 -0.5290  2.4576 -0.1978
  197MOL    H5923971   2.241   1.796   3.324  0.5930  0.5775 -3.0565
  197MOL    H6023972   2.489   1.885   3.339  0.9778  0.8559  0.7752
  197MOL    H6123973   2.428   1.994   3.457  0.0555 -0.4386  1.0694
  197MOL    C6223974   2.422   1.784   3.518 -0.0074  0.6066 -0.5566
  197MOL    C6323975   2.566   1.755   3.569  0.8197  0.2668 -0.3231
  197MOL    H6423976   2.364   1.815   3.604  1.6495  0.1763  0.7548
  197MOL    H6523977   2.375   1.691   3.486 -1.9513  0.9520  1.2120
  197MOL    H6623978   2.631   1.834   3.531  1.4564  0.0028  0.1979
  197MOL    H6723979   2.573   1.746   3.677 -0.7911 -0.9749 -0.3003
  197MOL    C6823980   2.612   1.614   3.525 -0.3912  0.4155 -0.3238
  197MOL    C6923981   2.757   1.580   3.552  0.5625 -0.3441  0.0674
  197MOL    H7023982   2.537   1.538   3.546  1.6321 -1.5630 -0.1004
  197MOL    H7123983   2.612   1.619   3.416 -0.9639  1.4078 -0.2911
  197MOL    H7223984   2.806   1.674   3.526 -0.9075  0.2875 -0.4848
  197MOL    H7323985   2.776   1.568   3.659  0.9308  1.7125  0.2554
  197MOL    C7423986   2.814   1.455   3.480 -0.1736 -0.5374 -0.6994
  197MOL    C7523987   2.960   1.434   3.517 -0.0332  0.8880 -0.2724
  197MOL    H7623988   2.754   1.368   3.507  0.4107 -1.0470 -1.0118
  197MOL    H7723989   2.812   1.467   3.371 -0.6461  0.1717 -0.6082
  197MOL    H7823990   3.000   1.532   3.492 -0.2861  1.6348  2.1754
  197MOL    H7923991   2.961   1.433   3.626  2.2419  2.2436 -0.2354
  197MOL    C8023992   3.011   1.306   3.450 -0.1096  0.2460 -0.5231
  197MOL    C8123993   3.161   1.281   3.473  0.3385 -0.0844  0.6314
  197MOL    H8223994   2.953   1.220   3.484  1.8767 -0.6670  0.6340
  197MOL    H8323995   2.983   1.315   3.345  1.2404  1.5220 -0.7837
  197MOL    H8423996   3.208   1.377   3.452 -2.1017  1.6339  2.6318
  197MOL    H8523997   3.190   1.256   3.575 -0.9700 -0.6669  0.8654
  197MOL    C8623998   3.202   1.166   3.379 -0.2036  0.1413  0.0497
  197MOL    C8723999   3.356   1.142   3.389 -0.3823 -0.0399  0.0574
  197MOL    H8824000   3.134   1.083   3.396  1.9218 -1.3295  1.6428
  197MOL    H8924001   3.170   1.187   3.277  0.9778  1.7676 -0.0119
  197MOL    H9024002   3.413   1.234   3.372 -3.6284  2.0804  0.3368
  197MOL    H9124003   3.377   1.098   3.486  1.1331 -1.0719 -0.7051
  197MOL    C9224004   3.410   1.041   3.282 -0.2935  0.1796  0.3225
  197MOL    C9324005   3.542   0.966   3.299  0.5656  0.6791 -0.7283
  197MOL    H9424006   3.331   0.966   3.277  0.5396 -0.6366 -0.8471
  197MOL    H9524007   3.403   1.089   3.184  2.6628  0.6058  0.2971
  197MOL    H9624008   3.629   1.031   3.310 -0.9115  3.0596 -2.5691
  197MOL    H9724009   3.542   0.897   3.383  0.6272 -1.5619 -2.5346
  197MOL    C9824010   3.561   0.883   3.167 -0.0633  0.9094  0.6070
  197MOL    C9924011   3.694   0.817   3.165  0.1217  0.6636  0.0985
  197MOL   H10024012   3.485   0.808   3.149  1.2054 -0.5897  1.3380
  197MOL   H10124013   3.547   0.956   3.088  0.5254  1.4672  1.0064
  197MOL   H10224014   3.771   0.885   3.204  1.3880 -1.0244  0.6200
  197MOL   H10324015   3.700   0.736   3.238  0.2245 -0.4899 -1.1689
  197MOL   C10424016   3.723   0.753   3.027  0.1864  0.4741 -1.4288
  197MOL   C10524017   3.865   0.692   3.019  0.3402 -0.0435 -0.1490
  197MOL   H10624018   3.660   0.665   3.009  0.3026 -0.1365  0.9937
  197MOL   H10724019   3.715   0.824   2.945 -4.6833 -0.6101 -2.0524
  197MOL   H10824020   3.931   0.778   3.028 -1.2882  1.1017  0.9645
  197MOL   H10924021   3.889   0.626   3.103  0.4273  1.8661  1.3517
  197MOL   C11024022   3.883   0.610   2.882 -0.6200  0.5134 -0.6906
  197MOL   C11124023   4.030   0.555   2.878 -0.2896 -0.4599 -0.0178
  197MOL   H11224024   3.804   0.536   2.878  2.0246 -2.5652  1.4569
  197MOL   H11324025   3.862   0.674   2.796 -1.7290  0.5600 -0.3853
  197MOL   H11424026   4.049   0.489   2.963 -2.5440 -1.4585 -0.2496
  197MOL   H11524027   4.018   0.496   2.787 -0.8770 -2.2058  1.1617
  197MOL   C11624028   4.143   0.651   2.851  0.3343  0.0695 -0.5556
  197MOL   C11724029   4.272   0.574   2.813 -1.1106 -0.2481  0.9965
  197MOL   H11824030   4.116   0.720   2.771  1.1142 -2.5361 -3.1533
  197MOL   H11924031   4.158   0.710   2.941  0.9632  2.0513 -1.9279
  197MOL   H12024032   4.355   0.642   2.798 -0.2376 -1.5379 -0.1288
  197MOL   H12124033   4.309   0.499   2.883 -1.2900 -1.7293 -0.4718
  197MOL   H12224034   4.245   0.522   2.721  0.9881  0.9979 -0.3442
  198MOL     C124035   5.045   7.238   2.707  0.8811  0.1751 -0.9017
  198MOL     C224036   5.155   7.222   2.816  0.4473 -0.4280  0.1958
  198MOL     H324037   4.966   7.163   2.711  0.4169  0.7092  0.3656
  198MOL     H424038   5.079   7.236   2.604 -0.7378  0.3664 -1.4494
  198MOL     H524039   5.213   7.314   2.815  0.6607 -0.5719 -1.7155
  198MOL     H624040   5.122   7.196   2.917 -0.2788 -0.9311 -0.1696
  198MOL     H724041   5.005   7.338   2.724 -0.2866 -0.3605 -0.4323
  198MOL     C824042   5.268   7.129   2.764 -0.7191 -0.1714  0.4574
  198MOL     C924043   5.385   7.111   2.866  0.8107 -1.1802 -0.0805
  198MOL    H1024044   5.225   7.033   2.735 -0.9903 -0.1176  0.6797
  198MOL    H1124045   5.311   7.176   2.676 -2.1954 -0.2001 -0.2852
  198MOL    H1224046   5.414   7.210   2.900  0.7901 -0.7731 -1.2197
  198MOL    H1324047   5.340   7.057   2.949 -1.2625 -0.1010 -0.4708
  198MOL    C1424048   5.506   7.033   2.805 -0.1284  0.4799 -0.6969
  198MOL    C1524049   5.622   6.992   2.896 -0.2796 -0.4983 -0.1560
  198MOL    H1624050   5.467   6.937   2.770  0.2318 -0.4963  1.4936
  198MOL    H1724051   5.526   7.090   2.714  0.1401  1.7594  0.1485
  198MOL    H1824052   5.663   7.084   2.939  0.8771 -0.6979 -0.8131
  198MOL    H1924053   5.574   6.937   2.977  1.4301 -2.8188 -0.6913
  198MOL    C2024054   5.742   6.906   2.830 -0.4031 -0.0081 -0.7086
  198MOL    C2124055   5.840   6.860   2.943  0.1101  0.4616 -0.2237
  198MOL    H2224056   5.705   6.822   2.772 -1.0698  0.7645 -1.3980
  198MOL    H2324057   5.795   6.979   2.768 -1.5186  1.2335 -0.2181
  198MOL    H2424058   5.899   6.942   2.984 -1.0807  0.5012  1.4558
  198MOL    H2524059   5.781   6.825   3.027  1.4925 -1.2122  0.0651
  198MOL    C2624060   5.935   6.755   2.894  0.0447  0.0813 -0.2344
  198MOL    C2724061   6.042   6.728   3.006  0.0718  0.6275 -0.2384
  198MOL    H2824062   5.894   6.664   2.849  1.1549 -0.3051 -0.4760
  198MOL    H2924063   6.000   6.807   2.824 -0.8809  0.2890 -0.9496
  198MOL    H3024064   6.077   6.818   3.056 -0.5984 -0.9003  3.0895
  198MOL    H3124065   6.012   6.667   3.091  1.1562 -0.5147 -0.6718
  198MOL    C3224066   6.165   6.659   2.943 -0.8120 -0.1867  0.2385
  198MOL    C3324067   6.291   6.666   3.027 -0.7893 -0.2817 -0.3171
  198MOL    H3424068   6.137   6.560   2.908  0.2048 -1.1228  2.0175
  198MOL    H3524069   6.188   6.708   2.848  2.3072 -2.3429 -0.1646
  198MOL    H3624070   6.273   6.647   3.133  3.0690 -1.5138  0.1901
  198MOL    H3724071   6.354   6.584   2.992 -2.5227 -0.2352 -3.6845
  198MOL    C3824072   6.369   6.798   3.023 -0.6034  0.4798  0.4764
  198MOL    C3924073   6.493   6.799   3.118  0.4043  0.1176  0.3472
  198MOL    H4024074   6.403   6.810   2.920 -1.2724  1.4103  0.3542
  198MOL    H4124075   6.300   6.878   3.050  2.4112  2.9802  1.0000
  198MOL    H4224076   6.454   6.807   3.220 -0.3993  0.4861  0.0151
  198MOL    H4324077   6.544   6.703   3.107  1.5470  1.0042 -2.5414
  198MOL    C4424078   6.574   6.917   3.077 -0.0028  0.2576 -0.0001
  198MOL    C4524079   6.674   6.960   3.186 -0.1946  0.5813 -0.2927
  198MOL    H4624080   6.623   6.894   2.982 -1.3845  0.4423 -0.7797
  198MOL    H4724081   6.505   7.001   3.065 -1.6680 -1.0313  0.4155
  198MOL    H4824082   6.617   6.968   3.278 -0.2023 -0.4907 -0.1956
  198MOL    H4924083   6.745   6.878   3.197 -3.8324 -2.6242  0.3155
  198MOL    C5024084   6.768   7.078   3.151  0.4306  0.0718 -0.1817
  198MOL    C5124085   6.886   7.076   3.241  0.6515  0.1943  0.5151
  198MOL    H5224086   6.802   7.080   3.048  0.9712 -1.0300 -0.0287
  198MOL    H5324087   6.703   7.165   3.166  1.3107  1.1243 -2.2936
  198MOL    H5424088   6.859   7.094   3.345 -0.5657 -1.0966  0.4401
  198MOL    H5524089   6.933   6.978   3.232 -0.2661 -0.2761  0.8112
  198MOL    C5624090   6.981   7.196   3.229  0.0575 -0.9800  0.0033
  198MOL    C5724091   7.062   7.214   3.101  0.0334  0.2395  0.6357
  198MOL    H5824092   6.930   7.289   3.253  0.6623 -0.6805  0.1293
  198MOL    H5924093   7.041   7.189   3.320 -0.3594  1.4515  0.4922
  198MOL    H6024094   6.997   7.204   3.014  0.8459  0.2873  0.0081
  198MOL    H6124095   7.095   7.318   3.091 -0.4111  0.4728  1.6335
  198MOL    C6224096   7.175   7.106   3.081  0.1916  0.0307 -0.1759
  198MOL    C6324097   7.250   7.112   2.954 -0.7307  0.2465  0.2019
  198MOL    H6424098   7.245   7.123   3.162  0.5969  2.9151 -1.0811
  198MOL    H6524099   7.123   7.010   3.085 -0.5103  0.4546  1.4654
  198MOL    H6624100   7.189   7.081   2.870 -0.2491 -1.4622  0.4610
  198MOL    H6724101   7.292   7.209   2.928 -0.0229 -0.1368 -0.1161
  198MOL    C6824102   7.372   7.020   2.960  0.5130  0.1878 -0.7435
  198MOL    C6924103   7.434   7.025   2.816 -0.2081 -0.1317 -0.1145
  198MOL    H7024104   7.445   7.052   3.034 -0.7271  1.8889 -0.2195
  198MOL    H7124105   7.358   6.914   2.982  1.2445 -0.0873 -1.5654
  198MOL    H7224106   7.414   7.129   2.791 -1.6873  0.2559  2.5524
  198MOL    H7324107   7.535   6.986   2.818 -0.8926 -1.8952  1.2350
  198MOL    C7424108   7.365   6.930   2.713 -0.6750 -0.1653 -0.1731
  198MOL    C7524109   7.420   6.962   2.570  0.4168  0.1670 -0.6050
  198MOL    H7624110   7.385   6.826   2.739 -1.7627 -1.2514 -3.4827
  198MOL    H7724111   7.257   6.931   2.730 -0.6586 -2.6863  0.3039
  198MOL    H7824112   7.368   7.054   2.545 -2.0449 -0.7963  0.7714
  198MOL    H7924113   7.526   6.985   2.573  0.8757 -1.7837 -0.6840
  198MOL    C8024114   7.410   6.845   2.472 -0.1773  0.5183 -0.5137
  198MOL    C8124115   7.413   6.899   2.334 -1.1439 -0.1347  0.6897
  198MOL    H8224116   7.494   6.777   2.485 -0.4747 -0.1938 -2.2778
  198MOL    H8324117   7.317   6.788   2.478  0.0131  0.0954 -1.5338
  198MOL    H8424118   7.330   6.964   2.308 -2.1020 -0.1674  3.5069
  198MOL    H8524119   7.503   6.957   2.313 -1.7552 -0.2209 -2.4164
  198MOL    C8624120   7.429   6.783   2.231 -0.3441 -1.2903  0.3781
  198MOL    C8724121   7.424   6.821   2.084 -0.0490  0.3333  0.3381
  198MOL    H8824122   7.528   6.742   2.252 -0.2650 -1.0140  0.5498
  198MOL    H8924123   7.366   6.695   2.247 -0.3027 -1.5956 -1.0973
  198MOL    H9024124   7.339   6.882   2.054  0.8193  1.5176  0.2375
  198MOL    H9124125   7.515   6.879   2.065  1.6874 -1.5659  2.4668
  198MOL    C9224126   7.438   6.691   2.006 -0.5528  0.6770  0.7597
  198MOL    C9324127   7.463   6.695   1.855 -0.3506  0.6036  0.3816
  198MOL    H9424128   7.517   6.623   2.037 -1.1223  0.4951  1.8552
  198MOL    H9524129   7.355   6.621   2.016  0.7460 -0.9294  0.4635
  198MOL    H9624130   7.369   6.732   1.812 -1.3725 -2.8212 -0.4619
  198MOL    H9724131   7.540   6.770   1.839  0.0146 -0.2268 -1.8780
  198MOL    C9824132   7.503   6.558   1.791  0.1190 -0.2986 -0.1165
  198MOL    C9924133   7.531   6.572   1.643  0.2584 -0.5203  0.1629
  198MOL   H10024134   7.586   6.506   1.838  0.2624  0.1754  0.1648
  198MOL   H10124135   7.418   6.491   1.808 -0.4392  0.2941 -0.5432
  198MOL   H10224136   7.440   6.615   1.602  0.3712 -0.9829 -0.5812
  198MOL   H10324137   7.606   6.649   1.626 -1.1940  1.1185  0.9800
  198MOL   C10424138   7.574   6.444   1.585  0.5275  0.1711  0.9600
  198MOL   C10524139   7.598   6.459   1.435  0.2441  1.1913  0.2266
  198MOL   H10624140   7.669   6.406   1.622 -0.8469 -2.7717  1.6726
  198MOL   H10724141   7.501   6.366   1.605  2.4776 -2.0898 -0.5403
  198MOL   H10824142   7.511   6.491   1.377  0.5229  2.0202  0.2601
  198MOL   H10924143   7.686   6.520   1.418  0.8463  0.5718  1.0527
  198MOL   C11024144   7.643   6.330   1.366 -0.3201  0.9358  0.3299
  198MOL   C11124145   7.617   6.342   1.211 -0.5635 -0.2335 -0.1797
  198MOL   H11224146   0.057   6.312   1.386 -0.0216 -0.2846 -2.1655
  198MOL   H11324147   7.590   6.246   1.412  2.5992 -0.5834  1.0178
  198MOL   H11424148   7.510   6.340   1.188 -0.8399 -0.8819  1.1619
  198MOL   H11524149   7.651   6.438   1.171 -0.8548 -0.4222 -0.9053
  198MOL   C11624150   7.683   6.220   1.148  0.3733  0.6778  0.0637
  198MOL   C11724151   7.670   6.228   0.994  0.3757 -0.6164 -0.0226
  198MOL   H11824152   0.093   6.199   1.178  0.2391 -0.8305 -0.4590
  198MOL   H11924153   7.635   6.124   1.171  1.6921  0.2160  0.9059
  198MOL   H12024154   0.038   6.147   0.953  1.1745 -0.2488  0.4246
  198MOL   H12124155   7.566   6.225   0.960 -0.6519 -4.3356  3.0574
  198MOL   H12224156   0.032   6.320   0.971  0.3904 -0.6091  0.0408
  199MOL     C124157   4.683   1.688   0.094  0.1716 -0.8106  0.4690
  199MOL     C224158   4.807   1.742   0.012 -0.9732 -0.5004 -0.8362
  199MOL     H324159   4.640   1.596   0.053  0.4859 -1.4620  1.5651
  199MOL     H424160   4.615   1.773   0.097  2.2240  0.9912 -2.1708
  199MOL     H524161   4.774   1.782   7.608  0.4126  2.4034 -0.1342
  199MOL     H624162   4.852   1.822   0.069 -0.7735  0.2341 -2.0010
  199MOL     H724163   4.689   1.656   0.198  1.3768  0.4872  0.8073
  199MOL     C824164   4.913   1.638   7.672  0.4251 -0.6931  0.2480
  199MOL     C924165   5.031   1.689   7.585 -0.1714 -0.2377 -0.5349
  199MOL    H1024166   4.939   1.599   0.079 -1.2091  0.8655  1.3215
  199MOL    H1124167   4.864   1.557   7.617  0.6915 -1.0184  0.4844
  199MOL    H1224168   4.984   1.744   7.503 -2.0440 -2.0489 -0.7096
  199MOL    H1324169   5.089   1.763   7.641  0.3146 -0.4413 -0.7727
  199MOL    C1424170   5.124   1.576   7.546 -0.3641  0.3154  0.1234
  199MOL    C1524171   5.229   1.609   7.444 -0.5492  0.1402 -0.4377
  199MOL    H1624172   5.172   1.539   7.637 -1.4664 -0.4813  0.3948
  199MOL    H1724173   5.070   1.486   7.516 -0.6290  0.3322  0.5409
  199MOL    H1824174   5.181   1.654   7.358  0.5584  2.1081 -0.0487
  199MOL    H1924175   5.295   1.690   7.475  0.5415 -1.3663  1.2647
  199MOL    C2024176   5.312   1.477   7.409 -0.2586 -0.0204 -0.6088
  199MOL    C2124177   5.419   1.504   7.301 -0.0144  0.1119 -0.5469
  199MOL    H2224178   5.363   1.444   7.499 -1.9064  1.7066  1.0144
  199MOL    H2324179   5.240   1.403   7.374 -2.0892  0.3954  2.1218
  199MOL    H2424180   5.370   1.519   7.205 -2.6638  0.2782  0.7772
  199MOL    H2524181   5.473   1.594   7.328 -0.9084  0.0864  1.4448
  199MOL    C2624182   5.528   1.397   7.296  0.3876 -0.3197  0.4841
  199MOL    C2724183   5.486   1.268   7.211  0.0695  0.8038  0.2347
  199MOL    H2824184   5.614   1.437   7.243 -1.5147  0.8235 -1.8303
  199MOL    H2924185   5.554   1.379   7.400  0.7092 -1.0720  0.2681
  199MOL    H3024186   5.396   1.222   7.251 -0.2485  0.3932 -0.9459
  199MOL    H3124187   5.466   1.299   7.109  0.0802 -0.9683 -0.3246
  199MOL    C3224188   5.591   1.157   7.207 -0.0812 -0.9560  0.0742
  199MOL    C3324189   5.530   1.028   7.144  0.5870 -0.0608 -0.2562
  199MOL    H3424190   5.676   1.194   7.150 -0.2403 -0.1873  0.3270
  199MOL    H3524191   5.608   1.138   7.313 -2.7487  0.1629  0.7615
  199MOL    H3624192   5.609   0.954   7.128 -0.4168 -1.5703  1.5715
  199MOL    H3724193   5.462   0.986   7.217  0.5361  1.7411  0.7766
  199MOL    C3824194   5.461   1.043   7.007 -0.0604 -0.2854 -0.4281
  199MOL    C3924195   5.428   0.908   6.945  0.2160  0.5314  1.0234
  199MOL    H4024196   5.373   1.106   7.012  0.0722 -0.2304  2.0708
  199MOL    H4124197   5.527   1.099   6.941 -2.2760  0.7659 -1.7812
  199MOL    H4224198   5.522   0.854   6.928  0.5753  1.7179 -0.9736
  199MOL    H4324199   5.368   0.836   7.000 -0.1076  0.2651  0.3259
  199MOL    C4424200   5.352   0.905   6.807  1.4517 -0.1334  1.0417
  199MOL    C4524201   5.342   0.766   6.751 -0.7015  0.3114 -0.8734
  199MOL    H4624202   5.253   0.950   6.816 -0.3358 -3.4497 -1.3349
  199MOL    H4724203   5.409   0.969   6.740 -1.8423  1.4203 -0.3629
  199MOL    H4824204   5.443   0.731   6.730 -0.3537  0.6053  0.3182
  199MOL    H4924205   5.311   0.697   6.829  6.0308 -1.0119  0.9114
  199MOL    C5024206   5.241   0.762   6.637  0.7507 -0.4165 -0.3164
  199MOL    C5124207   5.233   0.620   6.572 -0.2605  0.0541 -0.2464
  199MOL    H5224208   5.143   0.800   6.664  1.2318  2.4334 -2.2923
  199MOL    H5324209   5.272   0.836   6.564  1.5650 -1.5264 -1.1129
  199MOL    H5424210   5.332   0.603   6.531  0.4203 -0.1258  1.4400
  199MOL    H5524211   5.225   0.544   6.650 -1.8693  1.8399  1.4189
  199MOL    C5624212   5.123   0.601   6.475 -0.6924 -0.5474 -0.1166
  199MOL    C5724213   5.104   0.465   6.415  0.5952  0.0333 -0.0563
  199MOL    H5824214   5.037   0.638   6.531 -0.1933 -0.4169  0.5559
  199MOL    H5924215   5.119   0.681   6.401 -0.6070  1.2672  1.7924
  199MOL    H6024216   5.183   0.437   6.346  0.5720  2.4006 -1.0831
  199MOL    H6124217   5.105   0.392   6.496  0.9664  0.4618  0.3295
  199MOL    C6224218   4.976   0.449   6.331 -0.5437  0.6001  0.2760
  199MOL    C6324219   4.962   0.302   6.280 -0.5975  0.9117  0.3298
  199MOL    H6424220   4.887   0.476   6.387 -2.6216  0.4235 -2.7947
  199MOL    H6524221   4.990   0.520   6.249 -3.2521  0.4066 -0.3875
  199MOL    H6624222   5.051   0.288   6.218 -1.9646  3.1418 -2.3114
  199MOL    H6724223   4.967   0.228   6.360  1.6358  1.4731  0.7321
  199MOL    C6824224   4.842   0.283   6.179 -0.1217  0.3865  0.3166
  199MOL    C6924225   4.826   0.137   6.128  0.7346  0.4487  0.0451
  199MOL    H7024226   4.750   0.312   6.230  0.8991  0.4015  2.1771
  199MOL    H7124227   4.865   0.346   6.093  0.4082  0.6799  0.6731
  199MOL    H7224228   4.921   0.122   6.077  2.0410  1.5289  2.0620
  199MOL    H7324229   4.818   0.059   6.204  1.3454 -0.0652 -0.4092
  199MOL    C7424230   4.703   0.100   6.045  0.2561 -0.0080  0.6111
  199MOL    C7524231   4.709   7.646   5.992 -0.3636 -0.0335  0.0925
  199MOL    H7624232   4.618   0.116   6.111 -2.3232 -1.6481 -2.1519
  199MOL    H7724233   4.686   0.168   5.961  2.5440  1.6375  1.4397
  199MOL    H7824234   4.803   7.633   5.939  0.6905  0.4413  1.7908
  199MOL    H7924235   4.722   7.567   6.067  1.7861  0.3506  0.1570
  199MOL    C8024236   4.598   7.610   5.898  0.1508 -0.4549  0.2760
  199MOL    C8124237   4.624   7.483   5.819  0.2282 -0.0565 -0.0669
  199MOL    H8224238   4.510   7.588   5.959  1.7854 -1.1062  2.4520
  199MOL    H8324239   4.574   7.692   5.830  0.5796 -0.8031 -0.2945
  199MOL    H8424240   4.723   7.502   5.777 -0.3672  1.5842 -0.7704
  199MOL    H8524241   4.630   7.396   5.884 -0.7540 -0.4183 -0.4643
  199MOL    C8624242   4.518   7.455   5.707  0.3216 -0.4162 -0.4035
  199MOL    C8724243   4.554   7.324   5.638 -0.3437 -0.4071  0.5490
  199MOL    H8824244   4.425   7.433   5.760  0.6598  0.6909  0.6596
  199MOL    H8924245   4.496   7.541   5.644  0.0585  0.4698  0.8787
  199MOL    H9024246   4.652   7.340   5.591  0.0071 -0.6918  1.1840
  199MOL    H9124247   4.585   7.247   5.708  1.2283  1.2532  1.7607
  199MOL    C9224248   4.463   7.267   5.523  0.1829  0.1518  0.3563
  199MOL    C9324249   4.523   7.140   5.463  0.3138 -0.0695 -0.6518
  199MOL    H9424250   4.366   7.246   5.569  0.2927  2.3770  1.6476
  199MOL    H9524251   4.457   7.347   5.449 -0.7162  1.7480  2.1297
  199MOL    H9624252   4.618   7.159   5.412 -1.4268  2.2723 -3.1459
  199MOL    H9724253   4.540   7.078   5.551  1.6223 -0.0527 -0.8805
  199MOL    C9824254   4.424   7.063   5.367  0.1763  0.4386  0.1034
  199MOL    C9924255   4.465   6.915   5.350 -0.3655 -0.1990 -0.5589
  199MOL   H10024256   4.321   7.069   5.403  0.6546 -1.7196  1.9653
  199MOL   H10124257   4.418   7.115   5.271 -1.6520  2.5823  1.3265
  199MOL   H10224258   4.573   6.902   5.346 -0.0659  2.5938 -2.5879
  199MOL   H10324259   4.425   6.859   5.435  0.3560 -1.4219 -1.0175
  199MOL   C10424260   4.408   6.857   5.227  0.0206 -0.9527  0.0988
  199MOL   C10524261   4.425   6.707   5.222 -0.2026 -0.3123  0.2695
  199MOL   H10624262   4.302   6.881   5.215  0.3271  0.5536  0.3664
  199MOL   H10724263   4.442   6.906   5.135 -2.6144  0.7429 -0.0325
  199MOL   H10824264   4.533   6.693   5.211 -0.6176 -1.7573 -2.1712
  199MOL   H10924265   4.399   6.656   5.315  0.0153  1.6770  1.4668
  199MOL   C11024266   4.367   6.628   5.101 -0.5147 -0.2955 -0.2644
  199MOL   C11124267   4.403   6.485   5.080 -0.1353 -0.0643 -0.0111
  199MOL   H11224268   4.258   6.637   5.092 -0.6466 -1.9755 -0.4318
  199MOL   H11324269   4.417   6.676   5.017  1.5337  0.3862  1.3294
  199MOL   H11424270   4.512   6.489   5.077 -0.0366 -1.2350  1.5375
  199MOL   H11524271   4.380   6.418   5.162  1.3912  1.0834  1.3928
  199MOL   C11624272   4.356   6.436   4.942  0.2610 -0.0237  0.4964
  199MOL   C11724273   4.363   6.281   4.925  0.2201 -0.1655  0.4817
  199MOL   H11824274   4.252   6.459   4.916  0.9477  1.4392 -0.9977
  199MOL   H11924275   4.412   6.472   4.856  0.0810 -0.7774  0.0551
  199MOL   H12024276   4.460   6.239   4.953  0.6274  1.7408  1.9958
  199MOL   H12124277   4.289   6.230   4.987 -0.3677 -0.3701 -0.3816
  199MOL   H12224278   4.344   6.244   4.824  0.8271 -3.3250  1.4642
  200MOL     C124279   0.458   0.073   0.624 -0.2569  0.2869  0.1047
  200MOL     C224280   0.499   7.642   0.540  0.3651 -1.1487 -0.1797
  200MOL     H324281   0.535   0.149   0.610 -1.0570  1.0084 -0.4285
  200MOL     H424282   0.430   0.055   0.728 -1.7635  0.6408 -0.2211
  200MOL     H524283   0.481   7.679   0.439 -1.1651 -0.8262  0.1973
  200MOL     H624284   0.605   7.621   0.559  0.9139  0.5139 -1.2568
  200MOL     H724285   0.364   0.114   0.587 -1.2924 -4.9071 -3.5707
  200MOL     C824286   0.411   7.516   0.550 -0.8276  0.5200 -0.9224
  200MOL     C924287   0.255   7.536   0.519 -0.3855  1.1386 -1.0943
  200MOL    H1024288   0.459   7.453   0.475  0.5072  0.7392 -0.2447
  200MOL    H1124289   0.433   7.472   0.647 -0.5260 -1.6232 -1.9278
  200MOL    H1224290   0.212   7.582   0.609  1.7735 -1.5184  1.4079
  200MOL    H1324291   0.240   7.605   0.437 -3.5268 -1.3808 -2.7429
  200MOL    C1424292   0.191   7.398   0.495 -0.1507 -0.1304 -0.1718
  200MOL    C1524293   0.049   7.408   0.456 -0.4972 -0.8298 -0.5727
  200MOL    H1624294   0.254   7.337   0.431 -0.0082  0.7171 -0.8505
  200MOL    H1724295   0.192   7.343   0.589  2.1737 -0.1530 -0.1674
  200MOL    H1824296   7.692   7.466   0.534  1.7525 -2.2481  1.9919
  200MOL    H1924297   0.039   7.474   0.369 -1.4041  2.7717  2.1464
  200MOL    C2024298   7.684   7.272   0.425  0.0799 -0.0958  0.0019
  200MOL    C2124299   7.535   7.283   0.379 -0.0449  0.2240 -0.0259
  200MOL    H2224300   0.060   7.233   0.350  0.9764  1.3101  0.0610
  200MOL    H2324301   7.688   7.202   0.509  0.7076 -0.2410 -0.1464
  200MOL    H2424302   7.476   7.326   0.459  0.7045 -0.7938  1.0905
  200MOL    H2524303   7.533   7.354   0.296 -1.2678  1.6159  1.1692
  200MOL    C2624304   7.476   7.145   0.340 -0.9126 -0.2794  0.1385
  200MOL    C2724305   7.343   7.154   0.265 -0.5405  0.3696 -0.6250
  200MOL    H2824306   7.544   7.084   0.280  0.6565  0.4241  1.1827
  200MOL    H2924307   7.463   7.075   0.423 -1.5352 -0.3219  0.0066
  200MOL    H3024308   7.281   7.219   0.328 -1.5146  0.1931 -1.3840
  200MOL    H3124309   7.345   7.208   0.171  0.2935 -0.6942 -1.2280
  200MOL    C3224310   7.281   7.006   0.254 -0.3175  0.1188 -0.1348
  200MOL    C3324311   7.144   7.017   0.183 -0.1220  0.5224 -0.9579
  200MOL    H3424312   7.352   6.951   0.192  1.1808 -0.6091  2.1673
  200MOL    H3524313   7.283   6.948   0.346 -0.9384 -0.8950 -0.7553
  200MOL    H3624314   7.074   7.061   0.254  1.4776  0.1738  0.8488
  200MOL    H3724315   7.143   7.078   0.092 -1.8719 -0.8122 -1.8749
  200MOL    C3824316   7.097   6.873   0.146 -0.2346  0.3319  0.1916
  200MOL    C3924317   6.950   6.852   0.095  0.2106  0.4526 -0.0101
  200MOL    H4024318   7.162   6.840   0.065 -1.6202 -2.0307  0.0008
  200MOL    H4124319   7.126   6.810   0.230 -1.1473 -0.3231  0.0285
  200MOL    H4224320   6.939   6.749   0.062  0.8632  0.5218 -0.4574
  200MOL    H4324321   6.880   6.858   0.179 -0.3939 -1.1519 -0.3789
  200MOL    C4424322   6.896   6.935   7.674 -0.8379  0.0391 -0.6398
  200MOL    C4524323   6.748   6.944   7.663 -0.2898  0.1013  0.2865
  200MOL    H4624324   6.929   7.037   7.689 -2.0767  0.8676 -3.2754
  200MOL    H4724325   6.927   6.909   7.572  0.8152  0.7325 -0.3285
  200MOL    H4824326   6.723   6.847   7.621 -2.3829  1.4026 -1.6249
  200MOL    H4924327   6.699   6.952   0.069  1.0312 -1.1654  1.0628
  200MOL    C5024328   6.688   7.059   7.571  0.2106 -0.6240 -0.0675
  200MOL    C5124329   6.538   7.076   7.576 -0.0389 -0.2154  0.0168
  200MOL    H5224330   6.734   7.151   7.606 -1.1391  0.1223 -0.2313
  200MOL    H5324331   6.719   7.047   7.468  0.5292  0.3732 -0.0914
  200MOL    H5424332   6.493   6.977   7.576 -0.0113 -0.2278  0.4992
  200MOL    H5524333   6.505   7.118   7.671  0.7001  1.6437 -0.5199
  200MOL    C5624334   6.486   7.160   7.466 -0.5494 -0.4402 -0.4661
  200MOL    C5724335   6.334   7.154   7.461  0.1366  0.0347 -0.2519
  200MOL    H5824336   6.521   7.262   7.482 -1.6115  0.3034 -2.6648
  200MOL    H5924337   6.533   7.138   7.370 -0.2451  0.9867 -0.6585
  200MOL    H6024338   6.285   7.182   7.554 -0.5252 -1.2968 -0.1798
  200MOL    H6124339   6.309   7.232   7.390 -2.0417  3.0460  3.6009
  200MOL    C6224340   6.268   7.023   7.413 -0.5497 -0.4569 -0.3862
  200MOL    C6324341   6.113   7.024   7.389  0.6000  0.1356 -0.0706
  200MOL    H6424342   6.316   6.987   7.322  1.1507  0.4398  0.1242
  200MOL    H6524343   6.285   6.938   7.479 -2.7452 -0.4852  0.1778
  200MOL    H6624344   6.064   7.075   7.471  1.2032  2.3414 -1.0437
  200MOL    H6724345   6.091   7.090   7.305 -1.4744 -0.2589  0.1490
  200MOL    C6824346   6.062   6.882   7.387 -0.3332  0.1153 -0.2651
  200MOL    C6924347   5.909   6.878   7.378 -0.4298 -0.0253  0.1091
  200MOL    H7024348   6.120   6.834   7.308  1.0387  0.4728  0.5125
  200MOL    H7124349   6.098   6.828   7.474 -0.1713 -1.7700 -1.4671
  200MOL    H7224350   5.865   6.929   7.463  0.3603 -0.3659  0.7346
  200MOL    H7324351   5.873   6.920   7.284 -0.0168 -0.4416 -0.2445
  200MOL    C7424352   5.863   6.737   7.391  0.2382  0.6159  0.0972
  200MOL    C7524353   5.914   6.634   7.286  0.4423  0.3026  0.0097
  200MOL    H7624354   5.907   6.707   7.486  0.8363 -0.6765 -0.5716
  200MOL    H7724355   5.756   6.721   7.397  0.5168 -1.0941  0.9968
  200MOL    H7824356   5.869   6.663   7.191 -0.8815 -3.2187 -0.5042
  200MOL    H7924357   6.022   6.635   7.274  0.5207 -0.9092  0.5078
  200MOL    C8024358   5.857   6.483   7.306 -0.0993 -0.6506  0.2743
  200MOL    C8124359   5.914   6.374   7.214 -0.6324 -0.1153 -0.2324
  200MOL    H8224360   5.883   6.454   7.408  0.8587 -2.0039 -0.3559
  200MOL    H8324361   5.748   6.484   7.303 -0.0593 -0.0520 -1.7879
  200MOL    H8424362   5.896   6.403   7.110 -2.6098  0.0179  0.1316
  200MOL    H8524363   6.023   6.377   7.217 -0.6743  0.1768  1.4341
  200MOL    C8624364   5.866   6.228   7.240  0.3524  0.2129 -0.2779
  200MOL    C8724365   5.922   6.124   7.144 -0.1282  0.1292 -0.3717
  200MOL    H8824366   5.881   6.200   7.344  0.7817  0.3716 -0.2971
  200MOL    H8924367   5.758   6.217   7.229  0.2482  0.2898  0.6581
  200MOL    H9024368   5.881   6.144   7.045  0.3799 -0.3209 -0.6780
  200MOL    H9124369   6.031   6.135   7.144  0.1045 -2.0309 -1.8434
  200MOL    C9224370   5.885   5.979   7.174 -0.6616 -0.9725  0.3995
  200MOL    C9324371   5.948   5.875   7.085  0.6655 -0.1804  0.3494
  200MOL    H9424372   5.914   5.958   7.277 -0.5941  0.1952  0.6345
  200MOL    H9524373   5.779   5.953   7.177 -1.1587  0.8664 -0.3008
  200MOL    H9624374   5.922   5.901   6.982 -1.2477 -1.1391  0.5622
  200MOL    H9724375   6.055   5.892   7.090  0.5343  1.1172 -1.0261
  200MOL    C9824376   5.898   5.729   7.118  0.2103  0.4023 -0.1344
  200MOL    C9924377   5.956   5.634   7.016  0.0594  0.6500 -0.2621
  200MOL   H10024378   5.929   5.689   7.214  1.7154 -2.5952 -1.8107
  200MOL   H10124379   5.789   5.721   7.115  0.2109 -0.1904  1.1599
  200MOL   H10224380   5.908   5.664   6.922  0.4038  0.9379 -0.3489
  200MOL   H10324381   6.061   5.664   7.008 -0.0731  0.8510 -1.4319
  200MOL   C10424382   5.972   5.486   7.059  0.6884 -0.4630 -0.3236
  200MOL   C10524383   6.038   5.401   6.952  0.0248  0.4223 -0.6776
  200MOL   H10624384   6.014   5.473   7.159 -1.2553 -4.1754  0.0655
  200MOL   H10724385   5.873   5.446   7.083  1.5297 -2.0940  0.5112
  200MOL   H10824386   6.007   5.435   6.853 -0.4304  0.8082 -0.4047
  200MOL   H10924387   6.144   5.427   6.954  0.2399 -0.4057 -0.8182
  200MOL   C11024388   6.023   5.245   6.967 -0.3783 -0.3397 -0.3145
  200MOL   C11124389   6.078   5.195   7.099 -0.5919 -0.8308  0.5904
  200MOL   H11224390   5.920   5.213   6.954 -0.8788  1.0335  0.2464
  200MOL   H11324391   6.074   5.198   6.882  1.5760 -2.6383  2.0341
  200MOL   H11424392   6.186   5.208   7.087 -0.6087 -1.0557  0.1868
  200MOL   H11524393   6.036   5.243   7.187 -0.2289 -0.7341  0.7147
  200MOL   C11624394   6.062   5.051   7.110 -0.0249 -0.4441  0.3103
  200MOL   C11724395   6.109   5.001   7.250  1.1008 -0.3892  0.0214
  200MOL   H11824396   5.956   5.034   7.096  0.6606 -2.2550 -3.0836
  200MOL   H11924397   6.122   5.006   7.031 -0.0125  2.9493 -1.7053
  200MOL   H12024398   6.095   4.893   7.251 -1.2034 -0.1144  0.2571
  200MOL   H12124399   6.214   5.025   7.265  1.0999  0.4262 -1.1559
  200MOL   H12224400   6.047   5.043   7.329  0.4973 -2.2219  0.5518
  201MOL     C124401   5.415   1.713   0.060  0.3357  0.3034 -0.1684
  201MOL     C224402   5.413   1.645   0.196  0.1305  0.1476  0.4602
  201MOL     H324403   5.317   1.720   0.012  0.5632  0.6654 -0.5871
  201MOL     H424404   5.484   1.655   7.691 -0.3294 -0.6898  0.0067
  201MOL     H524405   5.345   1.560   0.185  0.0857 -0.0803  2.2904
  201MOL     H624406   5.511   1.607   0.224  1.4414  3.2209  0.2888
  201MOL     H724407   5.455   1.813   0.071  1.9724 -0.3883  0.3419
  201MOL     C824408   5.364   1.741   0.301 -0.1137 -0.2712  0.0207
  201MOL     C924409   5.208   1.761   0.289 -0.2426  0.5519 -0.5210
  201MOL    H1024410   5.390   1.704   0.400  1.5602  3.5609  1.1260
  201MOL    H1124411   5.413   1.838   0.296 -0.3120 -0.1990 -0.5815
  201MOL    H1224412   5.184   1.794   0.188 -2.6159 -0.3824 -0.2776
  201MOL    H1324413   5.153   1.670   0.310 -2.3312  1.8605 -0.2036
  201MOL    C1424414   5.158   1.860   0.399 -0.0980  0.5277 -0.5446
  201MOL    C1524415   5.006   1.890   0.399  0.4613  0.1695 -0.6274
  201MOL    H1624416   5.182   1.831   0.501  4.0422  0.3954 -1.4619
  201MOL    H1724417   5.205   1.958   0.395  0.9528  0.0594  0.0972
  201MOL    H1824418   4.970   1.920   0.300  1.2806 -0.7162 -1.2076
  201MOL    H1924419   4.947   1.799   0.415  0.2784  0.5447  0.8569
  201MOL    C2024420   4.957   1.986   0.505 -1.1503  0.3311 -0.6482
  201MOL    C2124421   4.804   1.982   0.514  0.2437 -0.0648  0.4001
  201MOL    H2224422   5.002   1.967   0.603  1.3724 -2.3031 -2.2586
  201MOL    H2324423   4.990   2.088   0.483  2.4867 -0.6995 -0.2889
  201MOL    H2424424   4.778   2.021   0.416 -0.5540 -1.6375 -0.0096
  201MOL    H2524425   4.764   1.881   0.521  1.1476 -0.4879 -0.4378
  201MOL    C2624426   4.731   2.074   0.621 -0.4478  0.0465  0.3111
  201MOL    C2724427   4.579   2.069   0.622 -0.4189 -0.5194 -0.2593
  201MOL    H2824428   4.761   2.030   0.717  0.8108  1.6178  0.6472
  201MOL    H2924429   4.776   2.173   0.623 -1.0289  0.3273 -0.3621
  201MOL    H3024430   4.539   2.074   0.521 -0.5943  0.9025 -0.1338
  201MOL    H3124431   4.546   1.968   0.649 -0.5066  0.0427  1.8337
  201MOL    C3224432   4.519   2.179   0.714  0.1324 -0.0771 -0.2072
  201MOL    C3324433   4.366   2.164   0.716  0.3290 -0.3311  0.2526
  201MOL    H3424434   4.559   2.184   0.816  1.6330 -1.1804 -0.7152
  201MOL    H3524435   4.538   2.278   0.674 -0.4764  0.0367 -0.2261
  201MOL    H3624436   4.339   2.159   0.611  3.5289 -0.4711 -0.6094
  201MOL    H3724437   4.327   2.077   0.769 -0.0386 -0.1203  0.3247
  201MOL    C3824438   4.298   2.288   0.779  0.1798 -0.6774  1.2691
  201MOL    C3924439   4.150   2.278   0.798 -0.2151  0.2479  0.5414
  201MOL    H4024440   4.353   2.304   0.872  1.6067 -0.5476  0.4253
  201MOL    H4124441   4.313   2.368   0.706 -1.7086 -0.6795  0.8532
  201MOL    H4224442   4.105   2.254   0.702  1.1316 -0.7899  0.1493
  201MOL    H4324443   4.138   2.198   0.871 -0.5574  1.3045  1.6722
  201MOL    C4424444   4.077   2.407   0.846 -0.4832 -0.1249 -0.1140
  201MOL    C4524445   3.926   2.400   0.843  0.2574  0.1111 -0.1080
  201MOL    H4624446   4.121   2.409   0.946  2.1657  0.3481 -1.2546
  201MOL    H4724447   4.124   2.497   0.807 -1.6421  0.3078 -0.5320
  201MOL    H4824448   3.886   2.313   0.895 -2.2454  0.8193 -0.8051
  201MOL    H4924449   3.894   2.485   0.902  1.7252  0.7533 -0.2069
  201MOL    C5024450   3.870   2.408   0.702  0.6125  0.1564  0.0592
  201MOL    C5124451   3.716   2.415   0.707 -0.8937 -0.2629 -0.5060
  201MOL    H5224452   3.928   2.483   0.648  1.1344 -0.6784 -0.5384
  201MOL    H5324453   3.895   2.314   0.655 -2.4240 -1.6758  1.9515
  201MOL    H5424454   3.673   2.326   0.753 -1.3862  1.3383  2.1898
  201MOL    H5524455   3.684   2.503   0.763 -1.5435 -0.8691  0.0883
  201MOL    C5624456   3.664   2.434   0.567 -0.0007 -0.8283  0.4525
  201MOL    C5724457   3.507   2.440   0.578 -0.0397  0.7722 -0.0986
  201MOL    H5824458   3.720   2.510   0.514 -2.3994 -0.3468 -1.4772
  201MOL    H5924459   3.688   2.347   0.506 -0.8252 -1.0989  0.5087
  201MOL    H6024460   3.463   2.366   0.645  2.0666 -0.7281 -0.3196
  201MOL    H6124461   3.481   2.540   0.615 -0.1387  0.6541  0.1506
  201MOL    C6224462   3.452   2.421   0.437  0.3746  0.1278 -0.3272
  201MOL    C6324463   3.305   2.463   0.435 -0.9264 -0.1689 -0.4206
  201MOL    H6424464   3.502   2.475   0.357  0.5394  2.2842  1.2103
  201MOL    H6524465   3.459   2.314   0.416  1.0462 -0.6404  3.4257
  201MOL    H6624466   3.252   2.428   0.524  0.8944 -0.0408  0.7323
  201MOL    H6724467   3.309   2.572   0.446 -0.3085 -0.2960  0.7065
  201MOL    C6824468   3.231   2.427   0.302 -0.0002 -0.4957 -0.8773
  201MOL    C6924469   3.083   2.439   0.315 -0.0545 -0.5042 -0.3586
  201MOL    H7024470   3.265   2.504   0.233  2.7453 -0.7997  0.0679
  201MOL    H7124471   3.259   2.325   0.277 -1.0406 -1.0994  0.3480
  201MOL    H7224472   3.036   2.386   0.398  0.4201  0.5846  0.6106
  201MOL    H7324473   3.057   2.543   0.332  0.7228 -0.0061 -2.0824
  201MOL    C7424474   3.013   2.382   0.185 -0.4216  0.4333  0.3614
  201MOL    C7524475   2.863   2.393   0.193  0.2441 -0.1449 -0.2274
  201MOL    H7624476   3.059   2.432   0.100 -0.0900 -1.2110 -0.4341
  201MOL    H7724477   3.058   2.284   0.171  1.5275  1.6283 -2.1005
  201MOL    H7824478   2.830   2.346   0.286 -0.1076  2.3274  0.9703
  201MOL    H7924479   2.846   2.498   0.217  0.1935  0.5474 -3.1377
  201MOL    C8024480   2.782   2.346   0.071  0.0355  0.3800  0.1017
  201MOL    C8124481   2.829   2.399   7.628 -0.8281 -0.0226 -0.3864
  201MOL    H8224482   2.769   2.238   0.067 -1.2232  0.5577 -1.2322
  201MOL    H8324483   2.683   2.391   0.078  0.0912  0.4448  0.4646
  201MOL    H8424484   2.841   2.507   7.636 -1.7639  0.1839 -1.5887
  201MOL    H8524485   2.925   2.354   7.603 -0.9751 -0.2633 -0.5109
  201MOL    C8624486   2.730   2.358   7.516  0.2956 -0.1506  0.4909
  201MOL    C8724487   2.768   2.419   7.380  0.3652  0.0317  0.0339
  201MOL    H8824488   2.718   2.251   7.502  0.8005 -0.2995  1.1600
  201MOL    H8924489   2.631   2.395   7.542  0.4389 -0.2631  1.1976
  201MOL    H9024490   2.788   2.524   7.400 -3.4399  1.0088 -1.0039
  201MOL    H9124491   2.860   2.375   7.340  1.2983  0.2998  1.8238
  201MOL    C9224492   2.652   2.393   7.280 -0.7045 -0.1528  0.4044
  201MOL    C9324493   2.661   2.495   7.156  0.1037  0.9039 -0.0437
  201MOL    H9424494   2.649   2.293   7.237  2.7787 -1.4903  3.0622
  201MOL    H9524495   2.554   2.395   7.329 -1.8098  0.8843 -1.7893
  201MOL    H9624496   2.569   2.465   7.105 -0.0693  1.7268 -0.2213
  201MOL    H9724497   2.647   2.600   7.181  1.9814  1.1760 -0.0609
  201MOL    C9824498   2.786   2.484   7.065  0.0631  0.0277  0.2970
  201MOL    C9924499   2.787   2.363   6.971  0.4375  0.1328  0.1529
  201MOL   H10024500   2.801   2.576   7.009 -0.4636  0.1341  0.3369
  201MOL   H10124501   2.873   2.474   7.131  0.0608 -2.2126  0.0041
  201MOL   H10224502   2.783   2.267   7.022  3.6507 -1.2123 -1.9755
  201MOL   H10324503   2.691   2.364   6.919  0.0610  1.1005  0.8466
  201MOL   C10424504   2.893   2.353   6.865 -0.0186 -0.1998  0.2603
  201MOL   C10524505   2.858   2.232   6.773 -0.1331 -0.7506  0.0586
  201MOL   H10624506   2.912   2.438   6.800  1.1923 -0.1410  0.6761
  201MOL   H10724507   2.994   2.335   6.903 -0.2665  0.9823  1.4799
  201MOL   H10824508   2.830   2.141   6.825 -2.5722 -0.7879 -1.2592
  201MOL   H10924509   2.769   2.266   6.720 -0.9525 -0.5205  1.5420
  201MOL   C11024510   2.962   2.213   6.667 -0.0484 -0.4067 -0.6322
  201MOL   C11124511   2.938   2.116   6.549 -0.2283  0.3839 -0.4988
  201MOL   H11224512   2.982   2.313   6.629 -2.8652  0.0870 -0.9729
  201MOL   H11324513   3.049   2.173   6.720 -0.4880 -1.2812 -0.5624
  201MOL   H11424514   2.867   2.150   6.474 -0.9932 -0.8411 -0.3404
  201MOL   H11524515   3.035   2.092   6.504 -0.3843 -1.7485  0.2611
  201MOL   C11624516   2.896   1.974   6.610 -0.4672 -0.9413  0.2031
  201MOL   C11724517   2.916   1.856   6.515  0.2415 -1.1383 -1.0732
  201MOL   H11824518   2.953   1.945   6.699  0.9047  0.8823 -0.0634
  201MOL   H11924519   2.794   1.971   6.647 -1.1654  1.4373 -1.4464
  201MOL   H12024520   2.884   1.759   6.551 -0.6635 -0.1600  0.8454
  201MOL   H12124521   2.853   1.884   6.431 -0.6394  1.6620  0.4508
  201MOL   H12224522   3.023   1.854   6.493  0.3983 -0.2328 -0.4296
  202MOL     C124523   4.182   0.735   3.207 -0.2645  0.6211 -0.3889
  202MOL     C224524   4.307   0.668   3.277  0.2136 -0.8531 -0.1831
  202MOL     H324525   4.111   0.663   3.166  0.9073  0.3841 -2.0540
  202MOL     H424526   4.222   0.795   3.125  0.2991  1.1208  0.2480
  202MOL     H524527   4.275   0.607   3.362 -2.3398  1.9193  0.9519
  202MOL     H624528   4.347   0.601   3.201 -1.0940  0.2486 -1.8759
  202MOL     H724529   4.137   0.806   3.276 -2.4584 -1.3341  0.2665
  202MOL     C824530   4.409   0.778   3.321 -0.3884  0.3228  0.2762
  202MOL     C924531   4.517   0.734   3.426 -0.2958  0.4691 -0.1082
  202MOL    H1024532   4.462   0.817   3.234 -1.6480  2.4844  0.4267
  202MOL    H1124533   4.366   0.867   3.367 -2.1863  0.4743 -1.6431
  202MOL    H1224534   4.464   0.687   3.508 -1.9896 -0.2291 -1.5566
  202MOL    H1324535   4.574   0.659   3.371 -1.2031  0.5093 -1.1410
  202MOL    C1424536   4.615   0.841   3.463 -0.1476  0.1462  0.1642
  202MOL    C1524537   4.682   0.824   3.599  0.0073  0.5018  0.9370
  202MOL    H1624538   4.693   0.836   3.388 -3.0453 -1.3156 -2.8511
  202MOL    H1724539   4.571   0.940   3.459  1.5367  0.8191 -2.9400
  202MOL    H1824540   4.598   0.826   3.668 -0.0216 -2.9038  1.0877
  202MOL    H1924541   4.732   0.727   3.595 -2.2794 -0.7121  0.6948
  202MOL    C2024542   4.777   0.943   3.633 -0.2300  0.3973 -0.1191
  202MOL    C2124543   4.912   0.909   3.702  0.0707 -0.3031 -0.3555
  202MOL    H2224544   4.812   1.005   3.551 -2.6386  2.3892  0.2913
  202MOL    H2324545   4.734   1.006   3.711  0.3166 -0.7498  1.1223
  202MOL    H2424546   4.954   0.835   3.634 -0.0139 -0.1632 -0.5582
  202MOL    H2524547   4.991   0.984   3.693 -1.3329  1.2342 -0.0808
  202MOL    C2624548   4.903   0.846   3.845 -0.0677  0.2094 -0.0248
  202MOL    C2724549   5.035   0.798   3.906 -0.1430 -0.9096  0.3503
  202MOL    H2824550   4.869   0.921   3.917 -0.3587 -0.3232  0.3968
  202MOL    H2924551   4.837   0.760   3.852 -0.2874  0.3611 -0.2312
  202MOL    H3024552   5.073   0.710   3.855  3.6076  0.4165  0.6715
  202MOL    H3124553   5.111   0.875   3.888 -1.2117 -0.2405 -1.4585
  202MOL    C3224554   5.022   0.754   4.057  0.2347 -0.0763 -0.2802
  202MOL    C3324555   5.142   0.677   4.117 -0.5781  0.4616 -0.0914
  202MOL    H3424556   5.019   0.847   4.113  1.1644 -1.6334  2.4763
  202MOL    H3524557   4.936   0.689   4.071 -0.5572  1.3133  1.4199
  202MOL    H3624558   5.119   0.624   4.210 -0.6285  0.8602  0.1227
  202MOL    H3724559   5.166   0.597   4.047 -2.9103 -2.6281  2.5140
  202MOL    C3824560   5.266   0.761   4.155  0.5136 -0.2385 -0.2109
  202MOL    C3924561   5.391   0.679   4.205  0.7357  0.5176 -0.6762
  202MOL    H4024562   5.288   0.829   4.072 -0.1527 -1.2217 -1.2078
  202MOL    H4124563   5.240   0.825   4.239 -0.7707 -1.2015  0.1345
  202MOL    H4224564   5.363   0.614   4.289 -2.0943  1.5858 -0.7418
  202MOL    H4324565   5.434   0.616   4.127  1.6826  0.2730  0.0244
  202MOL    C4424566   5.517   0.759   4.234  0.0312  0.1693  0.1673
  202MOL    C4524567   5.569   0.828   4.108  0.5537  0.9597 -0.7888
  202MOL    H4624568   5.491   0.830   4.313 -0.0398  1.3795 -0.9172
  202MOL    H4724569   5.590   0.686   4.267  1.1010  0.9970 -0.3187
  202MOL    H4824570   5.582   0.750   4.032  0.5749  0.8701 -0.6949
  202MOL    H4924571   5.488   0.892   4.075  0.6451  0.5002 -1.9376
  202MOL    C5024572   5.697   0.902   4.147 -0.4178 -0.0343  0.0269
  202MOL    C5124573   5.751   0.980   4.019 -0.2862 -0.2526  1.1021
  202MOL    H5224574   5.685   0.962   4.238  1.1336 -1.0718  0.9293
  202MOL    H5324575   5.780   0.834   4.163 -0.1582  0.3333  0.2706
  202MOL    H5424576   5.676   1.042   3.970  1.4298 -0.5572 -2.0636
  202MOL    H5524577   5.824   1.055   4.048 -1.4964  1.3140  0.1533
  202MOL    C5624578   5.828   0.892   3.919  0.1085 -1.0075  0.1286
  202MOL    C5724579   5.879   0.963   3.796  0.3526  0.2034  0.0948
  202MOL    H5824580   5.914   0.843   3.964  0.1729 -1.0697 -0.0621
  202MOL    H5924581   5.759   0.816   3.884 -2.3959  1.1034  0.3184
  202MOL    H6024582   5.801   1.008   3.735 -0.0193  0.8006  0.9891
  202MOL    H6124583   5.939   1.043   3.842 -0.1285  0.7104 -0.1574
  202MOL    C6224584   5.976   0.878   3.706  0.5393 -0.2024  0.1852
  202MOL    C6324585   6.045   0.964   3.599 -0.1949  0.0976  0.1652
  202MOL    H6424586   6.059   0.837   3.764  1.7392  2.1405  0.1731
  202MOL    H6524587   5.920   0.800   3.654 -0.3495  0.0278  0.7839
  202MOL    H6624588   5.984   1.043   3.556  0.6402  1.0325  0.6813
  202MOL    H6724589   6.134   1.007   3.644  0.5657 -1.0263 -0.2336
  202MOL    C6824590   6.104   0.886   3.482  0.7568 -0.3215 -0.3041
  202MOL    C6924591   6.005   0.868   3.367 -0.3682  0.3645 -0.3779
  202MOL    H7024592   6.204   0.916   3.449  0.8165 -0.4872 -0.2745
  202MOL    H7124593   6.116   0.783   3.516 -1.5420 -0.5651 -0.1472
  202MOL    H7224594   5.920   0.807   3.395 -0.6896  0.7556 -0.5056
  202MOL    H7324595   5.981   0.967   3.328 -0.9215  0.3938  0.0396
  202MOL    C7424596   6.082   0.802   3.248 -0.1838 -0.0312 -0.5260
  202MOL    C7524597   5.980   0.760   3.142 -0.4315  0.7787 -0.4611
  202MOL    H7624598   6.141   0.885   3.207 -0.7127  0.6337  0.0418
  202MOL    H7724599   6.151   0.723   3.278  0.5989  1.4586  1.7550
  202MOL    H7824600   5.916   0.678   3.174  1.4803 -1.2689 -1.8096
  202MOL    H7924601   5.909   0.842   3.127  1.5819  2.4493 -1.0982
  202MOL    C8024602   6.037   0.715   3.016  0.2748  0.7473 -0.4965
  202MOL    C8124603   5.932   0.704   2.911 -1.0523 -0.2619  0.5065
  202MOL    H8224604   6.109   0.790   2.985  2.3524  0.0984  2.5719
  202MOL    H8324605   6.090   0.620   3.026 -0.4564  0.6188  2.5324
  202MOL    H8424606   5.863   0.623   2.933 -1.1146 -0.6715 -1.1167
  202MOL    H8524607   5.868   0.790   2.923  0.0386  0.4740  1.1679
  202MOL    C8624608   6.001   0.686   2.778 -0.6108 -0.3670 -0.1846
  202MOL    C8724609   5.905   0.631   2.670  0.2971  0.1231  0.7155
  202MOL    H8824610   6.041   0.781   2.743  0.2292 -1.1664 -1.4595
  202MOL    H8924611   6.087   0.620   2.785 -0.9743 -0.7018  1.2960
  202MOL    H9024612   5.881   0.527   2.691  2.4904 -0.3464  1.0568
  202MOL    H9124613   5.813   0.690   2.671  0.3619  0.2261  1.5950
  202MOL    C9224614   5.964   0.630   2.530 -0.4904 -0.0800  0.0415
  202MOL    C9324615   5.881   0.537   2.440  0.1244  0.5362  0.2114
  202MOL    H9424616   5.966   0.733   2.493 -0.3062 -0.1201 -0.0581
  202MOL    H9524617   6.068   0.599   2.539 -0.5019 -1.6617 -4.1920
  202MOL    H9624618   5.871   0.438   2.485  0.9235 -0.3410 -1.4756
  202MOL    H9724619   5.778   0.573   2.437 -0.4361 -1.0827 -1.0255
  202MOL    C9824620   5.930   0.548   2.292  1.0501 -0.7722 -0.8911
  202MOL    C9924621   5.830   0.471   2.206  0.1737 -0.0587  0.6565
  202MOL   H10024622   5.953   0.646   2.252 -0.0000 -0.1587 -0.0008
  202MOL   H10124623   6.027   0.497   2.291  1.5784  0.2288 -0.4078
  202MOL   H10224624   5.820   0.368   2.241  1.0030 -0.0491  0.9299
  202MOL   H10324625   5.735   0.526   2.207  1.2334  1.7946  0.8382
  202MOL   C10424626   5.859   0.482   2.056  0.5391  0.8020  0.2562
  202MOL   C10524627   5.772   0.377   1.982 -0.4842 -0.4471  0.8094
  202MOL   H10624628   5.866   0.586   2.024  2.9836  0.6775  0.3002
  202MOL   H10724629   5.959   0.445   2.036  0.3537  2.0988 -3.3909
  202MOL   H10824630   5.774   0.285   2.042  0.5008  0.5670  2.3773
  202MOL   H10924631   5.672   0.418   2.000 -0.6220 -1.6337  3.0149
  202MOL   C11024632   5.816   0.370   1.833  0.3173  0.4551 -0.1747
  202MOL   C11124633   5.728   0.276   1.757 -0.5551 -1.0320  0.1748
  202MOL   H11224634   5.802   0.473   1.797  1.1941 -0.0045 -1.9096
  202MOL   H11324635   5.922   0.346   1.837  0.3703  0.7531  0.2699
  202MOL   H11424636   5.791   0.214   1.693  0.1245  0.2989 -0.4624
  202MOL   H11524637   5.670   0.208   1.819 -0.8671 -0.1590  0.8394
  202MOL   C11624638   5.635   0.346   1.663  0.4712 -0.6018 -0.1130
  202MOL   C11724639   5.533   0.258   1.595  0.1627  0.5263  0.5552
  202MOL   H11824640   5.581   0.414   1.730  1.8923  0.4635 -0.0377
  202MOL   H11924641   5.697   0.403   1.595 -0.1096  2.2047  1.6108
  202MOL   H12024642   5.463   0.304   1.525 -1.7966 -2.1923  0.6254
  202MOL   H12124643   5.591   0.182   1.543  0.6538  1.0291  0.3592
  202MOL   H12224644   5.483   0.206   1.676 -1.3209  0.7373 -0.1948
  203MOL     C124645   6.613   5.729   6.970 -0.5515 -0.1250  0.5642
  203MOL     C224646   6.578   5.866   6.912  0.0635  0.1984 -0.0964
  203MOL     H324647   6.708   5.698   6.927 -0.3262  2.3910 -0.8129
  203MOL     H424648   6.548   5.653   6.926  0.3662  0.9392 -2.7612
  203MOL     H524649   6.656   5.932   6.950  0.0790  1.7155 -2.6647
  203MOL     H624650   6.588   5.873   6.804 -1.4056  0.1396 -0.2515
  203MOL     H724651   6.626   5.720   7.078 -0.2742 -0.2575  0.5205
  203MOL     C824652   6.436   5.911   6.958  0.0704  0.2884  0.5488
  203MOL     C924653   6.316   5.822   6.896  0.7715 -0.1251 -0.1864
  203MOL    H1024654   6.424   5.905   7.067  0.5945  0.5460  0.6253
  203MOL    H1124655   6.423   6.016   6.932 -1.3910 -0.2235 -0.8313
  203MOL    H1224656   6.299   5.725   6.943 -2.7678  0.8209  0.6472
  203MOL    H1324657   6.229   5.877   6.932  1.4002 -0.7606  2.3960
  203MOL    C1424658   6.307   5.822   6.745  0.0789 -0.0956 -0.5467
  203MOL    C1524659   6.161   5.781   6.690  0.4955 -0.7937 -0.0582
  203MOL    H1624660   6.318   5.927   6.719 -0.4936 -0.3833 -1.9787
  203MOL    H1724661   6.394   5.773   6.701 -0.2326 -1.4053  0.2748
  203MOL    H1824662   6.142   5.673   6.686  0.0486 -0.7390  0.4378
  203MOL    H1924663   6.078   5.822   6.748  1.8320  0.3585  1.0731
  203MOL    C2024664   6.148   5.839   6.549 -0.1926 -0.3676 -0.6166
  203MOL    C2124665   6.011   5.808   6.490 -0.5791  0.7038  0.1437
  203MOL    H2224666   6.173   5.945   6.557 -1.4484 -0.0875 -0.2689
  203MOL    H2324667   6.232   5.797   6.493 -0.6266 -0.3950 -1.2463
  203MOL    H2424668   5.992   5.702   6.511  0.5584  0.9092  2.3362
  203MOL    H2524669   5.935   5.858   6.550 -1.4146 -0.3394 -0.0260
  203MOL    C2624670   5.988   5.853   6.339  0.1116 -0.3035  0.6644
  203MOL    C2724671   5.870   5.771   6.271 -0.8234 -0.4801 -0.2036
  203MOL    H2824672   5.956   5.957   6.344 -0.2186 -0.2533 -1.8885
  203MOL    H2924673   6.077   5.834   6.280 -0.9330 -0.0623 -1.0168
  203MOL    H3024674   5.797   5.747   6.349 -1.2374 -0.2214 -0.5109
  203MOL    H3124675   5.814   5.834   6.202 -1.5482  0.1831  0.9836
  203MOL    C3224676   5.916   5.652   6.194  0.3344 -0.1878  0.3314
  203MOL    C3324677   5.809   5.571   6.126  0.5475  0.2311  0.9770
  203MOL    H3424678   5.985   5.690   6.118  0.7825  0.6249  1.1422
  203MOL    H3524679   5.976   5.581   6.251  2.2222  0.7595 -0.4272
  203MOL    H3624680   5.736   5.552   6.204 -1.4213 -0.0418 -0.8779
  203MOL    H3724681   5.752   5.630   6.055  3.2089 -0.6103 -2.0066
  203MOL    C3824682   5.859   5.438   6.066 -0.6791  0.4911  0.1565
  203MOL    C3924683   5.744   5.357   5.986  0.0643  0.1086 -0.4669
  203MOL    H4024684   5.945   5.454   6.001 -0.1502  1.3839  1.0604
  203MOL    H4124685   5.899   5.381   6.149  1.0403 -0.8246 -1.5429
  203MOL    H4224686   5.674   5.311   6.055 -1.9160 -0.1695 -2.5857
  203MOL    H4324687   5.702   5.433   5.920  2.6126  1.1415 -0.9612
  203MOL    C4424688   5.793   5.258   5.884 -0.6951  0.5445 -0.2652
  203MOL    C4524689   5.696   5.215   5.774 -0.4404 -0.1107 -0.1288
  203MOL    H4624690   5.875   5.296   5.822  0.1783  0.2679  0.7114
  203MOL    H4724691   5.840   5.173   5.933  0.5454  0.8426 -0.9066
  203MOL    H4824692   5.627   5.136   5.802  0.1839 -0.8903 -0.7733
  203MOL    H4924693   5.628   5.294   5.743 -1.2722 -0.6944  0.2126
  203MOL    C5024694   5.773   5.170   5.647  0.4642 -0.4306 -0.0316
  203MOL    C5124695   5.683   5.141   5.519 -0.0840 -0.3002 -0.0505
  203MOL    H5224696   5.851   5.241   5.619  0.2984  0.3881  1.4966
  203MOL    H5324697   5.823   5.079   5.677 -0.1100 -0.6059  0.3993
  203MOL    H5424698   5.615   5.060   5.546  0.1804 -0.0826  1.2925
  203MOL    H5524699   5.622   5.225   5.487  0.9696 -0.1384 -1.7117
  203MOL    C5624700   5.767   5.103   5.396 -0.2002 -0.2547 -0.3524
  203MOL    C5724701   5.673   5.048   5.288 -0.4899 -0.4031  0.1070
  203MOL    H5824702   5.813   5.196   5.363 -3.2429  0.5344 -2.5388
  203MOL    H5924703   5.853   5.042   5.425  1.1535  2.2413  1.1270
  203MOL    H6024704   5.623   4.960   5.327 -0.0703 -0.6785  0.0238
  203MOL    H6124705   5.587   5.108   5.258 -0.7045 -0.9143 -0.2981
  203MOL    C6224706   5.757   5.016   5.169  0.4764  0.7174 -0.2843
  203MOL    C6324707   5.681   4.941   5.053 -0.8041 -0.6762  0.7216
  203MOL    H6424708   5.793   5.112   5.132 -0.4808  0.8355 -0.9450
  203MOL    H6524709   5.845   4.964   5.207  0.3684  0.9502  0.2801
  203MOL    H6624710   5.630   4.854   5.093 -0.7723 -0.5035  1.1482
  203MOL    H6724711   5.601   4.999   5.007 -0.4073  0.2834  1.2254
  203MOL    C6824712   5.775   4.890   4.943  0.2467 -0.7973  0.0061
  203MOL    C6924713   5.700   4.883   4.806  0.0536  0.3642  0.1625
  203MOL    H7024714   5.860   4.958   4.933  0.3456 -0.2005  3.9514
  203MOL    H7124715   5.808   4.790   4.972  0.4813 -0.7445 -0.0809
  203MOL    H7224716   5.600   4.839   4.812 -0.2177  0.8502 -0.5988
  203MOL    H7324717   5.687   4.983   4.764 -0.2499  0.1481 -0.2746
  203MOL    C7424718   5.785   4.805   4.705  0.5365 -0.3206 -0.0459
  203MOL    C7524719   5.905   4.883   4.660 -0.5104  0.1372  0.2461
  203MOL    H7624720   5.811   4.705   4.742 -0.3060 -0.7574 -0.6039
  203MOL    H7724721   5.725   4.790   4.616  0.6597 -3.2113  0.3098
  203MOL    H7824722   5.872   4.984   4.634 -0.0250  0.2215 -0.0601
  203MOL    H7924723   5.982   4.884   4.737 -1.1426 -0.1749  0.8844
  203MOL    C8024724   5.982   4.819   4.540 -0.4971  0.7645  0.5302
  203MOL    C8124725   6.072   4.926   4.459 -0.1357 -0.1286 -0.3666
  203MOL    H8224726   6.034   4.727   4.568  1.0800  1.4529 -0.0883
  203MOL    H8324727   5.899   4.786   4.478  0.8718 -4.4312  1.2513
  203MOL    H8424728   6.100   4.874   4.367 -2.4322 -0.6849 -0.7764
  203MOL    H8524729   6.005   5.005   4.425 -0.7565  0.1959  1.5561
  203MOL    C8624730   6.189   4.986   4.536  0.1176  0.2052  0.1648
  203MOL    C8724731   6.278   5.071   4.442  0.3059  0.1076  0.3500
  203MOL    H8824732   6.146   5.035   4.623 -1.1214 -0.6159  0.0324
  203MOL    H8924733   6.256   4.909   4.575 -0.3611  0.1779  0.9326
  203MOL    H9024734   6.324   5.009   4.364 -1.7463 -0.3996 -0.4777
  203MOL    H9124735   6.223   5.148   4.389 -0.0091 -1.3428 -1.4898
  203MOL    C9224736   6.402   5.131   4.500 -0.4355 -0.2738 -0.0141
  203MOL    C9324737   6.527   5.156   4.425  0.2357 -0.0320  0.8552
  203MOL    H9424738   6.377   5.225   4.549  3.1348  0.5411  0.4106
  203MOL    H9524739   6.441   5.073   4.584 -1.1141 -0.7726 -0.0422
  203MOL    H9624740   6.572   5.061   4.396 -1.1876  0.0104 -1.6024
  203MOL    H9724741   6.496   5.217   4.340  2.5350 -0.6480 -0.4626
  203MOL    C9824742   6.638   5.225   4.507  0.1169 -0.6109  0.4376
  203MOL    C9924743   6.757   5.255   4.413  0.1518  0.0397 -0.3216
  203MOL   H10024744   6.605   5.313   4.561  0.6693  0.0300 -0.2512
  203MOL   H10124745   6.667   5.156   4.586  0.7538 -0.6693  0.1591
  203MOL   H10224746   6.819   5.165   4.406 -1.8995 -1.3317 -1.3861
  203MOL   H10324747   6.733   5.284   4.311 -1.4506  0.3180  0.1261
  203MOL   C10424748   6.860   5.352   4.474  1.0245 -0.0786  0.2860
  203MOL   C10524749   6.990   5.372   4.380  0.4565 -0.0633 -0.1466
  203MOL   H10624750   6.810   5.448   4.487  0.8985 -0.2961  1.4247
  203MOL   H10724751   6.884   5.325   4.577  0.5983  2.4196  1.0673
  203MOL   H10824752   7.029   5.273   4.357  1.6963  0.6725 -1.2707
  203MOL   H10924753   6.979   5.413   4.279  1.6377  1.2485  0.2406
  203MOL   C11024754   7.100   5.443   4.458 -0.8268 -0.7639 -0.1039
  203MOL   C11124755   7.226   5.473   4.383  0.0940  0.0454  0.4237
  203MOL   H11224756   7.058   5.537   4.494 -0.4458 -0.3333 -0.7743
  203MOL   H11324757   7.123   5.384   4.547  2.8353  2.9930  1.6269
  203MOL   H11424758   7.283   5.383   4.359  0.1313  0.3963 -0.8504
  203MOL   H11524759   7.196   5.514   4.286 -0.2793  1.7567  1.2388
  203MOL   C11624760   7.321   5.559   4.463 -1.2551  0.5370  0.2693
  203MOL   C11724761   7.455   5.576   4.388  0.4248  1.0141 -0.0587
  203MOL   H11824762   7.271   5.654   4.481 -1.1365 -0.0334  4.2496
  203MOL   H11924763   7.352   5.528   4.563 -1.0331 -0.1329 -0.0024
  203MOL   H12024764   7.537   5.627   4.440 -1.3471  2.7666  1.1313
  203MOL   H12124765   7.501   5.486   4.349 -0.5438  0.6389 -0.3569
  203MOL   H12224766   7.436   5.644   4.304 -0.2698 -0.8245 -1.4189
  204MOL     C124767   7.187   5.310   2.075 -0.1608  0.6200  0.1578
  204MOL     C224768   7.050   5.388   2.082  0.1851  0.4364  0.5311
  204MOL     H324769   7.257   5.359   2.008 -1.1330 -0.6841 -1.8592
  204MOL     H424770   7.172   5.207   2.042  0.0641 -0.0712  2.1553
  204MOL     H524771   7.088   5.485   2.111  0.7215  0.1499  0.7799
  204MOL     H624772   7.011   5.408   1.982  2.7144 -1.5263 -0.8909
  204MOL     H724773   7.225   5.311   2.177 -2.0658  0.9030  0.8989
  204MOL     C824774   6.944   5.337   2.174  0.1329  0.3368  0.4578
  204MOL     C924775   6.898   5.196   2.155  0.6414  0.5767  0.2102
  204MOL    H1024776   6.969   5.360   2.277 -0.3929  0.5281  0.5422
  204MOL    H1124777   6.863   5.407   2.155  2.1392  3.2488  2.2691
  204MOL    H1224778   6.872   5.179   2.051 -0.6191  2.1293  0.2479
  204MOL    H1324779   6.971   5.122   2.188  1.7402  2.2263  1.5827
  204MOL    C1424780   6.769   5.175   2.228 -0.2238  0.6640  0.3461
  204MOL    C1524781   6.701   5.038   2.203  0.4886  0.0871 -0.2406
  204MOL    H1624782   6.769   5.201   2.333 -4.0561  0.3748  0.4871
  204MOL    H1724783   6.701   5.253   2.194 -1.5599 -1.0288 -0.9850
  204MOL    H1824784   6.667   5.036   2.099  0.0860  1.5630 -0.1558
  204MOL    H1924785   6.768   4.954   2.221 -0.0235 -0.0451  1.1283
  204MOL    C2024786   6.575   5.021   2.281 -0.3333  0.1307  0.4400
  204MOL    C2124787   6.518   4.885   2.264  0.2450  0.5412  0.8747
  204MOL    H2224788   6.606   5.038   2.384  0.8665 -1.4533  0.3641
  204MOL    H2324789   6.508   5.103   2.255  0.6157  0.4195 -1.1165
  204MOL    H2424790   6.505   4.875   2.156 -0.0284 -2.4771  1.1269
  204MOL    H2524791   6.582   4.802   2.297 -1.3632 -2.1519 -2.4880
  204MOL    C2624792   6.390   4.851   2.330  0.6043 -0.5639  0.1774
  204MOL    C2724793   6.339   4.712   2.278  0.9153 -0.3514  0.3899
  204MOL    H2824794   6.401   4.855   2.438 -0.3064 -1.6191  0.3202
  204MOL    H2924795   6.316   4.925   2.299 -0.9407 -1.5148  1.5012
  204MOL    H3024796   6.338   4.713   2.169  0.2243  3.3774  0.3700
  204MOL    H3124797   6.404   4.636   2.322  0.1571 -0.6937  0.9168
  204MOL    C3224798   6.194   4.681   2.310 -0.6459  0.2470  0.2038
  204MOL    C3324799   6.178   4.664   2.459 -0.3551 -0.0585 -0.0661
  204MOL    H3424800   6.129   4.758   2.268  0.4291  2.3153  2.2080
  204MOL    H3524801   6.174   4.582   2.270  2.1471  0.0746 -0.8103
  204MOL    H3624802   6.261   4.599   2.488  0.9246  1.6729  0.1990
  204MOL    H3724803   6.180   4.758   2.514  2.0848 -1.0779  1.7009
  204MOL    C3824804   6.047   4.591   2.491  0.7508 -0.4596 -0.1850
  204MOL    C3924805   6.044   4.439   2.446 -0.2997  0.6789  0.9225
  204MOL    H4024806   6.031   4.591   2.599 -3.6261  2.4128 -0.7216
  204MOL    H4124807   5.967   4.648   2.443  1.6731  0.1332 -1.0362
  204MOL    H4224808   6.027   4.436   2.338 -2.4502 -1.6473  1.2749
  204MOL    H4324809   6.137   4.387   2.468  0.1665 -0.0988 -2.5691
  204MOL    C4424810   5.926   4.363   2.507  0.1390  1.0183  0.8352
  204MOL    C4524811   5.910   4.209   2.474  0.0902  0.0996 -0.5876
  204MOL    H4624812   5.933   4.363   2.616 -1.6297 -0.7047  0.9764
  204MOL    H4724813   5.832   4.412   2.481 -0.4298 -1.3873 -1.8887
  204MOL    H4824814   6.006   4.158   2.489 -0.8456 -1.2749  0.8182
  204MOL    H4924815   5.841   4.168   2.547 -0.2147 -0.3157 -1.1009
  204MOL    C5024816   5.865   4.186   2.334  0.2117  0.0360  0.2879
  204MOL    C5124817   5.845   4.034   2.302  0.3854  0.4790 -0.0351
  204MOL    H5224818   5.772   4.239   2.310 -0.8226 -1.7708  0.2183
  204MOL    H5324819   5.931   4.229   2.259 -1.4612 -0.6658 -1.6321
  204MOL    H5424820   5.946   3.995   2.290 -0.2095 -0.7005 -1.3255
  204MOL    H5524821   5.805   3.981   2.389 -2.0470 -0.4248 -1.6591
  204MOL    C5624822   5.776   4.001   2.172  0.2620  0.1797 -0.6706
  204MOL    C5724823   5.633   4.065   2.163 -0.4006 -0.1803 -0.0320
  204MOL    H5824824   5.838   4.028   2.087 -0.0473  0.1644 -0.9034
  204MOL    H5924825   5.770   3.892   2.168 -2.2234  0.2449  0.4694
  204MOL    H6024826   5.575   4.010   2.238  2.1700  0.3347  2.4158
  204MOL    H6124827   5.633   4.167   2.200  1.0649  0.2052 -1.0534
  204MOL    C6224828   5.571   4.052   2.024 -0.0896 -0.4553  0.0868
  204MOL    C6324829   5.633   4.135   1.916 -0.2434 -0.9578  0.4594
  204MOL    H6424830   5.558   3.952   1.981 -0.1541 -0.1096 -0.7197
  204MOL    H6524831   5.469   4.090   2.033  0.6884  1.6849  0.1004
  204MOL    H6624832   5.622   4.240   1.942 -0.3697 -0.7159 -0.5357
  204MOL    H6724833   5.741   4.118   1.917 -0.2572 -1.2937 -1.2368
  204MOL    C6824834   5.584   4.108   1.773  0.3331 -0.1043  0.5506
  204MOL    C6924835   5.631   4.211   1.666  0.5597  0.6102  0.1118
  204MOL    H7024836   5.622   4.016   1.729 -0.2217 -0.2946  0.4639
  204MOL    H7124837   5.475   4.119   1.780  0.5892  2.1807  1.4572
  204MOL    H7224838   5.600   4.308   1.706  2.0338  0.1376  2.5117
  204MOL    H7324839   5.739   4.224   1.665  0.8044 -1.2779 -1.6804
  204MOL    C7424840   5.592   4.180   1.524  0.6957 -0.0393 -0.2625
  204MOL    C7524841   5.659   4.274   1.423  0.4406  0.1853 -0.6880
  204MOL    H7624842   5.632   4.080   1.511 -1.3172 -0.9914  0.6621
  204MOL    H7724843   5.483   4.172   1.525  0.7281 -0.3059  1.8822
  204MOL    H7824844   5.643   4.380   1.436 -2.1152  0.0051 -2.0781
  204MOL    H7924845   5.767   4.261   1.429  0.5034  1.5463  1.7028
  204MOL    C8024846   5.612   4.236   1.284 -0.6169 -0.4754  1.3148
  204MOL    C8124847   5.690   4.307   1.167  0.3598 -0.3236 -0.0463
  204MOL    H8224848   5.627   4.130   1.263 -3.3836 -0.5479 -0.4928
  204MOL    H8324849   5.506   4.260   1.277 -1.0414 -2.0616  2.0832
  204MOL    H8424850   5.705   4.410   1.198 -1.9594 -0.2959  1.1412
  204MOL    H8524851   5.794   4.277   1.161  1.2108  2.4308  0.3563
  204MOL    C8624852   5.628   4.278   1.033  0.5153  0.7346  0.3024
  204MOL    C8724853   5.706   4.338   0.920 -0.0633  0.1320  0.6003
  204MOL    H8824854   5.621   4.171   1.018 -3.3162  1.3197 -3.2131
  204MOL    H8924855   5.526   4.319   1.032  0.6230  1.0118  0.7000
  204MOL    H9024856   5.701   4.446   0.922  0.4528  0.1706  0.1422
  204MOL    H9124857   5.810   4.303   0.926  1.3892  4.2885  1.1513
  204MOL    C9224858   5.658   4.284   0.787 -0.3255  1.0317  0.0469
  204MOL    C9324859   5.725   4.343   0.662  0.8610 -0.0170  0.0220
  204MOL    H9424860   5.658   4.176   0.805 -1.7671  1.0305  0.0433
  204MOL    H9524861   5.551   4.300   0.786 -0.6941 -1.2369 -0.3938
  204MOL    H9624862   5.716   4.451   0.670 -0.1571 -0.1416  0.5565
  204MOL    H9724863   5.834   4.342   0.669  0.9361  2.2728 -0.3940
  204MOL    C9824864   5.660   4.298   0.527  0.0614  0.0242  0.1093
  204MOL    C9924865   5.711   4.376   0.410 -0.0004 -0.3831 -0.2397
  204MOL   H10024866   5.680   4.193   0.510 -0.1382 -0.3467  2.0200
  204MOL   H10124867   5.552   4.315   0.531 -0.1943 -0.3959 -3.3068
  204MOL   H10224868   5.692   4.484   0.403 -2.6808 -0.8445 -0.6355
  204MOL   H10324869   5.820   4.372   0.407  0.1044  1.3032  0.3559
  204MOL   C10424870   5.654   4.317   0.276  0.0291 -0.5674  0.3931
  204MOL   C10524871   5.717   4.383   0.150 -0.0260 -0.2515  0.8183
  204MOL   H10624872   5.650   4.208   0.269 -0.2113 -0.6558  1.8054
  204MOL   H10724873   5.554   4.360   0.273 -0.1950 -1.0472  0.9154
  204MOL   H10824874   5.691   4.489   0.152  1.2393  0.1449 -1.8330
  204MOL   H10924875   5.826   4.388   0.152  0.0277  0.2767 -1.8049
  204MOL   C11024876   5.670   4.323   0.016 -0.3254  0.3769 -0.1629
  204MOL   C11124877   5.750   4.379   7.583  0.8503  0.0361  0.4515
  204MOL   H11224878   5.694   4.216   0.019 -0.4953  0.3080 -1.2607
  204MOL   H11324879   5.561   4.332   0.012 -0.6190 -2.9257 -2.0752
  204MOL   H11424880   5.755   4.487   7.588  0.0076  0.0072  2.4844
  204MOL   H11524881   5.850   4.339   7.596  0.4859 -0.5025  1.7293
  204MOL   C11624882   5.678   4.332   7.452 -0.0161 -0.1188  0.0782
  204MOL   C11724883   5.548   4.394   7.428 -0.1309  0.0746  0.5107
  204MOL   H11824884   5.741   4.358   7.367 -0.8198  0.3277 -0.3820
  204MOL   H11924885   5.680   4.223   7.446  1.5295 -0.2201  1.8659
  204MOL   H12024886   5.514   4.371   7.327  1.5404 -0.4649  0.0554
  204MOL   H12124887   5.475   4.360   7.501 -0.2183  1.5363  1.1225
  204MOL   H12224888   5.558   4.503   7.426  0.3133  0.0497  1.2615
  205MOL     C124889   2.033   2.055   7.546  0.1667 -0.2659 -0.3815
  205MOL     C224890   2.187   2.083   7.538  0.4238  0.6180 -0.3882
  205MOL     H324891   1.969   2.114   7.480 -0.1616  0.9887  1.0399
  205MOL     H424892   1.984   2.068   7.642 -1.0613 -3.8850 -0.4279
  205MOL     H524893   2.208   2.181   7.581  0.1346  0.0653  1.0415
  205MOL     H624894   2.239   2.016   7.605 -0.1749 -3.0368 -3.3809
  205MOL     H724895   2.041   1.951   7.516 -1.9396 -0.2155 -1.2204
  205MOL     C824896   2.246   2.066   7.397 -0.5991 -0.1464  0.2401
  205MOL     C924897   2.259   2.196   7.316 -0.0181  0.4803  0.3255
  205MOL    H1024898   2.349   2.029   7.400 -0.5685 -0.4496 -2.7251
  205MOL    H1124899   2.190   1.987   7.347  0.9969 -0.3769 -1.2379
  205MOL    H1224900   2.160   2.241   7.312  0.2009  1.1999  2.2683
  205MOL    H1324901   2.329   2.261   7.369  1.1779  0.8452 -1.6603
  205MOL    C1424902   2.294   2.177   7.163 -0.2166  0.4545  0.2266
  205MOL    C1524903   2.263   2.308   7.086  0.2880 -0.2527 -0.0794
  205MOL    H1624904   2.394   2.136   7.148  1.3510  2.9706  3.2637
  205MOL    H1724905   2.230   2.094   7.131 -0.6479  0.9425 -0.1945
  205MOL    H1824906   2.159   2.337   7.102  0.1425  0.6230 -2.4204
  205MOL    H1924907   2.319   2.395   7.118  1.5641 -1.1591  0.1947
  205MOL    C2024908   2.268   2.297   6.936  0.2328  0.3482  0.6082
  205MOL    C2124909   2.213   2.411   6.852  0.6764 -0.8072 -0.2672
  205MOL    H2224910   2.370   2.274   6.904 -0.3453 -1.9475  0.3070
  205MOL    H2324911   2.223   2.200   6.913 -3.1872  1.8416  0.7346
  205MOL    H2424912   2.214   2.379   6.748 -0.8590 -0.5837 -0.3596
  205MOL    H2524913   2.111   2.431   6.885  0.4061 -2.2799 -0.1536
  205MOL    C2624914   2.292   2.538   6.857 -0.1054 -0.7364 -0.0442
  205MOL    C2724915   2.235   2.654   6.765 -0.1226 -0.0132 -0.1688
  205MOL    H2824916   2.296   2.572   6.960  1.4491 -3.2384  0.7405
  205MOL    H2924917   2.394   2.518   6.825 -0.0986  2.5281 -2.3839
  205MOL    H3024918   2.243   2.614   6.664  1.7847 -1.2087  0.4302
  205MOL    H3124919   2.131   2.676   6.788  0.3757  2.4832 -0.1200
  205MOL    C3224920   2.318   2.782   6.767  0.5330 -0.0593  0.4361
  205MOL    C3324921   2.258   2.886   6.676 -0.0355  0.3947  0.6687
  205MOL    H3424922   2.332   2.822   6.868  0.4747 -2.1828  1.3083
  205MOL    H3524923   2.420   2.760   6.736  1.3359  1.8148  1.6438
  205MOL    H3624924   2.250   2.840   6.578 -0.6412  0.9408  0.4596
  205MOL    H3724925   2.155   2.894   6.712 -0.9857  0.6385 -2.0527
  205MOL    C3824926   2.330   3.016   6.681  0.5214 -0.7709 -0.3357
  205MOL    C3924927   2.286   3.128   6.584  0.2212 -0.7342  0.1065
  205MOL    H4024928   2.351   3.055   6.780 -0.7502 -0.8430 -0.0292
  205MOL    H4124929   2.429   2.990   6.644  0.5646 -0.7183 -0.2577
  205MOL    H4224930   2.266   3.094   6.483 -1.2990 -2.3282  0.9282
  205MOL    H4324931   2.190   3.174   6.611  0.2529  0.1852 -1.2850
  205MOL    C4424932   2.376   3.256   6.586  0.4551 -0.3215 -0.3471
  205MOL    C4524933   2.525   3.240   6.537 -0.0466 -0.1041  0.6321
  205MOL    H4624934   2.342   3.333   6.518 -1.0403 -1.6639 -1.1464
  205MOL    H4724935   2.363   3.297   6.686 -0.2466 -0.6514 -0.3002
  205MOL    H4824936   2.565   3.151   6.585 -0.9888  0.2793  2.1519
  205MOL    H4924937   2.524   3.220   6.429 -1.6518  0.6848  0.4949
  205MOL    C5024938   2.616   3.361   6.563  0.6205  0.1022 -0.5598
  205MOL    C5124939   2.740   3.374   6.472 -0.3133  0.1986  0.5968
  205MOL    H5224940   2.569   3.456   6.537 -0.9908 -1.2463 -2.8009
  205MOL    H5324941   2.625   3.370   6.671  0.2764  1.8469 -0.6650
  205MOL    H5424942   2.816   3.302   6.502  0.9750  1.0530 -0.5572
  205MOL    H5524943   2.722   3.337   6.371 -3.1203  0.2915  1.0205
  205MOL    C5624944   2.803   3.516   6.470 -1.0491 -0.6619  0.2328
  205MOL    C5724945   2.942   3.521   6.415  0.0539 -0.1479 -0.4056
  205MOL    H5824946   2.733   3.573   6.409 -0.5234  0.4263  0.6137
  205MOL    H5924947   2.803   3.561   6.570  0.7526 -1.3840  0.5830
  205MOL    H6024948   3.001   3.441   6.461  0.3225  0.6385  0.6456
  205MOL    H6124949   2.952   3.489   6.311 -0.4501 -2.6081  0.2655
  205MOL    C6224950   2.990   3.662   6.419 -0.3339  0.2174  0.0442
  205MOL    C6324951   3.127   3.683   6.355 -1.3020 -0.4570  0.5172
  205MOL    H6424952   2.915   3.724   6.370  0.1472 -1.2219 -2.6313
  205MOL    H6524953   2.998   3.682   6.526 -1.0095  0.2793  0.0891
  205MOL    H6624954   3.201   3.615   6.398  1.9623  2.3092 -0.4350
  205MOL    H6724955   3.113   3.653   6.252  2.0189 -3.9750  0.9621
  205MOL    C6824956   3.179   3.832   6.370  0.5214  0.2083  0.9022
  205MOL    C6924957   3.307   3.861   6.287 -0.0158  0.2252  0.0913
  205MOL    H7024958   3.101   3.901   6.338 -0.7273 -1.1959  0.8258
  205MOL    H7124959   3.195   3.850   6.476 -1.5547 -2.4309  1.6952
  205MOL    H7224960   3.374   3.927   6.341 -1.0786  1.2946  0.1205
  205MOL    H7324961   3.368   3.771   6.277  0.6213  0.8720 -2.0298
  205MOL    C7424962   3.281   3.924   6.152 -0.3086 -0.7041 -0.0529
  205MOL    C7524963   3.192   3.845   6.051  0.4665 -0.2053 -0.2453
  205MOL    H7624964   3.240   4.024   6.168  2.2777  0.4847 -0.5333
  205MOL    H7724965   3.381   3.939   6.111 -0.0944 -0.9389  0.3814
  205MOL    H7824966   3.229   3.742   6.049  0.5908 -0.1924  1.4274
  205MOL    H7924967   3.088   3.838   6.082 -0.2697  3.0314 -1.7666
  205MOL    C8024968   3.196   3.910   5.908  0.3503 -0.0593  0.3697
  205MOL    C8124969   3.119   4.044   5.902  0.8118 -0.5397 -0.3401
  205MOL    H8224970   3.300   3.926   5.879 -0.2751  1.7948 -0.9179
  205MOL    H8324971   3.147   3.840   5.841  1.5527  0.1333 -0.7281
  205MOL    H8424972   3.050   4.055   5.987  0.7038 -0.2872 -0.4585
  205MOL    H8524973   3.179   4.133   5.921  2.5459 -1.5660 -0.9014
  205MOL    C8624974   3.036   4.062   5.771 -0.1501  0.0116 -0.0699
  205MOL    C8724975   3.123   4.089   5.646  0.1635  0.4846  0.2735
  205MOL    H8824976   2.962   3.983   5.764  2.8112 -2.6144 -3.3665
  205MOL    H8924977   2.976   4.152   5.787  0.5891  0.3138  1.1091
  205MOL    H9024978   3.196   4.165   5.675  2.8065 -1.4455 -0.9959
  205MOL    H9124979   3.197   4.013   5.621 -0.3933  0.1872 -0.4924
  205MOL    C9224980   3.034   4.125   5.524 -0.3415 -0.1416 -0.5158
  205MOL    C9324981   3.111   4.200   5.414 -0.0304  1.0987 -0.0424
  205MOL    H9424982   3.001   4.030   5.483  1.9589 -0.4833 -1.6469
  205MOL    H9524983   2.950   4.189   5.554 -0.1882  0.6581 -1.7761
  205MOL    H9624984   3.149   4.289   5.465  0.9051  0.2610  0.7319
  205MOL    H9724985   3.194   4.138   5.381 -0.0964  1.0327 -0.0836
  205MOL    C9824986   3.023   4.245   5.303  0.0934 -0.3086  0.2341
  205MOL    C9924987   2.987   4.135   5.202 -0.0561  0.0236 -0.5301
  205MOL   H10024988   2.928   4.279   5.343  0.0529  0.2292 -0.3091
  205MOL   H10124989   3.083   4.324   5.258 -1.7840 -0.1721 -2.0849
  205MOL   H10224990   3.075   4.082   5.165  0.0387 -0.4335  0.3384
  205MOL   H10324991   2.925   4.053   5.237 -0.9659  1.3030  0.8950
  205MOL   C10424992   2.911   4.193   5.085 -0.4138  0.0276 -0.2539
  205MOL   C10524993   2.785   4.276   5.111  0.7293 -0.4531 -0.6749
  205MOL   H10624994   2.988   4.257   5.042 -0.3652 -0.3670 -0.7574
  205MOL   H10724995   2.889   4.116   5.011  1.3255 -2.9292  2.1871
  205MOL   H10824996   2.731   4.221   5.188  0.4192  2.0554  0.9484
  205MOL   H10924997   2.806   4.368   5.166 -0.3466  0.7198 -2.1795
  205MOL   C11024998   2.706   4.311   4.981  0.6477 -0.0388  0.3820
  205MOL   C11124999   2.591   4.409   5.016  0.2450  0.1392 -0.2189
  205MOL   H11225000   2.770   4.352   4.903  0.6352  0.0254  0.4052
  205MOL   H11325001   2.661   4.223   4.935  4.2471 -2.0732  0.5828
  205MOL   H11425002   2.537   4.416   4.921 -0.8556  1.0930  0.4555
  205MOL   H11525003   2.529   4.361   5.092  1.4272 -1.3224 -0.1490
  205MOL   C11625004   2.629   4.547   5.051 -0.6845  0.0843 -0.3710
  205MOL   C11725005   2.511   4.639   5.033  0.9155 -0.9182  0.4284
  205MOL   H11825006   2.672   4.553   5.152 -0.1287  3.4881 -0.7458
  205MOL   H11925007   2.707   4.585   4.986 -0.3574 -0.2696 -0.1887
  205MOL   H12025008   2.470   4.633   4.932 -1.6183  1.9466  1.1994
  205MOL   H12125009   2.421   4.611   5.088 -0.1163  1.4302  0.0009
  205MOL   H12225010   2.532   4.745   5.048 -1.3687 -0.3576 -0.1582
  206MOL     C125011   1.056   2.564   0.221  0.1666 -0.1881 -0.0375
  206MOL     C225012   1.199   2.552   0.268 -0.1738 -0.6281 -0.3853
  206MOL     H325013   1.044   2.547   0.114 -0.8629  2.4019 -0.3715
  206MOL     H425014   1.001   2.656   0.242 -0.3605 -0.2223 -1.2200
  206MOL     H525015   1.196   2.540   0.376 -0.0329  1.9222 -0.0651
  206MOL     H625016   1.248   2.461   0.232 -2.2045 -1.8137 -0.2509
  206MOL     H725017   0.991   2.486   0.261  2.8770 -2.1310  0.6822
  206MOL     C825018   1.288   2.660   0.211 -0.9018 -0.6154  0.1365
  206MOL     C925019   1.443   2.637   0.234 -0.6073 -0.0492  0.2350
  206MOL    H1025020   1.275   2.661   0.102 -1.1387  0.1209  0.1670
  206MOL    H1125021   1.257   2.762   0.235  0.4899 -0.2835  0.5587
  206MOL    H1225022   1.451   2.623   0.342  0.1018  1.2427  0.3659
  206MOL    H1325023   1.485   2.543   0.199  0.3883  0.2385  0.6341
  206MOL    C1425024   1.537   2.744   0.207  0.5349 -0.4325  0.0916
  206MOL    C1525025   1.681   2.701   0.223 -0.0851  0.4558  0.2867
  206MOL    H1625026   1.532   2.785   0.107 -1.1455  0.5539  0.5682
  206MOL    H1725027   1.517   2.825   0.277 -1.2814 -0.4016 -0.4363
  206MOL    H1825028   1.699   2.623   0.149  0.4818  0.2025  0.6858
  206MOL    H1925029   1.747   2.782   0.192  1.4041 -0.3278  1.3323
  206MOL    C2025030   1.716   2.657   0.368  0.6233  0.1982  0.0495
  206MOL    C2125031   1.867   2.642   0.403  0.5949 -0.2771  0.0411
  206MOL    H2225032   1.669   2.729   0.435 -0.9918 -0.4479 -0.3488
  206MOL    H2325033   1.674   2.558   0.387  3.2442 -1.1870 -1.0589
  206MOL    H2425034   1.897   2.553   0.347 -1.7628 -0.9280 -0.2355
  206MOL    H2525035   1.910   2.731   0.356 -2.6036  0.1573 -2.2240
  206MOL    C2625036   1.904   2.625   0.553 -0.1272 -0.8644  0.3359
  206MOL    C2725037   2.050   2.601   0.581 -0.4784 -0.2525  0.0631
  206MOL    H2825038   1.868   2.706   0.617  3.9101  0.2146  1.3776
  206MOL    H2925039   1.854   2.534   0.586 -2.0934  0.1799  0.3185
  206MOL    H3025040   2.093   2.506   0.549  0.4135 -0.6693  2.3455
  206MOL    H3125041   2.106   2.674   0.522 -1.4993  1.6138  1.3317
  206MOL    C3225042   2.092   2.621   0.729 -0.1868  0.6369 -0.1991
  206MOL    C3325043   2.241   2.621   0.766 -0.2319 -0.0417  0.1625
  206MOL    H3425044   2.056   2.718   0.764 -2.5597 -0.8835  1.6850
  206MOL    H3525045   2.049   2.540   0.788  0.5811 -0.3257 -0.9565
  206MOL    H3625046   2.290   2.537   0.715  1.4815 -0.1500  1.9474
  206MOL    H3725047   2.270   2.717   0.723  1.4231 -1.4695 -2.0315
  206MOL    C3825048   2.273   2.621   0.914  0.1082  0.6152 -0.0964
  206MOL    C3925049   2.426   2.624   0.947  0.3379  0.5867 -0.2004
  206MOL    H4025050   2.225   2.699   0.973 -2.5157 -1.5218  0.7268
  206MOL    H4125051   2.233   2.528   0.955  0.8646  0.1324 -0.4474
  206MOL    H4225052   2.480   2.549   0.889 -0.6166  0.1173 -0.4980
  206MOL    H4325053   2.470   2.718   0.913  1.0316 -0.1232 -1.2764
  206MOL    C4425054   2.463   2.597   1.093  0.1468 -0.0889 -0.2438
  206MOL    C4525055   2.613   2.599   1.131  0.8008  0.2228  0.9017
  206MOL    H4625056   2.412   2.670   1.157  1.7881 -1.3975  2.6842
  206MOL    H4725057   2.413   2.503   1.117 -1.6845  0.3211 -2.2884
  206MOL    H4825058   2.656   2.695   1.100  0.6847  0.1561  0.5390
  206MOL    H4925059   2.608   2.593   1.240  1.0447  1.9914  1.0244
  206MOL    C5025060   2.696   2.482   1.054 -0.1567 -0.4095  0.7600
  206MOL    C5125061   2.844   2.460   1.105  0.4738  0.2854 -0.6641
  206MOL    H5225062   2.637   2.393   1.076 -3.0610  1.5171  0.9778
  206MOL    H5325063   2.690   2.507   0.948  2.3930  1.9858  1.1317
  206MOL    H5425064   2.891   2.557   1.091  2.0339 -0.4290 -0.4324
  206MOL    H5525065   2.853   2.452   1.213  1.5485  1.3177 -0.6735
  206MOL    C5625066   2.919   2.342   1.033 -0.2218 -0.3294 -0.5219
  206MOL    C5725067   3.061   2.310   1.076 -0.0035 -0.5938  0.3548
  206MOL    H5825068   2.865   2.250   1.059 -3.3979  0.8871 -2.5141
  206MOL    H5925069   2.915   2.346   0.925  2.0032  0.6062 -0.5985
  206MOL    H6025070   3.117   2.402   1.092  1.2912 -1.3257  0.0869
  206MOL    H6125071   3.053   2.258   1.172 -3.7189  0.7305  0.8609
  206MOL    C6225072   3.139   2.232   0.963  0.1431  0.5626 -0.4666
  206MOL    C6325073   3.283   2.196   1.011  0.3447 -0.1343 -0.0189
  206MOL    H6425074   3.076   2.144   0.951  1.7968 -0.5974 -0.8065
  206MOL    H6525075   3.135   2.283   0.867 -1.0810 -0.7376 -1.1205
  206MOL    H6625076   3.336   2.287   1.042  1.1487 -0.1058 -1.4567
  206MOL    H6725077   3.270   2.137   1.102  1.2116 -0.4991 -0.1256
  206MOL    C6825078   3.360   2.105   0.912  0.7607 -0.1170 -0.1523
  206MOL    C6925079   3.498   2.085   0.967  0.0229  0.1900 -0.2870
  206MOL    H7025080   3.314   2.007   0.895  0.4246 -0.5478  2.8464
  206MOL    H7125081   3.383   2.162   0.822  0.9035 -1.6773 -1.1280
  206MOL    H7225082   3.543   2.184   0.980 -0.6914  0.7241 -1.8221
  206MOL    H7325083   3.487   2.024   1.056  0.6665 -2.1091 -1.7445
  206MOL    C7425084   3.587   2.012   0.868  0.2806  0.5558  0.0605
  206MOL    C7525085   3.716   1.983   0.940 -0.9630 -0.5923  0.3566
  206MOL    H7625086   3.549   1.919   0.826 -0.7897  0.6285  0.8699
  206MOL    H7725087   3.608   2.081   0.786 -0.2598 -0.6185 -1.0888
  206MOL    H7825088   3.757   2.079   0.972 -0.2460 -0.4397 -0.9602
  206MOL    H7925089   3.699   1.936   1.037  0.8744 -0.1140  0.9274
  206MOL    C8025090   3.811   1.911   0.849 -0.1395  0.3682  0.1563
  206MOL    C8125091   3.956   1.891   0.906 -0.5076  1.0636  0.5627
  206MOL    H8225092   3.775   1.816   0.809 -1.0544  0.8835 -0.2520
  206MOL    H8325093   3.826   1.959   0.753  1.7658  0.6938  0.5950
  206MOL    H8425094   3.989   1.991   0.935  1.9899 -0.1653  2.1202
  206MOL    H8525095   3.956   1.833   0.998 -1.0080 -1.8961 -1.2488
  206MOL    C8625096   4.044   1.820   0.799  0.1066 -0.4640 -0.0700
  206MOL    C8725097   4.188   1.810   0.842 -0.1361  0.4321  0.7006
  206MOL    H8825098   3.997   1.725   0.774 -1.7331  0.3010  0.4550
  206MOL    H8925099   4.045   1.877   0.706  0.1216  2.8295  1.8693
  206MOL    H9025100   4.221   1.911   0.869  1.0126 -0.1093  1.3448
  206MOL    H9125101   4.201   1.749   0.931  1.4023  0.4122  0.4891
  206MOL    C9225102   4.288   1.760   0.735 -0.3785 -0.2576  0.0524
  206MOL    C9325103   4.425   1.747   0.804  0.6943 -0.3949 -0.3842
  206MOL    H9425104   4.250   1.662   0.708 -0.6403 -0.9376  2.8264
  206MOL    H9525105   4.283   1.808   0.637 -2.2927 -0.9429 -0.1959
  206MOL    H9625106   4.461   1.846   0.831  1.7353 -0.3370 -1.8671
  206MOL    H9725107   4.423   1.692   0.898  2.3869  1.2090  0.6226
  206MOL    C9825108   4.530   1.682   0.712 -0.0549  0.0735 -0.0500
  206MOL    C9925109   4.676   1.712   0.756  0.0963 -0.1310  0.1286
  206MOL   H10025110   4.513   1.575   0.711 -0.1423  0.0890 -2.2335
  206MOL   H10125111   4.508   1.724   0.614  0.8915  0.8377  0.0530
  206MOL   H10225112   4.692   1.819   0.742 -1.3805  0.2752  1.4272
  206MOL   H10325113   4.675   1.688   0.863 -1.8374 -0.0722  0.1282
  206MOL   C10425114   4.783   1.627   0.680  0.3599  0.2294  1.0837
  206MOL   C10525115   4.930   1.643   0.742  0.4633 -0.2795  0.5882
  206MOL   H10625116   4.760   1.521   0.693  2.2118 -0.2313  0.8014
  206MOL   H10725117   4.775   1.654   0.575 -0.6120 -0.5323  0.9576
  206MOL   H10825118   4.948   1.749   0.725 -2.9587  0.1496 -0.6947
  206MOL   H10925119   4.927   1.624   0.849  0.2333  1.0589  0.8320
  206MOL   C11025120   5.050   1.564   0.671  1.0419 -0.1252  0.5783
  206MOL   C11125121   5.185   1.605   0.737 -0.0371 -0.1848 -0.4955
  206MOL   H11225122   5.023   1.460   0.686 -0.4470  0.0787 -0.5622
  206MOL   H11325123   5.049   1.579   0.563  0.4045 -0.1457  0.5799
  206MOL   H11425124   5.196   1.714   0.740 -3.4376  0.1994  0.6880
  206MOL   H11525125   5.186   1.568   0.839  0.7912  0.3052 -0.3215
  206MOL   C11625126   5.298   1.536   0.655  0.3255  0.7330  0.6445
  206MOL   C11725127   5.441   1.578   0.706 -0.5087  0.8479  0.2552
  206MOL   H11825128   5.284   1.428   0.666  0.8014  0.6363  0.3405
  206MOL   H11925129   5.288   1.556   0.549  2.6945 -0.8322  0.0740
  206MOL   H12025130   5.520   1.539   0.642  1.3508  4.5317  0.1795
  206MOL   H12125131   5.449   1.684   0.728 -1.4114  0.9220  0.2457
  206MOL   H12225132   5.452   1.537   0.807 -0.5056 -0.9644 -0.4578
  207MOL     C125133   3.268   5.438   0.906  0.2013 -0.4963  0.3511
  207MOL     C225134   3.235   5.309   0.979  0.6368 -0.1178  0.3085
  207MOL     H325135   3.215   5.530   0.931  0.1974 -0.4099  0.0311
  207MOL     H425136   3.250   5.424   0.799  0.1587  1.1134  0.1352
  207MOL     H525137   3.248   5.303   1.087  1.9955  0.1769  0.1733
  207MOL     H625138   3.128   5.300   0.963  0.6882 -0.3217  0.0732
  207MOL     H725139   3.374   5.451   0.928  0.1881 -0.7569  0.5684
  207MOL     C825140   3.299   5.182   0.923  0.1792  0.7668 -0.0990
  207MOL     C925141   3.445   5.146   0.949  0.5321 -0.4969  0.4096
  207MOL    H1025142   3.235   5.104   0.963  0.9110  0.1326 -0.1517
  207MOL    H1125143   3.286   5.176   0.815 -1.4304  1.3900  0.0497
  207MOL    H1225144   3.482   5.080   0.871  0.9187  1.8121 -1.4378
  207MOL    H1325145   3.502   5.238   0.935 -0.0523 -0.2904 -0.6363
  207MOL    C1425146   3.485   5.101   1.087 -0.3316 -0.3072 -0.4752
  207MOL    C1525147   3.623   5.039   1.100  0.1048  0.5377  0.2127
  207MOL    H1625148   3.479   5.185   1.155  1.2003 -1.5189  1.2051
  207MOL    H1725149   3.406   5.036   1.127 -0.4655  0.4358  0.4835
  207MOL    H1825150   3.628   4.954   1.032 -2.0811 -0.7072  1.5423
  207MOL    H1925151   3.692   5.115   1.064  0.3397 -0.0852 -0.6573
  207MOL    C2025152   3.650   5.006   1.249  0.4836 -0.0996 -0.7243
  207MOL    C2125153   3.784   4.939   1.269 -0.2382  0.1893  0.2700
  207MOL    H2225154   3.642   5.090   1.319 -2.4255 -2.0804  1.4687
  207MOL    H2325155   3.571   4.936   1.276  0.4807 -0.0481 -0.6018
  207MOL    H2425156   3.783   4.904   1.373  0.3794  1.1316  0.5980
  207MOL    H2525157   3.782   4.866   1.188  0.4785  0.0516  0.3697
  207MOL    C2625158   3.912   5.024   1.250 -0.0148 -0.0583 -0.2219
  207MOL    C2725159   4.040   4.949   1.261 -0.5429 -0.1222  0.3398
  207MOL    H2825160   3.909   5.070   1.152 -0.8581 -1.5189 -0.8926
  207MOL    H2925161   3.917   5.110   1.318  2.3445  1.1958 -1.9341
  207MOL    H3025162   4.043   4.918   1.366 -0.3275 -0.2498  0.2972
  207MOL    H3125163   4.030   4.854   1.207  0.5054  0.9615 -1.8080
  207MOL    C3225164   4.167   5.022   1.216 -0.3538 -0.5273  0.2802
  207MOL    C3325165   4.289   4.934   1.227  0.4320  0.7673 -0.4519
  207MOL    H3425166   4.167   5.067   1.117  4.1162  2.1906  1.3728
  207MOL    H3525167   4.183   5.112   1.276  0.7226 -0.8508  0.4936
  207MOL    H3625168   4.301   4.889   1.325 -0.7191  1.8468  0.1938
  207MOL    H3725169   4.284   4.845   1.165  0.1497  0.8920 -0.6090
  207MOL    C3825170   4.419   5.022   1.196  0.7016 -0.1053 -0.5638
  207MOL    C3925171   4.549   4.949   1.194  0.4009  0.6131  0.7254
  207MOL    H4025172   4.414   5.048   1.090  1.9258  1.5000 -0.2447
  207MOL    H4125173   4.432   5.111   1.258  0.2456 -0.2467 -0.2655
  207MOL    H4225174   4.561   4.897   1.289  0.9830  0.0454  0.3522
  207MOL    H4325175   4.526   4.864   1.130  0.2997  1.7022 -0.6969
  207MOL    C4425176   4.666   5.041   1.142 -0.4236 -0.0559 -0.5947
  207MOL    C4525177   4.809   4.972   1.127 -0.6199 -0.6252  0.3753
  207MOL    H4625178   4.638   5.085   1.047  1.9471  0.8844 -0.9105
  207MOL    H4725179   4.662   5.112   1.225  0.4407 -1.5607  0.7821
  207MOL    H4825180   4.839   4.937   1.226 -1.0149 -2.6179 -0.2035
  207MOL    H4925181   4.803   4.875   1.079  0.9471 -0.3292 -0.4864
  207MOL    C5025182   4.926   5.048   1.051 -0.3334 -0.1105 -0.2775
  207MOL    C5125183   4.966   5.182   1.118 -0.2589  0.2213 -0.0716
  207MOL    H5225184   5.015   4.992   1.025 -0.4203 -0.9283  1.1339
  207MOL    H5325185   4.883   5.076   0.955  1.0784 -2.4605 -1.6361
  207MOL    H5425186   4.877   5.243   1.132 -2.9546 -3.1543 -1.7663
  207MOL    H5525187   5.014   5.166   1.215 -1.1238 -1.6038  0.0869
  207MOL    C5625188   5.076   5.261   1.031  0.0214  0.3184  0.2435
  207MOL    C5725189   5.098   5.393   1.098  0.2338 -0.5007 -0.6214
  207MOL    H5825190   5.168   5.203   1.024  1.4211  2.6358 -0.9054
  207MOL    H5925191   5.034   5.263   0.931  1.7576 -1.3680 -0.5509
  207MOL    H6025192   5.014   5.441   1.148  1.3120 -1.1702  1.9179
  207MOL    H6125193   5.180   5.370   1.166 -0.6657  0.6214  0.8742
  207MOL    C6225194   5.149   5.489   0.991  0.2265  0.3096 -0.3399
  207MOL    C6325195   5.190   5.618   1.054  1.1369  0.2437 -0.4226
  207MOL    H6425196   5.233   5.451   0.934 -1.0889 -0.8392 -1.5497
  207MOL    H6525197   5.061   5.501   0.927 -0.2782 -2.5026 -0.2390
  207MOL    H6625198   5.234   5.593   1.150  1.3790 -0.7480 -0.7861
  207MOL    H6725199   5.274   5.665   1.002  3.0693 -0.4791  1.9602
  207MOL    C6825200   5.074   5.723   1.060  0.1481  0.0061 -0.1441
  207MOL    C6925201   5.019   5.781   0.923 -0.0195 -0.1617  0.6343
  207MOL    H7025202   4.986   5.700   1.122  0.9548 -0.2525  0.9175
  207MOL    H7125203   5.111   5.807   1.118 -0.3937  1.1298 -1.4081
  207MOL    H7225204   5.100   5.779   0.850 -1.4032  0.5428 -0.9365
  207MOL    H7325205   4.944   5.716   0.879  1.2905  0.8843 -3.3784
  207MOL    C7425206   4.958   5.915   0.938  0.3014 -0.2170  0.0673
  207MOL    C7525207   4.874   5.955   0.826 -0.0352 -0.0508  0.5013
  207MOL    H7625208   4.903   5.916   1.033 -0.5817 -1.2007 -0.4175
  207MOL    H7725209   5.030   5.993   0.959 -1.1190  0.9463  0.7247
  207MOL    H7825210   4.932   5.950   0.733 -0.1755 -0.4205  0.4300
  207MOL    H7925211   4.798   5.877   0.819  0.5544 -0.7230  1.5035
  207MOL    C8025212   4.812   6.095   0.850 -0.7394  0.9429 -0.3504
  207MOL    C8125213   4.680   6.124   0.776  0.7537  0.4322  0.3455
  207MOL    H8225214   4.791   6.104   0.957 -3.2127  1.3885 -0.8570
  207MOL    H8325215   4.879   6.177   0.823  2.5442 -2.6784 -3.6858
  207MOL    H8425216   4.696   6.134   0.669  0.1102 -0.0718  0.1973
  207MOL    H8525217   4.609   6.043   0.793  0.4528  1.1105  2.3852
  207MOL    C8625218   4.619   6.260   0.815  0.8974 -0.5958  0.3272
  207MOL    C8725219   4.474   6.268   0.769  0.3691  0.7041 -0.0358
  207MOL    H8825220   4.642   6.265   0.921  1.7279 -0.5000  0.1445
  207MOL    H8925221   4.671   6.343   0.767  1.7016 -0.8336  0.7813
  207MOL    H9025222   4.464   6.242   0.664 -1.1091  0.6569  0.1061
  207MOL    H9125223   4.409   6.198   0.822  1.6225  1.0288  2.0234
  207MOL    C9225224   4.421   6.408   0.796  0.2418  0.2389 -0.0054
  207MOL    C9325225   4.281   6.436   0.744  0.2581  0.0225  0.2843
  207MOL    H9425226   4.423   6.438   0.900 -0.5667  1.4265 -0.3311
  207MOL    H9525227   4.490   6.480   0.751  1.0495 -0.1448  0.6126
  207MOL    H9625228   4.278   6.415   0.637  0.2096  1.0040  0.0877
  207MOL    H9725229   4.211   6.361   0.780  1.8898 -0.6409  2.1833
  207MOL    C9825230   4.233   6.571   0.794 -0.4369  0.3356 -1.0714
  207MOL    C9925231   4.268   6.677   0.690  0.2748  0.1632  0.4125
  207MOL   H10025232   4.124   6.576   0.798 -0.3917 -0.2838  3.1925
  207MOL   H10125233   4.269   6.590   0.895  2.0925  0.2075 -1.8987
  207MOL   H10225234   4.376   6.693   0.692  0.1637  1.4096 -1.4992
  207MOL   H10325235   4.245   6.647   0.588  2.1828  3.5475 -1.1130
  207MOL   C10425236   4.204   6.815   0.723  0.0123  0.8754  0.1154
  207MOL   C10525237   4.255   6.931   0.637  0.5697 -0.9791 -0.1167
  207MOL   H10625238   4.097   6.798   0.705  0.1038  0.0480  0.3321
  207MOL   H10725239   4.234   6.830   0.826  1.1818  0.5473 -0.1728
  207MOL   H10825240   4.363   6.945   0.635  0.6316 -1.4794 -0.4278
  207MOL   H10925241   4.231   6.902   0.534  2.3711  1.0184 -1.1532
  207MOL   C11025242   4.185   7.061   0.669 -0.5110 -0.1519 -0.7149
  207MOL   C11125243   4.257   7.177   0.599  0.8100 -0.0620 -0.7181
  207MOL   H11225244   4.082   7.062   0.633 -0.2449 -0.3575 -1.5017
  207MOL   H11325245   4.182   7.087   0.775  2.8192 -1.7012 -0.1842
  207MOL   H11425246   4.360   7.192   0.632  0.0252 -1.2044  2.4050
  207MOL   H11525247   4.256   7.160   0.491  1.2144 -0.9545 -0.5827
  207MOL   C11625248   4.182   7.310   0.623 -0.4908  0.3069  0.6065
  207MOL   C11725249   4.245   7.433   0.550 -0.2740  0.1746  0.2126
  207MOL   H11825250   4.078   7.298   0.592 -0.1933 -2.0738  0.4769
  207MOL   H11925251   4.169   7.329   0.729 -0.7693  1.2129  0.4185
  207MOL   H12025252   4.275   7.416   0.447  0.7697 -0.0820  0.5513
  207MOL   H12125253   4.167   7.509   0.554 -0.6053 -0.0017 -2.1683
  207MOL   H12225254   4.334   7.472   0.600 -1.3425  2.8107  0.1733
  208MOL     C125255   6.176   1.326   0.951  0.3646 -0.1353 -0.4874
  208MOL     C225256   6.129   1.250   1.075 -0.6710 -0.0248 -0.2721
  208MOL     H325257   6.140   1.268   0.866 -1.6725  0.6430 -0.1907
  208MOL     H425258   6.282   1.350   0.952  0.9570 -2.6373  1.7099
  208MOL     H525259   6.029   1.215   1.050 -0.3273  0.4453 -2.3854
  208MOL     H625260   6.190   1.160   1.082  0.3863  0.5980 -1.2648
  208MOL     H725261   6.130   1.425   0.946  1.3475  0.3461 -0.2446
  208MOL     C825262   6.121   1.317   1.214 -0.4662  0.5331  0.9428
  208MOL     C925263   6.263   1.375   1.264  0.3025  0.5080 -0.2890
  208MOL    H1025264   6.047   1.398   1.208 -0.1217  0.6472 -3.0275
  208MOL    H1125265   6.094   1.246   1.292  0.0555  1.5015  2.0173
  208MOL    H1225266   6.335   1.293   1.264  1.3916  1.3097 -4.1905
  208MOL    H1325267   6.301   1.443   1.187  0.2661  0.1835 -0.5923
  208MOL    C1425268   6.242   1.440   1.400  0.4277 -0.5717  0.2826
  208MOL    C1525269   6.328   1.568   1.422  0.2307  0.3631  0.4482
  208MOL    H1625270   6.137   1.457   1.424  0.3490  3.5249 -2.5518
  208MOL    H1725271   6.276   1.375   1.480 -1.3322 -0.3993  1.2138
  208MOL    H1825272   6.286   1.642   1.353 -2.4020 -1.0140  0.4918
  208MOL    H1925273   6.317   1.600   1.525 -0.2843  1.8995 -0.0683
  208MOL    C2025274   6.467   1.533   1.377 -0.7536  0.3940 -0.3404
  208MOL    C2125275   6.551   1.664   1.382 -0.7803 -0.0165  0.4165
  208MOL    H2225276   6.504   1.461   1.450 -3.8147  0.2505  1.1523
  208MOL    H2325277   6.484   1.481   1.283  0.9354 -1.5822  1.0133
  208MOL    H2425278   6.516   1.734   1.305 -2.2890 -0.0383  1.0573
  208MOL    H2525279   6.529   1.710   1.478  0.8533  2.3627 -0.2851
  208MOL    C2625280   6.703   1.654   1.358 -0.4324 -0.1798  0.4129
  208MOL    C2725281   6.785   1.776   1.416  0.9952  0.4486 -0.3267
  208MOL    H2825282   6.731   1.570   1.421  1.0389  0.3178  0.4457
  208MOL    H2925283   6.730   1.648   1.252 -0.2561 -0.0838  0.4530
  208MOL    H3025284   6.748   1.872   1.382 -3.3470 -1.5075 -1.4445
  208MOL    H3125285   6.767   1.769   1.524  2.9316 -2.4575 -0.1344
  208MOL    C3225286   6.934   1.758   1.396 -0.0407  0.5331 -0.0412
  208MOL    C3325287   7.037   1.851   1.457  0.1385  0.6661 -0.1183
  208MOL    H3425288   6.960   1.659   1.432 -0.0500  0.1060 -1.1728
  208MOL    H3525289   6.953   1.747   1.289 -1.6904  0.2938 -0.3121
  208MOL    H3625290   7.017   1.846   1.564  3.0466 -1.2582  0.4020
  208MOL    H3725291   7.141   1.821   1.444 -0.0319  0.7147 -1.5800
  208MOL    C3825292   7.012   1.994   1.401 -0.2112 -0.4105  0.5066
  208MOL    C3925293   7.081   2.017   1.261 -0.1193 -0.3840 -0.5049
  208MOL    H4025294   6.905   2.014   1.393 -0.3992 -1.5790 -0.0557
  208MOL    H4125295   7.058   2.064   1.470 -0.6585 -1.2016  1.6184
  208MOL    H4225296   7.190   2.012   1.261 -0.0659  0.5890 -1.3028
  208MOL    H4325297   7.051   1.940   1.190 -0.5477  0.7895 -1.6140
  208MOL    C4425298   7.041   2.145   1.194  0.2809 -0.2596 -0.2196
  208MOL    C4525299   7.068   2.140   1.051  0.5231  0.8390 -0.3470
  208MOL    H4625300   6.937   2.174   1.204  0.8296  1.8717 -0.4438
  208MOL    H4725301   7.102   2.225   1.237 -0.9985  0.8759 -0.4672
  208MOL    H4825302   7.160   2.084   1.036  0.2233 -0.2178  1.5724
  208MOL    H4925303   6.992   2.070   1.018 -2.2580  3.8673 -0.6641
  208MOL    C5025304   7.080   2.276   0.978  0.0297  0.1994  0.1611
  208MOL    C5125305   7.134   2.243   0.838  0.6716  0.3691 -0.2523
  208MOL    H5225306   6.983   2.325   0.984  0.5915  1.1614  1.7112
  208MOL    H5325307   7.148   2.349   1.022  0.7340  0.3889 -1.2265
  208MOL    H5425308   7.230   2.193   0.848  0.9516  1.0904  0.8296
  208MOL    H5525309   7.072   2.166   0.793 -0.6207  0.2523  1.6474
  208MOL    C5625310   7.146   2.368   0.749  0.2085  0.1056  0.0871
  208MOL    C5725311   7.218   2.351   0.614  0.4955 -0.0479  0.3636
  208MOL    H5825312   7.044   2.406   0.737  0.2406  0.4474  0.8568
  208MOL    H5925313   7.214   2.431   0.806  0.9071  0.0754 -0.7037
  208MOL    H6025314   7.324   2.329   0.629  1.0223  1.7537 -0.6001
  208MOL    H6125315   7.167   2.267   0.568 -1.1029  0.7555  0.6359
  208MOL    C6225316   7.204   2.479   0.530  0.0150 -0.2301  0.2954
  208MOL    C6325317   7.284   2.456   0.402 -0.4186 -0.0622 -0.2876
  208MOL    H6425318   7.100   2.504   0.512 -0.1141 -1.3679 -0.6111
  208MOL    H6525319   7.252   2.566   0.575  0.3996  0.2361 -0.9790
  208MOL    H6625320   7.387   2.427   0.422 -0.8614 -1.0712  0.5692
  208MOL    H6725321   7.257   2.376   0.334  1.2737 -0.5532 -0.4035
  208MOL    C6825322   7.287   2.592   0.333  0.3680 -0.1437 -0.4354
  208MOL    C6925323   7.350   2.590   0.195 -0.2190  0.9032 -0.2810
  208MOL    H7025324   7.187   2.621   0.300 -0.2678 -0.9788  0.7702
  208MOL    H7125325   7.328   2.670   0.397 -0.1735 -0.2035 -0.0113
  208MOL    H7225326   7.453   2.559   0.212 -0.8312 -1.4804 -0.7221
  208MOL    H7325327   7.298   2.518   0.131 -0.6948 -1.8794  3.0870
  208MOL    C7425328   7.369   2.727   0.127  0.6856  0.3465 -0.7539
  208MOL    C7525329   7.404   2.706   7.671 -0.0619 -0.1145  0.2877
  208MOL    H7625330   7.272   2.778   0.133 -0.1711 -1.5110  1.6788
  208MOL    H7725331   7.442   2.780   0.188  0.4172  1.4388 -1.3671
  208MOL    H7825332   7.479   2.626   7.672 -0.6187 -0.6805 -1.7598
  208MOL    H7925333   7.322   2.656   7.620 -0.5154  0.4007  0.5092
  208MOL    C8025334   7.449   2.823   7.592  0.2568 -0.2942  0.2828
  208MOL    C8125335   7.339   2.942   7.582 -0.2093 -0.1239 -0.0469
  208MOL    H8225336   7.542   2.851   7.641  1.2732  1.3873 -2.4345
  208MOL    H8325337   7.468   2.781   7.493 -0.3358 -0.4173  0.2199
  208MOL    H8425338   7.243   2.894   7.568 -0.9631  0.9907  1.1653
  208MOL    H8525339   7.335   2.994   7.678  0.3996 -1.7279  0.8694
  208MOL    C8625340   7.377   3.058   7.483 -0.2225 -0.2204 -0.4543
  208MOL    C8725341   7.483   3.156   7.527  0.0609 -0.4316  0.3673
  208MOL    H8825342   7.396   3.012   7.386  0.4957  0.1327 -0.4766
  208MOL    H8925343   7.286   3.118   7.474 -0.1932 -0.1480 -0.2747
  208MOL    H9025344   7.465   3.184   7.631  0.8706  0.8162  0.1791
  208MOL    H9125345   7.583   3.112   7.518  0.2245  0.2085 -1.2050
  208MOL    C9225346   7.475   3.287   7.447  0.2754 -0.6386  0.5650
  208MOL    C9325347   7.471   3.273   7.289 -0.1886  0.1034 -0.0945
  208MOL    H9425348   7.379   3.331   7.472 -0.5561 -1.7379 -0.6615
  208MOL    H9525349   7.551   3.360   7.478 -0.5254  0.1380  0.7235
  208MOL    H9625350   7.576   3.253   7.266  0.0087  2.2520 -1.1861
  208MOL    H9725351   7.417   3.185   7.254  0.8719 -1.1484  1.3161
  208MOL    C9825352   7.410   3.380   7.198  0.1907 -0.2939  0.0945
  208MOL    C9925353   7.492   3.506   7.208  0.4671  0.8975  0.1162
  208MOL   H10025354   7.405   3.335   7.099  0.3648  0.1710 -0.1254
  208MOL   H10125355   7.303   3.395   7.216  0.2701  0.6248 -0.1691
  208MOL   H10225356   7.455   3.570   7.128 -1.5407 -1.0003 -0.5083
  208MOL   H10325357   7.479   3.564   7.300  2.4773  3.2642 -1.0259
  208MOL   C10425358   7.643   3.497   7.179 -0.4614  0.2232 -0.3226
  208MOL   C10525359   0.012   3.637   7.163  0.1258  0.3965  0.2211
  208MOL   H10625360   0.005   3.441   7.255  0.9790  1.5132 -0.3503
  208MOL   H10725361   7.665   3.442   7.088  1.1584 -2.6747  1.7280
  208MOL   H10825362   7.664   3.701   7.085 -0.2774 -0.4711 -0.2920
  208MOL   H10925363   0.001   3.695   7.255 -1.3528  0.8368 -0.2226
  208MOL   C11025364   0.161   3.640   7.138  0.3353  0.1689  0.0145
  208MOL   C11125365   0.232   3.778   7.124  0.4696  0.6844  0.1648
  208MOL   H11225366   0.212   3.588   7.219  2.2487  1.0564 -0.5802
  208MOL   H11325367   0.157   3.582   7.046 -2.0651 -0.2543  0.3377
  208MOL   H11425368   0.171   3.835   7.055  1.9909 -0.0467 -1.8564
  208MOL   H11525369   0.224   3.840   7.213  0.0454  1.5343 -0.4626
  208MOL   C11625370   0.378   3.775   7.074 -0.2739 -0.4424  0.6276
  208MOL   C11725371   0.445   3.916   7.083  0.2985 -0.4276 -0.1688
  208MOL   H11825372   0.432   3.699   7.131  0.2076  0.1773  0.9873
  208MOL   H11925373   0.375   3.734   6.972  1.1460  1.0653 -0.0342
  208MOL   H12025374   0.382   3.991   7.033 -0.7490 -1.5892 -0.6273
  208MOL   H12125375   0.457   3.938   7.189  0.1157 -0.0800 -0.2161
  208MOL   H12225376   0.544   3.921   7.038 -0.0309 -2.6729 -1.1982
  209MOL     C125377   7.460   3.087   1.404  1.1058  0.4954 -0.3459
  209MOL     C225378   7.543   3.125   1.526 -0.9440 -0.2107 -0.0530
  209MOL     H325379   7.395   3.001   1.421 -0.7706  1.9844  0.1590
  209MOL     H425380   7.522   3.064   1.317  1.8820  2.9121 -0.4635
  209MOL     H525381   7.593   3.037   1.567 -1.2505 -1.0074 -1.3427
  209MOL     H625382   7.614   3.204   1.500 -0.2600 -1.2129 -1.3490
  209MOL     H725383   7.380   3.156   1.377 -1.1306 -2.1490 -0.6765
  209MOL     C825384   7.447   3.159   1.639  0.1112 -0.1104 -0.0479
  209MOL     C925385   7.503   3.189   1.777  0.6144 -0.0172  0.0713
  209MOL    H1025386   7.391   3.249   1.612 -2.5685 -0.9792  2.3408
  209MOL    H1125387   7.374   3.080   1.658  0.2706 -0.5492 -1.2459
  209MOL    H1225388   7.427   3.179   1.856 -0.3736 -3.3179 -1.2155
  209MOL    H1325389   7.572   3.106   1.791  0.0762 -0.5288 -0.2886
  209MOL    C1425390   7.557   3.329   1.780 -0.0055  0.6607 -0.1673
  209MOL    C1525391   7.642   3.355   1.904  0.2407  0.2420  0.1985
  209MOL    H1625392   7.622   3.341   1.694 -0.1501 -2.4302 -0.7666
  209MOL    H1725393   7.466   3.387   1.767  0.4586  1.1054 -1.6040
  209MOL    H1825394   7.597   3.327   1.999  1.1822  0.0289  0.5833
  209MOL    H1925395   0.036   3.289   1.905  1.4698  1.7306 -2.1973
  209MOL    C2025396   0.002   3.501   1.918  0.4354  0.0683 -0.9274
  209MOL    C2125397   7.568   3.590   1.916  0.4776  0.0852  0.6799
  209MOL    H2225398   0.044   3.513   2.018 -0.1593 -1.5898 -0.4545
  209MOL    H2325399   0.073   3.525   1.839 -0.3394  1.0090 -1.3364
  209MOL    H2425400   7.505   3.587   1.827  0.3054 -1.7493  0.8435
  209MOL    H2525401   7.505   3.564   2.001 -0.4386  0.7096  0.2024
  209MOL    C2625402   7.612   3.735   1.929  0.1318  0.8823 -0.0410
  209MOL    C2725403   7.621   3.773   2.078  0.0147 -0.3763  0.7025
  209MOL    H2825404   0.020   3.756   1.892 -0.7433  2.0578 -1.7846
  209MOL    H2925405   7.541   3.800   1.879 -1.3206 -0.0761  0.7274
  209MOL    H3025406   7.524   3.777   2.127  0.2376  3.3485  0.9379
  209MOL    H3125407   7.675   3.706   2.144  0.8834  0.5860  0.9723
  209MOL    C3225408   0.001   3.908   2.099  0.1285  0.2439 -0.7330
  209MOL    C3325409   7.689   3.948   2.241 -0.2898 -0.1222  0.0670
  209MOL    H3425410   0.105   3.895   2.072  0.6172  1.4207  0.5034
  209MOL    H3525411   7.646   3.979   2.031  1.7511  0.2100 -1.9069
  209MOL    H3625412   7.591   3.931   2.284 -0.3496  0.4281  0.1512
  209MOL    H3725413   0.051   3.884   2.311  0.3663  1.4204  0.9904
  209MOL    C3825414   0.049   4.089   2.279 -0.6930 -0.3702  0.5124
  209MOL    C3925415   0.043   4.121   2.434 -0.6147  0.4161 -0.6722
  209MOL    H4025416   0.149   4.105   2.239 -0.8814 -0.9449 -0.2092
  209MOL    H4125417   7.679   4.155   2.218 -0.0858 -0.2562  0.0033
  209MOL    H4225418   7.630   4.123   2.464  0.0813 -0.0672  1.8478
  209MOL    H4325419   0.088   4.037   2.487 -0.7408  0.6936 -0.1229
  209MOL    C4425420   0.103   4.253   2.484  0.1458  0.5518  0.8411
  209MOL    C4525421   0.056   4.308   2.618  0.0582  0.4389 -0.3035
  209MOL    H4625422   0.212   4.249   2.481  0.1050 -0.5577  0.4761
  209MOL    H4725423   0.073   4.331   2.414 -0.3202  0.3607  0.8306
  209MOL    H4825424   7.641   4.327   2.609  0.0546  0.3991 -0.3436
  209MOL    H4925425   0.085   4.234   2.693 -0.2978 -0.5483 -1.1301
  209MOL    C5025426   0.126   4.443   2.649 -0.6036 -0.1319 -0.6207
  209MOL    C5125427   0.114   4.503   2.791  0.2423  0.0487 -0.7902
  209MOL    H5225428   0.234   4.431   2.641 -0.2642  1.3413  1.1767
  209MOL    H5325429   0.092   4.516   2.575 -2.7968  1.5369  1.9203
  209MOL    H5425430   0.009   4.524   2.810  0.3045 -1.2234  1.1862
  209MOL    H5525431   0.133   4.419   2.858  1.5774 -0.2337 -1.5028
  209MOL    C5625432   0.202   4.627   2.829 -0.4341  0.1277  0.4662
  209MOL    C5725433   0.167   4.677   2.970  0.1552 -0.2991  0.3987
  209MOL    H5825434   0.303   4.588   2.830 -0.6119 -0.4624 -1.4681
  209MOL    H5925435   0.203   4.696   2.744  1.4893 -0.8736 -0.3505
  209MOL    H6025436   0.065   4.715   2.983 -0.5103 -1.1041 -2.1620
  209MOL    H6125437   0.182   4.602   3.048  1.4645 -0.7274 -0.2597
  209MOL    C6225438   0.245   4.802   3.000  0.5762 -0.5418  0.5346
  209MOL    C6325439   0.211   4.855   3.135  0.2333 -0.1472  0.0477
  209MOL    H6425440   0.351   4.778   2.989 -0.0152 -3.0304 -0.0334
  209MOL    H6525441   0.215   4.874   2.924 -0.3200 -0.8649  0.5778
  209MOL    H6625442   0.109   4.889   3.117  1.2574  1.0793 -3.8583
  209MOL    H6725443   0.217   4.783   3.217 -3.9216 -1.2294 -0.5025
  209MOL    C6825444   0.296   4.979   3.167 -0.5321 -0.6019  0.1584
  209MOL    C6925445   0.252   5.037   3.304  0.3546 -0.7207 -0.0784
  209MOL    H7025446   0.402   4.953   3.177 -0.2760  0.6596  0.8603
  209MOL    H7125447   0.290   5.052   3.086  1.8915 -1.2519 -0.6718
  209MOL    H7225448   0.145   5.031   3.322  0.6252  0.7157  2.1899
  209MOL    H7325449   0.302   4.971   3.375 -0.3912 -0.1045  1.0171
  209MOL    C7425450   0.301   5.181   3.317 -0.0874 -0.5995  0.1926
  209MOL    C7525451   0.234   5.267   3.428  1.1756  0.3904  0.1698
  209MOL    H7625452   0.409   5.194   3.318 -0.0013 -1.0819 -1.4599
  209MOL    H7725453   0.266   5.224   3.224  0.3835  0.0224  0.3036
  209MOL    H7825454   0.272   5.369   3.418  2.4582 -0.1280 -0.3372
  209MOL    H7925455   0.125   5.264   3.426  1.1893  0.3515 -1.0949
  209MOL    C8025456   0.285   5.224   3.566 -0.3552 -0.3380  0.6363
  209MOL    C8125457   0.231   5.312   3.675 -0.5256 -0.3100  0.1469
  209MOL    H8225458   0.278   5.118   3.589 -1.7677  0.1408  2.4846
  209MOL    H8325459   0.393   5.238   3.574 -0.4371 -0.6492  2.3405
  209MOL    H8425460   0.300   5.302   3.759 -1.4860 -0.6472  0.9022
  209MOL    H8525461   0.246   5.415   3.643 -1.1075  0.9920  3.8031
  209MOL    C8625462   0.080   5.289   3.709 -0.3481 -0.3852  0.3728
  209MOL    C8725463   0.039   5.358   3.837  0.1549 -0.4683 -0.5998
  209MOL    H8825464   0.016   5.320   3.626  0.1501  3.3797  1.2871
  209MOL    H8925465   0.053   5.183   3.716  3.7959 -1.3681  2.7985
  209MOL    H9025466   0.083   5.309   3.924  0.6184  0.7451 -0.1347
  209MOL    H9125467   0.077   5.460   3.845  0.1515 -0.6559  2.5424
  209MOL    C9225468   7.570   5.378   3.852 -0.7167  0.4387  0.0236
  209MOL    C9325469   7.529   5.404   4.000  0.1423  0.4154 -0.5044
  209MOL    H9425470   7.532   5.455   3.786 -1.2336  1.0260  0.9999
  209MOL    H9525471   7.528   5.281   3.822 -0.6506  0.6122 -0.6240
  209MOL    H9625472   7.568   5.319   4.056  0.7942  0.2636 -1.1825
  209MOL    H9725473   7.586   5.490   4.036 -1.0765  1.4084 -0.9194
  209MOL    C9825474   7.372   5.424   4.016  0.7434 -0.1799  0.1518
  209MOL    C9925475   7.299   5.295   4.031 -0.3209 -0.1122 -0.4350
  209MOL   H10025476   7.353   5.490   4.101  2.3190  0.5732 -0.0736
  209MOL   H10125477   7.345   5.492   3.935  0.0540 -0.6050  0.0194
  209MOL   H10225478   7.332   5.234   3.946  0.5491 -1.6747  1.0023
  209MOL   H10325479   7.328   5.260   4.130  0.7156 -1.7950 -1.3119
  209MOL   C10425480   7.152   5.311   4.033 -0.3745  0.1266  0.2377
  209MOL   C10525481   7.066   5.183   4.051  0.1970  0.2123 -0.4042
  209MOL   H10625482   7.122   5.387   4.105 -1.5653 -0.3152  0.2179
  209MOL   H10725483   7.119   5.354   3.939 -0.8712  1.4236  0.9981
  209MOL   H10825484   7.101   5.096   3.996 -1.4483  0.1957 -1.4364
  209MOL   H10925485   7.077   5.161   4.157 -3.1738 -1.3786 -0.3304
  209MOL   C11025486   6.915   5.215   4.028 -0.3135 -0.5289  0.0823
  209MOL   C11125487   6.821   5.100   4.062 -0.0836  0.7865 -0.8328
  209MOL   H11225488   6.885   5.313   4.062  0.9178  0.7646 -2.4079
  209MOL   H11325489   6.902   5.232   3.921 -0.7900  0.5683  0.3104
  209MOL   H11425490   6.858   5.012   4.010  1.7667  1.4431 -0.6373
  209MOL   H11525491   6.831   5.076   4.168 -0.6114 -0.9133 -1.1574
  209MOL   C11625492   6.678   5.123   4.030  0.0630  0.4444  0.1276
  209MOL   C11725493   6.607   4.992   4.029 -0.1157  0.2009  0.2431
  209MOL   H11825494   6.630   5.190   4.101 -1.4216 -0.4531 -0.0049
  209MOL   H11925495   6.663   5.176   3.937  0.6380  0.4343  0.0247
  209MOL   H12025496   6.635   4.937   3.939 -0.8388 -2.2235  1.4317
  209MOL   H12125497   6.634   4.931   4.115  2.5613  1.1260  0.1136
  209MOL   H12225498   6.498   5.002   4.030 -0.1838  0.5820 -3.6618
  210MOL     C125499   4.841   1.040   3.095  0.5183  0.3074  0.6200
  210MOL     C225500   4.727   1.077   3.195 -0.1493  0.4597 -0.0628
  210MOL     H325501   4.803   1.066   2.996 -1.5391 -0.4222  1.1945
  210MOL     H425502   4.870   0.935   3.087 -1.0522 -0.1367  0.4743
  210MOL     H525503   4.661   0.992   3.208  0.0687  0.6490  2.5031
  210MOL     H625504   4.777   1.098   3.289 -0.3407 -2.1933  0.6793
  210MOL     H725505   4.920   1.110   3.119 -1.4529  2.3272  1.4192
  210MOL     C825506   4.651   1.192   3.145  0.2243 -0.2331  0.4157
  210MOL     C925507   4.527   1.226   3.228  0.2075  0.1040 -0.2898
  210MOL    H1025508   4.714   1.280   3.157  0.9589 -0.5538 -0.8478
  210MOL    H1125509   4.622   1.180   3.040 -0.4328  1.2416  0.4170
  210MOL    H1225510   4.449   1.150   3.239 -0.5034  1.1440  2.2215
  210MOL    H1325511   4.561   1.236   3.331 -1.6986  1.3824  0.2429
  210MOL    C1425512   4.455   1.350   3.183  0.3087  0.3446 -0.0241
  210MOL    C1525513   4.323   1.384   3.261  0.4804 -0.2366 -0.4595
  210MOL    H1625514   4.520   1.437   3.174  0.8761  0.1268  1.7200
  210MOL    H1725515   4.432   1.327   3.079  1.1567  0.4105 -0.2257
  210MOL    H1825516   4.250   1.304   3.269 -1.2880  1.3864 -0.1555
  210MOL    H1925517   4.359   1.408   3.361 -0.7301  0.6516 -0.2230
  210MOL    C2025518   4.240   1.507   3.216  0.0991  0.5464 -0.0468
  210MOL    C2125519   4.107   1.512   3.283  0.1173 -0.1284 -0.2830
  210MOL    H2225520   4.301   1.596   3.229  0.8616  0.2413 -1.5208
  210MOL    H2325521   4.228   1.493   3.109 -1.0795  0.5755  0.0723
  210MOL    H2425522   4.061   1.414   3.270  2.2819 -1.9285  4.6682
  210MOL    H2525523   4.125   1.528   3.389 -2.7649 -0.4731  0.2955
  210MOL    C2625524   4.027   1.635   3.238 -0.0718 -0.9960  0.1784
  210MOL    C2725525   3.902   1.648   3.326  0.5369  0.6893  0.4642
  210MOL    H2825526   4.092   1.722   3.231 -1.2265 -0.2869 -2.6098
  210MOL    H2925527   3.992   1.637   3.135 -0.5968 -0.2867  0.3631
  210MOL    H3025528   3.858   1.548   3.328  0.4329  0.7389  0.7254
  210MOL    H3125529   3.941   1.658   3.428  1.9705  1.0019 -0.1152
  210MOL    C3225530   3.794   1.746   3.284 -1.0693 -0.0525  0.0704
  210MOL    C3325531   3.707   1.782   3.407  0.0042 -0.1726  0.9946
  210MOL    H3425532   3.839   1.835   3.242 -1.6426 -0.5730 -1.6638
  210MOL    H3525533   3.727   1.698   3.213  0.2318 -0.9639 -0.5714
  210MOL    H3625534   3.668   1.697   3.463 -0.1770  0.5453  1.9738
  210MOL    H3725535   3.771   1.837   3.476  1.8591 -0.5070 -0.4199
  210MOL    C3825536   3.575   1.861   3.372  0.4371 -0.0507  0.6184
  210MOL    C3925537   3.592   2.005   3.319  0.2751 -0.2462  0.7461
  210MOL    H4025538   3.519   1.808   3.295  0.3996  0.3210  0.3865
  210MOL    H4125539   3.520   1.866   3.466  1.9263 -1.9499  1.6363
  210MOL    H4225540   3.668   2.059   3.375  0.1478 -1.4222  2.1017
  210MOL    H4325541   3.638   1.992   3.221  2.3453  0.8084  1.5390
  210MOL    C4425542   3.458   2.083   3.318  0.0555  0.5487 -0.7253
  210MOL    C4525543   3.468   2.225   3.258  0.1645  0.5200 -0.4005
  210MOL    H4625544   3.382   2.025   3.266  1.9873 -3.8556  1.1874
  210MOL    H4725545   3.425   2.089   3.421 -3.2398  1.2303 -1.7475
  210MOL    H4825546   3.538   2.290   3.311  0.8517 -1.3665  1.0527
  210MOL    H4925547   3.503   2.215   3.156 -1.1889  1.4228 -0.9680
  210MOL    C5025548   3.333   2.290   3.248  0.6699 -0.1805  0.0557
  210MOL    C5125549   3.318   2.413   3.152 -0.0115 -0.9934 -0.0991
  210MOL    H5225550   3.248   2.227   3.223 -1.0503  1.8064  0.7591
  210MOL    H5325551   3.319   2.325   3.351  0.3237 -0.9173  0.2608
  210MOL    H5425552   3.401   2.416   3.082  0.0233  0.1421 -0.0198
  210MOL    H5525553   3.224   2.407   3.096 -0.0144 -1.2042 -0.0741
  210MOL    C5625554   3.321   2.543   3.231  0.2710  0.2349  0.3183
  210MOL    C5725555   3.307   2.661   3.141 -0.0445 -0.1229 -0.2460
  210MOL    H5825556   3.236   2.545   3.298  0.7967  2.3667  0.9449
  210MOL    H5925557   3.416   2.550   3.283  0.9868 -1.2795 -0.7261
  210MOL    H6025558   3.217   2.654   3.081  0.7221 -2.8781 -1.1688
  210MOL    H6125559   3.295   2.744   3.210  1.6788  1.2426 -1.5453
  210MOL    C6225560   3.422   2.683   3.041 -0.1448  0.4107  0.5451
  210MOL    C6325561   3.570   2.680   3.089  0.3318  0.2429  0.7649
  210MOL    H6425562   3.409   2.606   2.965 -1.6335  0.9738  0.2054
  210MOL    H6525563   3.399   2.775   2.986  2.8363  1.7053  1.3506
  210MOL    H6625564   3.584   2.779   3.133 -0.6761  0.4924  0.5449
  210MOL    H6725565   3.595   2.603   3.162  2.6927  0.5644  0.3372
  210MOL    C6825566   3.676   2.674   2.977 -0.0559  0.0717  0.0700
  210MOL    C6925567   3.811   2.739   3.014  0.3487 -0.4833 -0.2997
  210MOL    H7025568   3.689   2.569   2.951 -0.9887 -0.5556  2.0159
  210MOL    H7125569   3.636   2.726   2.890  2.9729 -0.0192 -1.4019
  210MOL    H7225570   3.789   2.837   3.057  1.5602  0.0172 -0.8141
  210MOL    H7325571   3.862   2.680   3.090  3.0862  2.3382  0.1687
  210MOL    C7425572   3.905   2.762   2.894  0.1303 -0.3767  0.3175
  210MOL    C7525573   4.048   2.818   2.928 -0.2004  0.5059 -0.3179
  210MOL    H7625574   3.913   2.665   2.845  0.0969 -0.3479  0.2551
  210MOL    H7725575   3.864   2.825   2.815  1.6685 -0.6392 -0.7195
  210MOL    H7825576   4.054   2.919   2.968  1.6111 -0.7571  2.8081
  210MOL    H7925577   4.084   2.763   3.016 -0.0642  0.1380 -0.6006
  210MOL    C8025578   4.139   2.814   2.805 -0.2604  0.2664 -0.1243
  210MOL    C8125579   4.273   2.887   2.828  0.0622  0.1205 -0.4877
  210MOL    H8225580   4.159   2.715   2.765  1.3745  0.5551 -0.0519
  210MOL    H8325581   4.079   2.855   2.723 -1.5873  0.4950  0.9314
  210MOL    H8425582   4.250   2.992   2.849 -0.8582 -0.0693 -0.5637
  210MOL    H8525583   4.319   2.839   2.914 -0.0930  0.6146 -0.1268
  210MOL    C8625584   4.359   2.895   2.694 -0.2040  0.0909 -0.2415
  210MOL    C8725585   4.502   2.942   2.732  0.3174  0.4946  1.0553
  210MOL    H8825586   4.360   2.792   2.659 -1.3247 -0.7708  2.0912
  210MOL    H8925587   4.311   2.958   2.619 -0.1311 -1.9418 -2.0393
  210MOL    H9025588   4.497   3.040   2.779 -1.6238  0.0072  1.9226
  210MOL    H9125589   4.540   2.866   2.800 -1.5930 -3.3099 -1.9509
  210MOL    C9225590   4.595   2.943   2.611  0.6012  0.4998  0.3781
  210MOL    C9325591   4.734   2.995   2.653 -0.1761  0.2896  0.2436
  210MOL    H9425592   4.601   2.849   2.557 -0.6885  1.7853 -2.0874
  210MOL    H9525593   4.558   3.010   2.533  0.0949 -1.4912 -1.1310
  210MOL    H9625594   4.724   3.098   2.689  1.0935 -0.4119  2.7058
  210MOL    H9725595   4.776   2.929   2.729 -1.7196 -0.0045  0.8761
  210MOL    C9825596   4.826   2.998   2.532 -0.1133 -0.4331  0.5068
  210MOL    C9925597   4.964   3.057   2.564 -0.8109  1.1337  0.5088
  210MOL   H10025598   4.841   2.899   2.490  0.6207  0.8022 -2.2175
  210MOL   H10125599   4.779   3.060   2.456 -0.6459  0.3768  1.4861
  210MOL   H10225600   4.938   3.151   2.611 -1.8974 -0.4338  3.1577
  210MOL   H10325601   5.018   2.997   2.637 -1.1003  0.0116 -0.1809
  210MOL   C10425602   5.056   3.063   2.437 -0.0153  1.3693  0.5221
  210MOL   C10525603   5.191   3.126   2.455  0.8283 -0.1075  0.1736
  210MOL   H10625604   5.075   2.964   2.396 -2.0230  2.4052 -3.1417
  210MOL   H10725605   5.011   3.127   2.361  2.0891  0.8734 -1.1775
  210MOL   H10825606   5.172   3.227   2.491 -0.7416 -0.7072  1.0392
  210MOL   H10925607   5.239   3.058   2.525 -0.2770 -0.3099  0.7422
  210MOL   C11025608   5.283   3.129   2.327  0.2626 -0.4919  0.6955
  210MOL   C11125609   5.431   3.154   2.350  0.6072 -0.5262 -0.6394
  210MOL   H11225610   5.276   3.036   2.271  2.5379 -0.0855 -0.3047
  210MOL   H11325611   5.254   3.203   2.253  0.3170  2.5012  3.5316
  210MOL   H11425612   5.436   3.252   2.397  0.8274 -0.3881 -0.9476
  210MOL   H11525613   5.464   3.082   2.425 -1.9379 -0.9347  0.1386
  210MOL   C11625614   5.519   3.133   2.233 -0.4306  0.0284  0.0607
  210MOL   C11725615   5.669   3.144   2.259 -0.1104  0.5095  0.2569
  210MOL   H11825616   5.499   3.034   2.192  0.8403  0.2723 -1.1559
  210MOL   H11925617   5.483   3.198   2.153  0.3131  0.2435 -0.0983
  210MOL   H12025618   5.697   3.238   2.305  1.2722 -0.4066  1.3357
  210MOL   H12125619   5.703   3.072   2.335 -0.5106  2.5327  2.4127
  210MOL   H12225620   5.736   3.126   2.176  0.5964 -1.2472  1.1746
  211MOL     C125621   3.404   2.965   7.542  0.5739  0.1265  0.7033
  211MOL     C225622   3.363   2.957   7.389 -0.1032 -0.7760  0.1699
  211MOL     H325623   3.332   3.026   7.597 -1.8144 -2.0513  0.0732
  211MOL     H425624   3.506   2.997   7.563  0.2812  1.1758  0.5377
  211MOL     H525625   3.255   2.950   7.387 -0.1913  0.5606  0.2461
  211MOL     H625626   3.378   3.053   7.341 -2.0056 -0.4745  0.1441
  211MOL     H725627   3.383   2.869   7.590  2.7605  0.3300  2.1352
  211MOL     C825628   3.437   2.846   7.304 -0.0435  0.4337 -0.8099
  211MOL     C925629   3.419   2.841   7.152  0.0487 -0.2244  0.1432
  211MOL    H1025630   3.544   2.858   7.319 -0.0192  0.7263 -1.2390
  211MOL    H1125631   3.410   2.750   7.349  0.2294  0.8139  0.1803
  211MOL    H1225632   3.315   2.818   7.130 -0.5205 -0.5478  3.0155
  211MOL    H1325633   3.441   2.942   7.116  1.6824 -0.8779 -0.7579
  211MOL    C1425634   3.514   2.749   7.074 -0.1627 -0.4072  0.1951
  211MOL    C1525635   3.526   2.769   6.926 -0.6378  0.0089 -0.0248
  211MOL    H1625636   3.615   2.773   7.108  0.2975  0.6048 -1.8566
  211MOL    H1725637   3.502   2.646   7.106 -0.5052 -0.7273 -0.9651
  211MOL    H1825638   3.426   2.749   6.887 -1.8868  0.6599  2.7264
  211MOL    H1925639   3.547   2.875   6.911  0.1285  0.1853  2.0901
  211MOL    C2025640   3.629   2.678   6.862 -0.3902 -0.4607 -0.0239
  211MOL    C2125641   3.665   2.704   6.710  0.4879 -0.3396 -0.4800
  211MOL    H2225642   3.719   2.676   6.924 -0.3417 -1.4452 -0.1245
  211MOL    H2325643   3.584   2.580   6.874 -0.7907 -0.3145 -0.3198
  211MOL    H2425644   3.576   2.702   6.648  0.4254 -0.2436 -0.3921
  211MOL    H2525645   3.709   2.803   6.701 -1.0731  0.2213 -2.0409
  211MOL    C2625646   3.740   2.593   6.633 -0.0046 -0.5042 -0.2670
  211MOL    C2725647   3.866   2.554   6.711  0.8869 -0.0843  1.0292
  211MOL    H2825648   3.669   2.511   6.622 -1.1504  0.2241  1.4623
  211MOL    H2925649   3.760   2.636   6.535  0.9179  0.6154  0.3909
  211MOL    H3025650   3.936   2.636   6.726  1.6415 -0.8170  1.5939
  211MOL    H3125651   3.837   2.512   6.807 -1.8738  0.7111  0.5706
  211MOL    C3225652   3.958   2.453   6.628 -0.1522 -0.2710 -0.6415
  211MOL    C3325653   4.074   2.390   6.716  0.2057 -0.2868  0.1143
  211MOL    H3425654   3.903   2.372   6.580  0.6126 -0.3046 -1.4655
  211MOL    H3525655   4.014   2.506   6.551  2.7969 -0.9752  0.9535
  211MOL    H3625656   4.027   2.343   6.802 -0.7062  0.6968  0.1692
  211MOL    H3725657   4.100   2.302   6.657 -1.0006 -0.5474 -0.0416
  211MOL    C3825658   4.187   2.487   6.756  0.1929  0.5847  0.5971
  211MOL    C3925659   4.328   2.420   6.753  0.7908 -0.9553  0.4051
  211MOL    H4025660   4.187   2.581   6.700 -0.7593 -0.3338 -0.9473
  211MOL    H4125661   4.166   2.524   6.857  2.9226  1.5722  0.8580
  211MOL    H4225662   4.335   2.332   6.816 -0.3532 -0.1352  1.7263
  211MOL    H4325663   4.337   2.383   6.651 -0.0416 -1.4284  0.4985
  211MOL    C4425664   4.440   2.525   6.780  0.5173 -0.5832 -0.2328
  211MOL    C4525665   4.578   2.471   6.752 -0.3685 -0.4420 -0.1880
  211MOL    H4625666   4.431   2.612   6.716  0.7674  0.1633  0.7438
  211MOL    H4725667   4.433   2.551   6.885  0.8123  1.8281 -0.7940
  211MOL    H4825668   4.602   2.369   6.779  0.9424 -0.0194  0.2848
  211MOL    H4925669   4.597   2.475   6.645 -0.9350 -1.7081 -0.3420
  211MOL    C5025670   4.687   2.552   6.819  0.6218 -0.1933  0.3460
  211MOL    C5125671   4.826   2.536   6.757  0.2386  0.9252 -0.0607
  211MOL    H5225672   4.656   2.657   6.825  1.2617  0.1328 -1.8291
  211MOL    H5325673   4.684   2.513   6.921 -1.8695 -1.5916 -0.2286
  211MOL    H5425674   4.847   2.429   6.754  0.3863  0.9204  0.9748
  211MOL    H5525675   4.826   2.584   6.659 -0.5179  0.1250 -0.4542
  211MOL    C5625676   4.928   2.615   6.836 -0.0661 -0.1660 -0.9570
  211MOL    C5725677   5.065   2.616   6.772  0.4615  0.1673  0.3534
  211MOL    H5825678   4.881   2.713   6.845 -3.5119 -1.6458 -1.9828
  211MOL    H5925679   4.938   2.576   6.937  0.4273  3.3954  0.4300
  211MOL    H6025680   5.100   2.513   6.780  0.4534  0.2580  1.5824
  211MOL    H6125681   5.062   2.643   6.666  0.2826 -1.2287 -0.0163
  211MOL    C6225682   5.167   2.711   6.839 -0.1710 -0.6179  0.6446
  211MOL    C6325683   5.307   2.672   6.794  0.0997 -0.3710  0.1764
  211MOL    H6425684   5.154   2.815   6.811  0.3914  0.3832  3.9169
  211MOL    H6525685   5.165   2.709   6.948  1.6263 -1.5450  0.6734
  211MOL    H6625686   5.321   2.567   6.816  2.2732 -0.5132 -1.7215
  211MOL    H6725687   5.311   2.681   6.685 -2.6415 -1.1077 -0.0232
  211MOL    C6825688   5.411   2.756   6.858 -0.5672  0.1082 -0.7816
  211MOL    C6925689   5.559   2.724   6.817  0.0085 -0.1018  0.1861
  211MOL    H7025690   5.389   2.858   6.825  5.0938  0.8937 -2.6927
  211MOL    H7125691   5.393   2.743   6.965  0.3980  1.3479 -0.4604
  211MOL    H7225692   5.577   2.618   6.835 -0.9337 -0.1935  0.6134
  211MOL    H7325693   5.569   2.744   6.710 -0.7239 -0.4416  0.0495
  211MOL    C7425694   5.664   2.804   6.889 -0.0810 -0.5412 -0.2980
  211MOL    C7525695   5.806   2.756   6.866  0.3485  0.5964  0.2208
  211MOL    H7625696   5.670   2.905   6.847 -0.1965  0.7218  2.5528
  211MOL    H7725697   5.633   2.795   6.993 -1.3120 -1.5488 -0.7445
  211MOL    H7825698   5.811   2.648   6.877 -4.0093  0.3725  0.7022
  211MOL    H7925699   5.839   2.769   6.763  1.3053  0.9838  0.5683
  211MOL    C8025700   5.908   2.829   6.951 -0.1748  1.0031  0.0975
  211MOL    C8125701   6.050   2.776   6.918 -1.0777  0.2397 -0.9397
  211MOL    H8225702   5.899   2.937   6.936 -0.5071  0.7733 -1.4607
  211MOL    H8325703   5.886   2.811   7.056  2.4846 -0.6408  0.4074
  211MOL    H8425704   6.052   2.670   6.944 -0.0221  0.4459 -0.1339
  211MOL    H8525705   6.075   2.779   6.812  1.6862  0.4210 -0.3313
  211MOL    C8625706   6.164   2.855   6.984  0.2409 -0.1322  0.3619
  211MOL    C8725707   6.155   2.862   7.137  0.4479  0.5426 -0.1906
  211MOL    H8825708   6.258   2.800   6.974  0.3728  0.1948 -0.2139
  211MOL    H8925709   6.171   2.955   6.939 -0.0428 -1.1098 -1.9384
  211MOL    H9025710   6.226   2.933   7.180  1.0274  1.0599 -1.9853
  211MOL    H9125711   6.062   2.917   7.155 -0.1213 -0.9212  1.4744
  211MOL    C9225712   6.153   2.731   7.209 -0.8645  0.0292 -0.5080
  211MOL    C9325713   6.167   2.740   7.361  0.1814 -0.3084 -0.2927
  211MOL    H9425714   6.056   2.686   7.189 -0.3953 -0.4169 -1.8386
  211MOL    H9525715   6.233   2.666   7.174  0.1492  1.2972 -0.6001
  211MOL    H9625716   6.259   2.789   7.392  0.6457 -0.7230 -0.9906
  211MOL    H9725717   6.082   2.796   7.401 -1.4972 -1.0131 -2.7675
  211MOL    C9825718   6.177   2.600   7.429 -0.1815 -0.2109  0.0898
  211MOL    C9925719   6.142   2.611   7.581  0.1894  0.2829 -0.1001
  211MOL   H10025720   6.107   2.530   7.382 -0.2607  0.1005 -0.2589
  211MOL   H10125721   6.280   2.566   7.422 -0.3496 -0.8635  0.6158
  211MOL   H10225722   6.231   2.648   7.630  1.5001  1.0228 -2.9223
  211MOL   H10325723   6.063   2.686   7.591  0.3423  0.4565 -0.2133
  211MOL   C10425724   6.085   2.476   7.643 -0.1485 -0.0904  0.0107
  211MOL   C10525725   6.075   2.483   0.105 -0.2338  0.3857  0.2376
  211MOL   H10625726   5.987   2.472   7.597 -0.1805  1.4092 -0.0955
  211MOL   H10725727   6.147   2.394   7.608  1.2049  0.3128  1.4171
  211MOL   H10825728   6.168   2.511   0.155  0.7155  1.2344 -1.9251
  211MOL   H10925729   5.997   2.553   0.134  1.0191  2.0581 -0.3302
  211MOL   C11025730   6.023   2.350   0.170 -0.8814  0.7773 -0.0545
  211MOL   C11125731   6.039   2.354   0.330  0.2126  0.6303 -0.4252
  211MOL   H11225732   5.917   2.340   0.147 -0.4902 -1.5378 -0.9293
  211MOL   H11325733   6.091   2.271   0.137 -0.1429  1.3905 -0.0214
  211MOL   H11425734   6.141   2.370   0.364  0.0350 -2.9587  2.0958
  211MOL   H11525735   5.984   2.440   0.370 -1.2851 -0.3078 -0.4047
  211MOL   C11625736   5.966   2.228   0.383 -0.1033  0.5583  0.6890
  211MOL   C11725737   5.942   2.228   0.533  0.5679 -0.3117 -0.1790
  211MOL   H11825738   5.867   2.216   0.339  0.2223 -0.3561  0.1840
  211MOL   H11925739   6.030   2.143   0.362  0.5419  0.7149  2.0318
  211MOL   H12025740   5.878   2.306   0.574  0.3744 -0.7036  0.2637
  211MOL   H12125741   5.892   2.135   0.560 -1.9304  1.0790  0.1493
  211MOL   H12225742   6.031   2.229   0.596 -0.3185  0.3885  1.0934
  212MOL     C125743   1.320   4.009   4.266  0.0631  0.4306 -0.1037
  212MOL     C225744   1.413   4.124   4.324 -0.3569  0.5965 -0.7085
  212MOL     H325745   1.217   4.045   4.262 -0.6278 -1.3135  1.3736
  212MOL     H425746   1.313   3.921   4.331 -1.1852  2.0480  2.0333
  212MOL     H525747   1.515   4.089   4.343  0.3464  3.7889  1.7971
  212MOL     H625748   1.424   4.188   4.237 -1.3842  0.5908 -0.8457
  212MOL     H725749   1.340   3.984   4.162 -0.8629 -0.6790 -0.0341
  212MOL     C825750   1.368   4.207   4.442  0.0883 -0.2207 -1.0755
  212MOL     C925751   1.335   4.123   4.568 -0.2081 -0.1725  0.0042
  212MOL    H1025752   1.448   4.278   4.464 -0.7481  0.3530  0.2154
  212MOL    H1125753   1.287   4.274   4.412  1.4762  1.4253 -1.2645
  212MOL    H1225754   1.256   4.053   4.544 -0.3083 -0.5204  1.2818
  212MOL    H1325755   1.417   4.061   4.605  2.4921  1.7021 -2.5864
  212MOL    C1425756   1.303   4.223   4.682  0.9978 -0.5041  0.1137
  212MOL    C1525757   1.286   4.153   4.819 -0.8166 -0.4806  0.7092
  212MOL    H1625758   1.382   4.295   4.703  1.1478 -0.7446  0.3710
  212MOL    H1725759   1.214   4.277   4.650  1.6717  0.6427  0.1621
  212MOL    H1825760   1.201   4.087   4.810  0.0048 -1.3441 -0.9721
  212MOL    H1925761   1.374   4.090   4.835  0.9447  1.1841 -1.8135
  212MOL    C2025762   1.269   4.251   4.939 -0.4611  0.1276  0.6037
  212MOL    C2125763   1.182   4.192   5.051  0.2135  0.1854 -0.2103
  212MOL    H2225764   1.368   4.272   4.978 -0.6862 -1.8143  2.3472
  212MOL    H2325765   1.234   4.344   4.896  0.9551  0.7085  0.7057
  212MOL    H2425766   1.083   4.160   5.016 -0.0439  1.2120 -0.4367
  212MOL    H2525767   1.229   4.108   5.102  0.5953  1.9574  2.4330
  212MOL    C2625768   1.168   4.298   5.162 -0.0701  0.7171  0.2604
  212MOL    C2725769   1.071   4.250   5.272 -0.5347 -0.3610  0.2108
  212MOL    H2825770   1.265   4.320   5.208 -0.0782  0.4910  0.3900
  212MOL    H2925771   1.131   4.389   5.117  1.0253  1.3658  0.6499
  212MOL    H3025772   1.013   4.329   5.318  1.0379 -0.1849  1.9537
  212MOL    H3125773   0.988   4.194   5.230 -0.0334 -0.6253 -0.4459
  212MOL    C3225774   1.152   4.151   5.355 -0.0250 -0.0062 -0.1236
  212MOL    C3325775   1.074   4.089   5.477 -1.0836 -0.5633  0.4377
  212MOL    H3425776   1.186   4.063   5.300  2.2754  1.4914 -1.1680
  212MOL    H3525777   1.248   4.189   5.391 -0.2551  0.9012 -0.4703
  212MOL    H3625778   1.139   4.025   5.537  0.1070 -0.4112 -0.6752
  212MOL    H3725779   1.049   4.170   5.545 -1.8481  0.4026 -0.9765
  212MOL    C3825780   0.948   4.001   5.433 -0.0768 -0.2036 -0.2335
  212MOL    C3925781   0.882   3.916   5.540  0.7134  0.0701  0.1879
  212MOL    H4025782   0.869   4.066   5.398 -0.4576 -1.1561 -1.1524
  212MOL    H4125783   0.976   3.934   5.351 -0.7957 -0.0135 -0.6328
  212MOL    H4225784   0.954   3.857   5.595  0.0977 -1.2395 -0.3966
  212MOL    H4325785   0.839   3.985   5.613 -0.0139  0.8331 -0.9426
  212MOL    C4425786   0.776   3.821   5.490  0.6699  0.3197  0.6765
  212MOL    C4525787   0.659   3.879   5.403  0.5774 -0.6690 -0.3517
  212MOL    H4625788   0.827   3.746   5.428  0.1544 -0.5456  1.2932
  212MOL    H4725789   0.738   3.766   5.576  3.4301 -0.6953  1.2950
  212MOL    H4825790   0.613   3.965   5.452  2.2403  1.1298 -1.8927
  212MOL    H4925791   0.692   3.915   5.306 -2.6072  0.5209 -1.0580
  212MOL    C5025792   0.551   3.778   5.365 -0.6751  0.2794  0.1208
  212MOL    C5125793   0.440   3.851   5.288 -0.4097 -0.2998 -0.2814
  212MOL    H5225794   0.591   3.693   5.309  0.4784  2.2582 -2.1157
  212MOL    H5325795   0.509   3.722   5.449  0.4918  1.4423  1.5017
  212MOL    H5425796   0.406   3.915   5.369 -0.6633 -1.3137  0.4182
  212MOL    H5525797   0.471   3.918   5.208 -2.1629 -1.7405 -2.2311
  212MOL    C5625798   0.327   3.763   5.233  0.0124  0.6777 -0.4936
  212MOL    C5725799   0.374   3.680   5.112 -0.1662  0.2323 -0.1260
  212MOL    H5825800   0.303   3.698   5.317  3.5338  0.3230  0.2846
  212MOL    H5925801   0.235   3.814   5.202  0.8045  2.7135  0.4709
  212MOL    H6025802   0.406   3.746   5.031 -0.5911  2.2550  1.3229
  212MOL    H6125803   0.459   3.623   5.150 -0.7557 -0.1297  0.6746
  212MOL    C6225804   0.273   3.575   5.062 -0.0231 -0.0407 -0.0223
  212MOL    C6325805   0.294   3.544   4.912  0.2834  0.2198 -0.4846
  212MOL    H6425806   0.283   3.477   5.108  1.6632 -0.0320 -0.3480
  212MOL    H6525807   0.170   3.608   5.070 -0.3597 -0.9336 -0.5701
  212MOL    H6625808   0.261   3.623   4.845 -1.9740 -0.6878 -0.4960
  212MOL    H6725809   0.399   3.523   4.892  0.3561  0.3448 -0.2377
  212MOL    C6825810   0.209   3.422   4.878  0.8992 -0.2945  0.4196
  212MOL    C6925811   0.205   3.382   4.724  0.9778 -0.1763 -0.2805
  212MOL    H7025812   0.240   3.342   4.945 -1.7875 -1.4882  0.3431
  212MOL    H7125813   0.104   3.437   4.906  0.7828  1.5223 -0.8939
  212MOL    H7225814   0.170   3.464   4.661  0.5218 -0.3470 -0.2455
  212MOL    H7325815   0.309   3.381   4.690  0.9931 -0.8295 -0.2202
  212MOL    C7425816   0.114   3.255   4.693  0.2337  0.1005 -0.1049
  212MOL    C7525817   0.067   3.262   4.547 -0.1105  0.7207  0.1975
  212MOL    H7625818   0.164   3.162   4.719 -1.7408 -1.5183 -1.8567
  212MOL    H7725819   0.034   3.265   4.766 -0.4805  2.7628 -1.1719
  212MOL    H7825820   0.021   3.167   4.522 -1.1762  1.7186 -1.7526
  212MOL    H7925821   7.683   3.334   4.519  0.3360  1.0096 -0.2646
  212MOL    C8025822   0.190   3.267   4.450 -0.4875 -0.3837 -0.3024
  212MOL    C8125823   0.180   3.200   4.313 -0.3584  0.0742 -0.0382
  212MOL    H8225824   0.225   3.369   4.435 -1.1813 -0.1952 -0.6548
  212MOL    H8325825   0.273   3.222   4.504 -0.1906 -1.2818 -1.5136
  212MOL    H8425826   0.275   3.193   4.260 -0.4242 -1.0357 -0.0090
  212MOL    H8525827   0.160   3.094   4.324 -3.1685  0.5500 -0.3306
  212MOL    C8625828   0.063   3.240   4.222  0.3772  0.0459  0.4629
  212MOL    C8725829   0.087   3.362   4.142  0.0946 -0.0858  0.1747
  212MOL    H8825830   0.046   3.157   4.154  0.0933 -1.0850  1.8839
  212MOL    H8925831   7.660   3.242   4.275  0.1769  1.3387  0.0612
  212MOL    H9025832   0.119   3.451   4.196 -0.0869 -0.3677  0.7568
  212MOL    H9125833   0.162   3.332   4.069 -0.5180 -2.8732  0.6156
  212MOL    C9225834   7.653   3.397   4.068 -0.3564 -1.1413 -0.1032
  212MOL    C9325835   7.673   3.492   3.945 -0.5016  0.0580 -0.5074
  212MOL    H9425836   7.603   3.304   4.041  0.0773 -1.3980 -0.0263
  212MOL    H9525837   7.578   3.440   4.135 -2.5136 -1.5103 -2.1900
  212MOL    H9625838   0.039   3.571   3.992 -2.1567  1.2590 -0.4118
  212MOL    H9725839   0.042   3.448   3.866  1.4828  5.3331 -2.1679
  212MOL    C9825840   7.539   3.531   3.882  0.1433 -0.2178  0.4197
  212MOL    C9925841   7.558   3.634   3.769 -0.2754 -0.2193 -0.2537
  212MOL   H10025842   7.479   3.446   3.849 -1.4893  0.4418  1.6107
  212MOL   H10125843   7.479   3.580   3.959 -2.9224 -0.9934 -1.4105
  212MOL   H10225844   7.586   3.728   3.815 -0.8095 -1.1557  2.0295
  212MOL   H10325845   7.645   3.614   3.706  0.6477 -0.5359  1.1182
  212MOL   C10425846   7.440   3.673   3.685 -0.2123 -0.7139  0.1474
  212MOL   C10525847   7.494   3.761   3.574  0.3017  0.2508  0.7866
  212MOL   H10625848   7.402   3.579   3.644  0.3146 -1.2324  0.8410
  212MOL   H10725849   7.365   3.722   3.748 -0.3520  0.5376 -0.9653
  212MOL   H10825850   7.517   3.860   3.614 -1.3558  0.0527  2.3069
  212MOL   H10925851   7.586   3.730   3.525  0.0934 -0.1811  0.6631
  212MOL   C11025852   7.389   3.779   3.464  0.5616 -0.9259  0.7543
  212MOL   C11125853   7.416   3.882   3.349  0.1360  0.0807  0.5053
  212MOL   H11225854   7.359   3.688   3.412 -1.9296  0.1128  0.2914
  212MOL   H11325855   7.304   3.825   3.515  1.4000  0.7059  0.7099
  212MOL   H11425856   7.475   3.961   3.396 -0.8524 -0.6958  3.1160
  212MOL   H11525857   7.470   3.832   3.268 -2.1661 -0.8015 -0.5084
  212MOL   C11625858   7.287   3.940   3.281  0.4548  0.0728 -0.8339
  212MOL   C11725859   7.305   4.046   3.171 -0.2710  0.3875 -0.4526
  212MOL   H11825860   7.224   3.864   3.235  0.6653 -1.3656  1.1992
  212MOL   H11925861   7.216   3.988   3.350 -0.6940 -0.5193 -1.5820
  212MOL   H12025862   7.309   4.148   3.209  1.3639  0.8409 -1.7987
  212MOL   H12125863   7.383   4.033   3.096 -0.9448 -1.1059 -0.9207
  212MOL   H12225864   7.217   4.056   3.108  0.6418 -0.3997 -1.8872
  213MOL     C125865   4.158   5.535   2.227 -1.1500 -0.2238  0.2082
  213MOL     C225866   4.147   5.587   2.366 -0.4583  1.0030 -0.7184
  213MOL     H325867   4.188   5.615   2.159  0.0484 -2.3395 -1.8395
  213MOL     H425868   4.062   5.510   2.184 -0.8822 -0.6418 -0.1582
  213MOL     H525869   4.234   5.647   2.394 -1.5385  1.5091  1.6186
  213MOL     H625870   4.063   5.655   2.374 -0.7816  0.4890  0.3687
  213MOL     H725871   4.235   5.460   2.210 -0.3886  0.8663 -1.3267
  213MOL     C825872   4.147   5.473   2.465 -0.1470  1.2038 -0.3589
  213MOL     C925873   4.115   5.496   2.616  0.4368  0.0767 -0.4146
  213MOL    H1025874   4.067   5.410   2.426  1.1690 -1.1789  0.6818
  213MOL    H1125875   4.245   5.425   2.465 -2.0786 -3.0612 -2.7681
  213MOL    H1225876   4.190   5.551   2.673  0.5379 -0.2498 -0.2304
  213MOL    H1325877   4.027   5.560   2.624  1.4601  1.4478  0.0441
  213MOL    C1425878   4.105   5.361   2.697  0.2763  0.4585 -0.5721
  213MOL    C1525879   4.088   5.382   2.846  0.3219  0.3351 -0.4448
  213MOL    H1625880   4.007   5.323   2.668 -2.6489  4.1551  3.8075
  213MOL    H1725881   4.179   5.291   2.658  0.4324 -0.3352  1.0858
  213MOL    H1825882   4.165   5.451   2.878  1.0057 -0.9268  0.6877
  213MOL    H1925883   3.987   5.415   2.871 -0.0401 -2.0794  1.5333
  213MOL    C2025884   4.106   5.255   2.928 -0.1476 -0.0181  0.2526
  213MOL    C2125885   4.252   5.198   2.932  0.6134  0.1603  0.2513
  213MOL    H2225886   4.068   5.276   3.028  1.7219  1.8759  0.5928
  213MOL    H2325887   4.027   5.189   2.891 -1.8854  2.5768 -0.7877
  213MOL    H2425888   4.283   5.167   2.832 -0.5998  0.5148 -0.2404
  213MOL    H2525889   4.325   5.278   2.944 -2.2511  2.9819 -0.4825
  213MOL    C2625890   4.266   5.087   3.032  0.0736  0.6644 -0.1374
  213MOL    C2725891   4.413   5.031   3.035  0.9379 -0.1871  0.0229
  213MOL    H2825892   4.236   5.113   3.133  1.0504  3.5059 -0.5487
  213MOL    H2925893   4.189   5.013   3.009 -0.3107  1.1966 -0.5797
  213MOL    H3025894   4.450   5.006   2.936  0.4039  2.1563 -0.8131
  213MOL    H3125895   4.472   5.120   3.058  1.3811 -0.9196  1.7977
  213MOL    C3225896   4.437   4.912   3.129 -0.3204 -0.4508  0.4602
  213MOL    C3325897   4.588   4.889   3.130 -0.2766  0.0273 -0.3474
  213MOL    H3425898   4.400   4.943   3.227 -0.5627  0.1895  0.1697
  213MOL    H3525899   4.384   4.818   3.113  0.1146 -0.6735  0.3275
  213MOL    H3625900   4.621   4.899   3.027  0.2867  0.4507 -0.1314
  213MOL    H3725901   4.639   4.972   3.180 -1.1221 -0.3652  1.1920
  213MOL    C3825902   4.622   4.752   3.192 -0.8667 -0.3898 -0.3719
  213MOL    C3925903   4.774   4.731   3.192 -0.0578  0.5113  0.1845
  213MOL    H4025904   4.572   4.755   3.289  0.8098  2.3126  0.4821
  213MOL    H4125905   4.568   4.678   3.132  1.0655 -1.0728 -1.2806
  213MOL    H4225906   4.792   4.624   3.195 -2.0107  0.1735  0.2202
  213MOL    H4325907   4.808   4.748   3.089  0.4783  1.1408  0.4608
  213MOL    C4425908   4.858   4.800   3.302  0.3592  1.0847 -1.2282
  213MOL    C4525909   5.006   4.808   3.273 -0.9687  0.3709 -0.3785
  213MOL    H4625910   4.828   4.903   3.319 -0.5738  0.8371 -1.3665
  213MOL    H4725911   4.844   4.738   3.390  1.6666  1.4913 -0.7194
  213MOL    H4825912   5.070   4.818   3.360 -0.3128  0.1193 -0.8281
  213MOL    H4925913   5.030   4.709   3.235 -2.2352  0.4032 -1.3046
  213MOL    C5025914   5.053   4.902   3.165  0.0564  0.2734 -0.0538
  213MOL    C5125915   5.202   4.894   3.133 -1.0138  0.3501  0.5227
  213MOL    H5225916   4.997   4.905   3.072 -0.7189  1.7293  0.4360
  213MOL    H5325917   5.040   5.000   3.211  0.7019  0.8023 -0.9778
  213MOL    H5425918   5.271   4.899   3.217  0.1054 -1.4518 -0.2526
  213MOL    H5525919   5.236   4.803   3.083 -0.3875  0.0245  1.5348
  213MOL    C5625920   5.245   5.018   3.035  0.0607  0.0137  0.1619
  213MOL    C5725921   5.400   5.022   3.018  0.3582 -0.5205 -0.3981
  213MOL    H5825922   5.191   5.005   2.942 -2.0235 -1.3916  1.5166
  213MOL    H5925923   5.205   5.105   3.087  1.4541 -0.3725  1.9308
  213MOL    H6025924   5.452   5.006   3.112  1.0663 -0.6221 -0.7998
  213MOL    H6125925   5.431   4.936   2.958 -0.2185 -1.2522  0.3490
  213MOL    C6225926   5.437   5.149   2.942 -0.2552  0.0046 -0.2292
  213MOL    C6325927   5.461   5.262   3.046  0.2521 -0.4296 -0.0691
  213MOL    H6425928   5.528   5.134   2.885 -0.0657  0.3933 -0.0335
  213MOL    H6525929   5.368   5.189   2.867 -0.4997 -0.0211 -0.0194
  213MOL    H6625930   5.384   5.272   3.122  1.1016  2.7987  0.4251
  213MOL    H6725931   5.538   5.234   3.118  0.2273  1.5863  0.7627
  213MOL    C6825932   5.491   5.394   2.971 -0.3992  0.0542 -0.0478
  213MOL    C6925933   5.524   5.506   3.066 -0.3812 -0.7557  0.1423
  213MOL    H7025934   5.568   5.383   2.895 -1.1444 -0.2799 -0.7708
  213MOL    H7125935   5.405   5.440   2.921  1.8599  0.7282 -3.4715
  213MOL    H7225936   5.445   5.505   3.141 -1.0603  0.0775 -0.5390
  213MOL    H7325937   5.611   5.488   3.128 -0.2418  0.7019  0.3913
  213MOL    C7425938   5.545   5.629   2.980  0.3167 -0.9945  0.0926
  213MOL    C7525939   5.605   5.753   3.056 -0.1828 -0.6843  0.5879
  213MOL    H7625940   5.617   5.597   2.905  0.4652  0.5529 -0.4395
  213MOL    H7725941   5.460   5.647   2.914  0.0191 -0.0087  0.7343
  213MOL    H7825942   5.701   5.715   3.093  0.2619 -0.2776 -0.1387
  213MOL    H7925943   5.640   5.824   2.981  1.0711 -0.8252  1.0194
  213MOL    C8025944   5.508   5.809   3.163  0.1795 -0.2416  0.4282
  213MOL    C8125945   5.540   5.959   3.202  0.1071 -0.4963  0.0353
  213MOL    H8225946   5.413   5.815   3.110  2.4708 -0.7508 -3.9954
  213MOL    H8325947   5.493   5.745   3.250  0.2709  1.1534  1.4700
  213MOL    H8425948   5.636   5.966   3.254  0.4110  1.3123 -0.7315
  213MOL    H8525949   5.559   6.024   3.117 -0.5541  0.6455  0.7513
  213MOL    C8625950   5.431   6.022   3.286  0.5400  0.2581 -0.1642
  213MOL    C8725951   5.479   6.152   3.343 -0.1871 -1.0654  0.0399
  213MOL    H8825952   5.334   6.029   3.237  0.0732 -2.2966  0.2917
  213MOL    H8925953   5.413   5.952   3.368 -0.6983  1.8737  0.9722
  213MOL    H9025954   5.576   6.148   3.391 -0.5222 -0.3227  0.7932
  213MOL    H9125955   5.497   6.217   3.257 -2.0481  0.5577  0.8234
  213MOL    C9225956   5.383   6.213   3.444  0.1210  0.5554  0.0088
  213MOL    C9325957   5.427   6.347   3.504 -0.6053  0.2941 -0.6913
  213MOL    H9425958   5.280   6.226   3.411 -0.1107 -0.2176  0.4192
  213MOL    H9525959   5.379   6.148   3.531 -0.2476  2.2316  1.2845
  213MOL    H9625960   5.496   6.331   3.587 -1.9617 -0.9286  0.2196
  213MOL    H9725961   5.470   6.411   3.427  0.6674 -1.3435 -1.4003
  213MOL    C9825962   5.319   6.433   3.554  0.5755 -0.0536  0.8446
  213MOL    C9925963   5.374   6.570   3.581  0.0710  0.4302  0.5486
  213MOL   H10025964   5.232   6.442   3.489 -0.0929  2.0553  1.9812
  213MOL   H10125965   5.273   6.403   3.648  0.6191  3.6920  2.1370
  213MOL   H10225966   5.433   6.577   3.672 -0.1214 -1.4728  0.8382
  213MOL   H10325967   5.437   6.609   3.501  1.1578  0.9662  1.6577
  213MOL   C10425968   5.266   6.682   3.603  0.1580 -0.4703 -0.3157
  213MOL   C10525969   5.318   6.823   3.624  0.4596 -0.2698  0.0718
  213MOL   H10625970   5.213   6.676   3.508 -1.3973 -0.1443  0.5099
  213MOL   H10725971   5.191   6.664   3.680 -0.6064 -0.9876 -1.1793
  213MOL   H10825972   5.380   6.827   3.713 -0.9053 -1.6404  1.1320
  213MOL   H10925973   5.368   6.843   3.530 -0.1523 -1.1848 -0.4525
  213MOL   C11025974   5.206   6.920   3.651 -0.1884 -0.5720 -1.1064
  213MOL   C11125975   5.264   7.050   3.709 -0.0481  0.6222 -0.7430
  213MOL   H11225976   5.132   6.919   3.571 -2.7300 -1.7364  1.1347
  213MOL   H11325977   5.143   6.884   3.733 -2.2723  1.1020 -1.9001
  213MOL   H11425978   5.331   7.022   3.790 -0.9697  0.8905  0.1305
  213MOL   H11525979   5.328   7.101   3.637 -0.7819  2.5268 -0.0736
  213MOL   C11625980   5.146   7.146   3.748 -0.0130  0.3077 -0.3194
  213MOL   C11725981   5.190   7.265   3.825 -0.3343 -0.0740  0.0284
  213MOL   H11825982   5.076   7.178   3.671 -0.7096 -1.5975 -0.5184
  213MOL   H11925983   5.071   7.093   3.808  0.3889  2.2905  1.9906
  213MOL   H12025984   5.278   7.230   3.879  0.6922  2.1664 -0.1341
  213MOL   H12125985   5.215   7.351   3.762 -3.4664  0.7290 -0.1668
  213MOL   H12225986   5.116   7.312   3.891  0.6058  0.4845  0.7118
  214MOL     C125987   6.046   5.043   3.697  0.6548 -0.6238  0.4169
  214MOL     C225988   6.000   5.158   3.603 -0.1973  0.1539  0.2303
  214MOL     H325989   6.138   5.078   3.745  1.3390  0.2147 -1.4534
  214MOL     H425990   6.086   4.960   3.638 -0.2527  0.0754 -1.2147
  214MOL     H525991   5.967   5.235   3.673 -0.2846  0.1071  0.2397
  214MOL     H625992   6.087   5.190   3.545  1.8871 -2.1548  2.0078
  214MOL     H725993   5.981   5.008   3.777 -0.4511 -0.5828 -0.4652
  214MOL     C825994   5.887   5.102   3.506 -0.4726 -0.5898  0.2462
  214MOL     C925995   5.760   5.042   3.581  0.1625 -0.2947 -0.4510
  214MOL    H1025996   5.838   5.182   3.450  1.1099 -0.4994 -1.0607
  214MOL    H1125997   5.920   5.030   3.430 -1.6093 -1.5521  0.6388
  214MOL    H1225998   5.802   4.961   3.641  2.4368 -1.6709 -3.7152
  214MOL    H1325999   5.722   5.122   3.645 -2.4004 -0.9877 -1.0500
  214MOL    C1426000   5.641   5.003   3.500  0.7838  0.1433 -0.4292
  214MOL    C1526001   5.526   4.935   3.586 -0.4383 -0.1726  0.5484
  214MOL    H1626002   5.585   5.084   3.454 -0.4135  1.1250  2.6514
  214MOL    H1726003   5.658   4.941   3.412  0.2557 -0.1730 -0.3125
  214MOL    H1826004   5.558   4.854   3.653 -2.6393 -0.4851  1.2441
  214MOL    H1926005   5.488   5.003   3.663  0.8010  1.3918 -0.2058
  214MOL    C2026006   5.418   4.862   3.499 -0.7304 -0.2321 -1.2601
  214MOL    C2126007   5.476   4.743   3.429  0.4882  0.1907  0.2169
  214MOL    H2226008   5.342   4.827   3.569 -1.4746  1.2464 -1.3143
  214MOL    H2326009   5.375   4.928   3.425 -2.3878 -1.5828 -1.5211
  214MOL    H2426010   5.538   4.773   3.344  1.4790 -3.9141 -0.6452
  214MOL    H2526011   5.558   4.693   3.482  0.0257 -1.8196 -0.8949
  214MOL    C2626012   5.367   4.646   3.390  0.3257 -0.0140 -0.0421
  214MOL    C2726013   5.419   4.528   3.308 -0.0740 -0.1744  0.0266
  214MOL    H2826014   5.323   4.602   3.479 -2.0505  0.0897 -1.1296
  214MOL    H2926015   5.284   4.703   3.349  1.0554  0.7977 -0.4196
  214MOL    H3026016   5.457   4.566   3.213  0.3589 -0.9265 -0.1015
  214MOL    H3126017   5.500   4.491   3.371  0.7158 -0.6867 -1.2686
  214MOL    C3226018   5.302   4.424   3.285  0.3006 -0.2510  0.5235
  214MOL    C3326019   5.349   4.306   3.197 -0.2031  0.5974  0.3778
  214MOL    H3426020   5.272   4.384   3.382  0.1156  0.6215  0.8321
  214MOL    H3526021   5.213   4.467   3.240  0.9346 -0.1935 -0.6963
  214MOL    H3626022   5.379   4.354   3.103 -0.9554 -0.9672 -0.6894
  214MOL    H3726023   5.439   4.258   3.236  0.5487 -0.4192 -2.4503
  214MOL    C3826024   5.244   4.195   3.182  0.5270  0.1127  0.1361
  214MOL    C3926025   5.257   4.119   3.052 -0.6351  0.4762 -0.0297
  214MOL    H4026026   5.238   4.131   3.270  1.2036  2.1454  1.7009
  214MOL    H4126027   5.151   4.249   3.165  1.1256  1.1223  0.0513
  214MOL    H4226028   5.241   4.185   2.966  1.1855  1.8823  0.6620
  214MOL    H4326029   5.360   4.088   3.037 -0.9394 -0.4081 -0.2817
  214MOL    C4426030   5.140   4.014   3.042 -0.8090  0.1893 -0.0579
  214MOL    C4526031   5.131   3.964   2.899 -0.7044 -0.2770 -0.9183
  214MOL    H4626032   5.143   3.934   3.117 -0.4539  0.0197 -0.2507
  214MOL    H4726033   5.051   4.071   3.068  0.1697  3.5184 -3.6335
  214MOL    H4826034   5.118   4.045   2.826  1.1966 -0.3603 -1.3930
  214MOL    H4926035   5.225   3.914   2.873  0.3439  1.9219 -1.5778
  214MOL    C5026036   5.016   3.858   2.883 -0.3870 -0.1716 -0.4116
  214MOL    C5126037   4.878   3.922   2.905  0.2781  0.4193  0.1610
  214MOL    H5226038   5.036   3.830   2.780 -1.3704 -0.7937 -0.4342
  214MOL    H5326039   5.036   3.779   2.956 -3.6026  1.3558  2.3033
  214MOL    H5426040   4.873   3.971   3.002 -3.3843 -0.4980  0.5199
  214MOL    H5526041   4.881   3.999   2.828 -1.7466 -1.0434 -1.4472
  214MOL    C5626042   4.762   3.820   2.896  0.1220 -0.1975  0.1198
  214MOL    C5726043   4.627   3.892   2.899 -0.3007 -0.0061 -0.0310
  214MOL    H5826044   4.768   3.752   2.811  1.0105 -0.6238  0.5095
  214MOL    H5926045   4.768   3.760   2.987 -1.4876  2.5993  2.1353
  214MOL    H6026046   4.627   3.969   2.976  3.1925 -1.8191  1.8881
  214MOL    H6126047   4.614   3.942   2.803 -0.4275 -0.3696 -0.2068
  214MOL    C6226048   4.516   3.787   2.914  0.1883 -0.7769  0.4113
  214MOL    C6326049   4.374   3.834   2.875  0.1457  0.1075 -0.0949
  214MOL    H6426050   4.549   3.694   2.868  4.9641  1.4716 -1.0776
  214MOL    H6526051   4.519   3.765   3.021 -0.8313 -1.3479  0.3310
  214MOL    H6626052   4.342   3.889   2.964 -1.0218 -0.0084 -0.4322
  214MOL    H6726053   4.371   3.911   2.798  1.2241  1.0503  0.7907
  214MOL    C6826054   4.274   3.714   2.847  0.0898  0.7027  0.2066
  214MOL    C6926055   4.123   3.767   2.810  0.0016  0.1184  0.3662
  214MOL    H7026056   4.310   3.656   2.763 -1.3376 -2.2746  1.5713
  214MOL    H7126057   4.276   3.654   2.938 -0.5551  0.8170  0.2991
  214MOL    H7226058   4.086   3.833   2.889 -0.6128  0.4622 -0.2080
  214MOL    H7326059   4.121   3.832   2.723 -0.9528  0.8825  0.9574
  214MOL    C7426060   4.017   3.659   2.791 -0.2053  0.0317  0.4172
  214MOL    C7526061   3.877   3.714   2.758  0.1130 -0.1064 -0.4865
  214MOL    H7626062   4.045   3.584   2.718  1.0560  0.3430  0.5771
  214MOL    H7726063   4.016   3.616   2.892  1.4558  0.2060  0.5203
  214MOL    H7826064   3.853   3.795   2.827  0.2242 -1.5613  1.2826
  214MOL    H7926065   3.876   3.752   2.656  3.9319  1.7211  0.0912
  214MOL    C8026066   3.769   3.608   2.779  0.2289  0.3549  0.4522
  214MOL    C8126067   3.624   3.662   2.767  0.0758 -0.3018  1.0319
  214MOL    H8226068   3.791   3.535   2.701  1.0293  1.9747 -0.8754
  214MOL    H8326069   3.779   3.548   2.870 -2.8853 -0.7592  0.1468
  214MOL    H8426070   3.596   3.712   2.859 -1.0763 -0.4039  0.7450
  214MOL    H8526071   3.618   3.725   2.678 -1.0210 -1.7427  0.0585
  214MOL    C8626072   3.531   3.538   2.763  0.2915  0.1702  0.6870
  214MOL    C8726073   3.384   3.587   2.746  0.2667 -0.1041 -0.1019
  214MOL    H8826074   3.557   3.467   2.685  0.1444 -0.9718  1.6563
  214MOL    H8926075   3.538   3.487   2.859 -2.0318 -0.2185  0.6956
  214MOL    H9026076   3.359   3.653   2.830  1.3583 -1.0589  0.9918
  214MOL    H9126077   3.370   3.653   2.661 -0.1518  0.9896  0.7909
  214MOL    C9226078   3.280   3.480   2.752 -0.5620  0.2144 -0.0634
  214MOL    C9326079   3.132   3.528   2.760  0.3147 -0.5574 -0.7244
  214MOL    H9426080   3.297   3.431   2.656  0.1022 -0.0370  0.1803
  214MOL    H9526081   3.301   3.409   2.832  0.0790 -0.2291 -0.6169
  214MOL    H9626082   3.115   3.613   2.826 -0.2931  1.0342 -2.8607
  214MOL    H9726083   3.106   3.560   2.659 -0.9716 -1.6272 -0.7390
  214MOL    C9826084   3.021   3.429   2.801  0.4919  0.0447 -0.1088
  214MOL    C9926085   3.047   3.375   2.939  0.3037 -0.2516  0.4349
  214MOL   H10026086   2.937   3.498   2.806 -0.5356 -1.2184  0.4065
  214MOL   H10126087   2.998   3.361   2.719  0.1273 -1.0047  0.8452
  214MOL   H10226088   3.126   3.300   2.935 -0.5305 -1.0950 -0.7376
  214MOL   H10326089   3.076   3.457   3.004 -0.9600  0.2897  0.3404
  214MOL   C10426090   2.917   3.304   2.992 -0.5280 -0.7493 -1.5151
  214MOL   C10526091   2.818   3.398   3.059  0.4337 -0.0980  0.2303
  214MOL   H10626092   2.865   3.247   2.915 -1.2163 -1.7635 -0.3150
  214MOL   H10726093   2.953   3.229   3.062 -2.5005 -1.8896 -1.6757
  214MOL   H10826094   2.878   3.459   3.126  2.3226 -1.7435  0.0952
  214MOL   H10926095   2.765   3.459   2.986 -1.1804  0.2652  1.6601
  214MOL   C11026096   2.709   3.317   3.135 -0.4894  0.2241  0.3566
  214MOL   C11126097   2.580   3.403   3.160 -0.1621 -0.0552  0.1809
  214MOL   H11226098   2.693   3.229   3.073 -1.5895  0.7824 -0.1736
  214MOL   H11326099   2.737   3.286   3.236  0.7265 -0.6548 -0.2423
  214MOL   H11426100   2.625   3.489   3.209 -0.9810 -0.6355  2.0075
  214MOL   H11526101   2.532   3.435   3.068 -2.3109 -2.6674  0.3229
  214MOL   C11626102   2.467   3.327   3.244 -0.3859 -0.6414 -0.5559
  214MOL   C11726103   2.376   3.238   3.171  1.1845  0.4469  0.0064
  214MOL   H11826104   2.519   3.278   3.326  0.4110  0.2947 -0.4847
  214MOL   H11926105   2.401   3.401   3.289  0.6847  0.8802 -1.4386
  214MOL   H12026106   2.424   3.153   3.122  0.9328 -1.3299  2.7574
  214MOL   H12126107   2.283   3.216   3.224  0.6389 -3.0543 -2.1630
  214MOL   H12226108   2.335   3.299   3.090 -0.4857 -0.0552  0.4446
  215MOL     C126109   2.278   4.502   5.934  0.2945  0.5828  0.4458
  215MOL     C226110   2.188   4.379   5.907 -0.1672  0.1571 -0.2500
  215MOL     H326111   2.275   4.566   5.846 -0.1261 -0.1365 -0.0688
  215MOL     H426112   2.387   4.499   5.931  0.2544 -1.1755 -0.4660
  215MOL     H526113   2.206   4.313   5.991  0.8344  1.4195  0.5499
  215MOL     H626114   2.082   4.404   5.907 -0.4836 -1.1327 -0.8626
  215MOL     H726115   2.243   4.554   6.023  0.6791  1.1740  0.2553
  215MOL     C826116   2.233   4.319   5.777 -0.0225 -0.3516  0.4545
  215MOL     C926117   2.141   4.205   5.739 -0.5861 -0.5593 -0.3291
  215MOL    H1026118   2.233   4.396   5.700  0.4721 -1.2391 -0.4456
  215MOL    H1126119   2.337   4.291   5.795  0.9143  2.2497 -0.7039
  215MOL    H1226120   2.098   4.141   5.816 -2.0924  0.9228  0.1026
  215MOL    H1326121   2.057   4.258   5.695 -0.2874 -0.6863 -1.0753
  215MOL    C1426122   2.212   4.118   5.629  0.5603  0.6578 -0.5476
  215MOL    C1526123   2.100   4.016   5.585  0.5853  0.6949 -0.5220
  215MOL    H1626124   2.249   4.180   5.547 -1.2582  2.1676 -0.2605
  215MOL    H1726125   2.293   4.061   5.674 -0.0010  0.1398 -0.1929
  215MOL    H1826126   2.077   3.955   5.672  1.6726 -0.6506 -1.1541
  215MOL    H1926127   2.007   4.064   5.555  0.3139 -1.4501 -3.3063
  215MOL    C2026128   2.154   3.924   5.475 -0.6142  0.1448  0.1693
  215MOL    C2126129   2.047   3.842   5.405  0.2805 -0.4677 -0.2172
  215MOL    H2226130   2.208   3.983   5.401 -1.9442  1.0070 -0.1102
  215MOL    H2326131   2.238   3.862   5.506  0.1665  0.8155 -0.5654
  215MOL    H2426132   1.972   3.906   5.359  0.5641 -0.0878 -0.1428
  215MOL    H2526133   2.090   3.785   5.323 -0.9491  1.2714 -2.1270
  215MOL    C2626134   1.964   3.748   5.493  0.1599  0.1536  0.2286
  215MOL    C2726135   1.851   3.671   5.416 -0.8795 -0.7126 -0.0787
  215MOL    H2826136   2.030   3.668   5.528  1.4860  1.3871  0.5829
  215MOL    H2926137   1.923   3.803   5.577 -3.1066  1.2591 -1.9875
  215MOL    H3026138   1.800   3.749   5.359 -1.0132 -0.6106  0.1831
  215MOL    H3126139   1.891   3.604   5.340  0.8186  1.3075 -1.0062
  215MOL    C3226140   1.757   3.601   5.514  0.6687 -0.9904 -0.1545
  215MOL    C3326141   1.654   3.505   5.449 -0.1868  0.4819 -0.3285
  215MOL    H3426142   1.819   3.544   5.582  0.1165  0.5056  1.6468
  215MOL    H3526143   1.698   3.670   5.574  0.4178  0.3984 -1.9509
  215MOL    H3626144   1.598   3.545   5.364  0.1671  0.7524 -0.4364
  215MOL    H3726145   1.707   3.424   5.399 -1.0706 -0.5702  0.4136
  215MOL    C3826146   1.554   3.458   5.554  0.5156  0.2818  0.7639
  215MOL    C3926147   1.456   3.347   5.502  0.7792  0.1019 -0.1383
  215MOL    H4026148   1.610   3.423   5.641  0.0246 -0.7846  0.6647
  215MOL    H4126149   1.495   3.536   5.601  2.0430  2.1871 -0.3951
  215MOL    H4226150   1.402   3.379   5.413  0.6566 -1.0144 -0.4750
  215MOL    H4326151   1.519   3.268   5.460  1.6194  0.7673 -0.1504
  215MOL    C4426152   1.359   3.293   5.611  0.4510  0.5460  0.5894
  215MOL    C4526153   1.275   3.168   5.568 -0.4588  0.4536 -0.1220
  215MOL    H4626154   1.424   3.262   5.693 -0.7547 -2.2042  0.5640
  215MOL    H4726155   1.286   3.364   5.650  0.8566  1.0190  0.4898
  215MOL    H4826156   1.219   3.207   5.483  2.9850  0.6922 -2.3691
  215MOL    H4926157   1.333   3.085   5.529  0.7031 -0.1507  2.7285
  215MOL    C5026158   1.177   3.113   5.671 -0.0789 -0.6691  0.1936
  215MOL    C5126159   1.061   3.027   5.608 -0.4060 -0.1154 -0.0121
  215MOL    H5226160   1.241   3.053   5.736  0.2613  2.2997  2.6669
  215MOL    H5326161   1.135   3.202   5.718  1.6616  0.0407  0.4435
  215MOL    H5426162   0.998   3.076   5.535  0.9296  2.9605  0.8171
  215MOL    H5526163   1.101   2.952   5.540  0.0969  2.3744 -2.5567
  215MOL    C5626164   0.981   2.947   5.713 -0.2153 -0.1321  0.3208
  215MOL    C5726165   0.901   3.024   5.820  0.1275 -0.4551 -0.2942
  215MOL    H5826166   0.910   2.890   5.653  0.1525  2.1397 -2.3968
  215MOL    H5926167   1.048   2.871   5.754  0.6493  0.2334 -0.3813
  215MOL    H6026168   0.972   3.067   5.890 -0.3998 -0.7823  0.4629
  215MOL    H6126169   0.842   3.104   5.776  0.7680 -0.6126 -1.4399
  215MOL    C6226170   0.801   2.947   5.910 -0.4218 -0.5783  0.9229
  215MOL    C6326171   0.702   2.858   5.836 -0.3385  0.2359 -0.5935
  215MOL    H6426172   0.854   2.881   5.979 -0.5007 -0.3910  1.1656
  215MOL    H6526173   0.740   3.019   5.965  0.7373  0.3389  1.0278
  215MOL    H6626174   0.661   2.934   5.769 -0.4303  1.2544  0.5998
  215MOL    H6726175   0.761   2.789   5.777  1.2824 -0.6267  1.9970
  215MOL    C6826176   0.594   2.791   5.924  0.0505  0.0763  0.4827
  215MOL    C6926177   0.494   2.698   5.853  0.1469  0.0569 -0.0241
  215MOL    H7026178   0.650   2.733   5.997  1.3789  0.0739 -0.5127
  215MOL    H7126179   0.537   2.875   5.962  0.6366  1.8424 -2.3421
  215MOL    H7226180   0.550   2.638   5.782 -1.2187 -0.1275 -0.9599
  215MOL    H7326181   0.454   2.635   5.933 -0.1809 -0.3163 -0.4769
  215MOL    C7426182   0.364   2.769   5.789  0.3352 -0.1388  0.6393
  215MOL    C7526183   0.384   2.871   5.682  0.0367  0.6469 -0.1322
  215MOL    H7626184   0.302   2.686   5.755  0.5780 -0.3660  0.7468
  215MOL    H7726185   0.303   2.817   5.866  1.2095  0.5962  0.8757
  215MOL    H7826186   0.284   2.906   5.655  0.1109  0.5587 -0.5283
  215MOL    H7926187   0.428   2.964   5.718 -1.7217  1.2205  0.5567
  215MOL    C8026188   0.470   2.824   5.560 -0.0249 -0.0646 -0.3967
  215MOL    C8126189   0.484   2.941   5.463 -0.6097 -0.6343  0.2904
  215MOL    H8226190   0.569   2.802   5.599 -1.2165  0.3266  2.9772
  215MOL    H8326191   0.427   2.735   5.513  0.4208  1.1600 -3.1987
  215MOL    H8426192   0.387   2.945   5.412  0.3470  1.9032 -1.4601
  215MOL    H8526193   0.516   3.032   5.513  2.2728 -2.1994  1.4120
  215MOL    C8626194   0.580   2.921   5.342 -0.1551  0.1391  0.0547
  215MOL    C8726195   0.604   3.054   5.265 -0.2026  0.2191  0.3590
  215MOL    H8826196   0.670   2.868   5.375 -0.1859  0.2580  0.3293
  215MOL    H8926197   0.534   2.848   5.275  3.6075 -0.3130 -2.1947
  215MOL    H9026198   0.509   3.105   5.246 -1.8361 -1.5235  3.4276
  215MOL    H9126199   0.678   3.109   5.324  1.7878 -1.7980 -0.1982
  215MOL    C9226200   0.677   3.028   5.123 -0.3771  0.5014 -0.0945
  215MOL    C9326201   0.677   3.152   5.030 -0.4673  0.1232  0.1429
  215MOL    H9426202   0.781   3.011   5.151 -0.0934  2.4775  0.1498
  215MOL    H9526203   0.635   2.937   5.079  0.9126  0.4161 -1.1583
  215MOL    H9626204   0.595   3.126   4.963 -1.3532  1.1453  0.8094
  215MOL    H9726205   0.652   3.250   5.070  1.4015  0.6778  0.0254
  215MOL    C9826206   0.790   3.145   4.930  0.1780 -0.0959  0.8942
  215MOL    C9926207   0.756   3.211   4.796  0.4157  0.0563 -0.4186
  215MOL   H10026208   0.874   3.186   4.986 -0.2373 -0.8351  2.0952
  215MOL   H10126209   0.803   3.037   4.918 -0.6190  0.0379 -1.3065
  215MOL   H10226210   0.842   3.179   4.737 -0.3394 -1.4587 -0.7144
  215MOL   H10326211   0.659   3.180   4.756  0.6605 -0.6174 -0.4838
  215MOL   C10426212   0.744   3.369   4.792  0.1250 -0.2488  0.4447
  215MOL   C10526213   0.696   3.413   4.655 -0.2059  0.1381 -0.0927
  215MOL   H10626214   0.667   3.391   4.866  0.5880  0.1275  0.8236
  215MOL   H10726215   0.842   3.409   4.822 -0.1207  1.7289 -1.2801
  215MOL   H10826216   0.772   3.389   4.582 -1.0986 -2.3219 -0.2715
  215MOL   H10926217   0.615   3.345   4.629 -0.2689  0.0825  0.2444
  215MOL   C11026218   0.640   3.549   4.646  0.5254 -0.1558 -0.1891
  215MOL   C11126219   0.605   3.582   4.503 -0.8574 -0.2748  0.0819
  215MOL   H11226220   0.556   3.573   4.712  1.2712 -0.5538  0.9235
  215MOL   H11326221   0.716   3.621   4.677  0.9957 -0.2805 -1.0491
  215MOL   H11426222   0.690   3.554   4.441 -0.3750  0.5606  0.3506
  215MOL   H11526223   0.524   3.524   4.460 -1.8898  1.4118 -0.3079
  215MOL   C11626224   0.579   3.734   4.483  0.2522 -0.7905  0.2291
  215MOL   C11726225   0.544   3.768   4.343 -0.6032  0.2597 -0.5601
  215MOL   H11826226   0.489   3.759   4.541 -0.8866  1.6089 -2.4450
  215MOL   H11926227   0.650   3.800   4.532 -1.7247  1.5209  0.1050
  215MOL   H12026228   0.513   3.872   4.336  0.3275  0.7793  2.1429
  215MOL   H12126229   0.625   3.758   4.271 -0.3469 -0.5324 -0.1683
  215MOL   H12226230   0.457   3.712   4.310 -0.6200  0.0191 -0.1120
  216MOL     C126231   6.310   1.782   7.082  0.2069 -0.3380 -0.2872
  216MOL     C226232   6.260   1.877   6.966  0.4057  0.2522 -0.1208
  216MOL     H326233   6.311   1.830   7.179  0.4066  1.0678 -0.9751
  216MOL     H426234   6.413   1.750   7.066 -0.1638 -1.0601 -1.2482
  216MOL     H526235   6.319   1.967   6.947  0.1492  0.0425 -1.9178
  216MOL     H626236   6.271   1.816   6.877 -0.5296  0.0990 -0.1361
  216MOL     H726237   6.246   1.694   7.083  0.7417 -0.7545 -1.5363
  216MOL     C826238   6.113   1.914   6.961  0.0353 -0.5622 -0.2492
  216MOL     C926239   6.019   1.793   6.952 -0.6550 -0.1421 -0.4715
  216MOL    H1026240   6.088   1.981   7.043  0.3578  0.8626 -1.2905
  216MOL    H1126241   6.097   1.979   6.875 -1.4610  0.0572  0.4866
  216MOL    H1226242   6.052   1.723   6.876  1.0221 -1.3486  1.3252
  216MOL    H1326243   6.011   1.741   7.048 -0.5280  0.5068 -0.1057
  216MOL    C1426244   5.875   1.831   6.907  0.2949 -0.2082 -0.4820
  216MOL    C1526245   5.795   1.706   6.879  0.6297  0.5779 -0.0166
  216MOL    H1626246   5.835   1.906   6.975 -0.9163  0.0212 -1.4217
  216MOL    H1726247   5.889   1.884   6.813  3.7082 -0.0601  0.0282
  216MOL    H1826248   5.835   1.669   6.785  2.3170 -0.5076  1.1030
  216MOL    H1926249   5.809   1.626   6.951  0.0603  1.8420  1.5181
  216MOL    C2026250   5.643   1.738   6.866 -0.1410 -0.1528 -0.3475
  216MOL    C2126251   5.565   1.619   6.801 -0.7010 -0.7014 -0.3948
  216MOL    H2226252   5.605   1.769   6.963  1.3468  1.1579 -0.1563
  216MOL    H2326253   5.627   1.818   6.794 -1.3285  2.0303  2.2676
  216MOL    H2426254   5.604   1.585   6.705 -1.5327  0.9935 -1.3517
  216MOL    H2526255   5.569   1.534   6.869 -0.2561 -0.9142 -0.6863
  216MOL    C2626256   5.419   1.650   6.776 -0.3278  0.2437 -0.6426
  216MOL    C2726257   5.333   1.529   6.737 -0.5199  0.8205  0.1129
  216MOL    H2826258   5.375   1.700   6.862  3.3930  0.7690  1.0333
  216MOL    H2926259   5.403   1.727   6.701  2.7715  2.3283  0.7289
  216MOL    H3026260   5.367   1.502   6.637 -2.3564 -1.2664  0.0014
  216MOL    H3126261   5.348   1.446   6.806 -1.3942  0.8904  0.3949
  216MOL    C3226262   5.182   1.551   6.719 -0.0410 -0.2361 -0.7546
  216MOL    C3326263   5.111   1.413   6.680 -0.6353  0.7908 -0.4984
  216MOL    H3426264   5.149   1.588   6.816 -0.3982  1.6250 -1.5678
  216MOL    H3526265   5.173   1.631   6.645 -0.8909  0.1040 -0.2853
  216MOL    H3626266   5.158   1.369   6.592  1.3684  1.3723  0.2503
  216MOL    H3726267   5.144   1.338   6.752 -2.5650  0.8746  0.5040
  216MOL    C3826268   4.959   1.431   6.670  0.2666  0.5456  0.0346
  216MOL    C3926269   4.881   1.296   6.662 -0.2886  0.3970  0.6748
  216MOL    H4026270   4.929   1.496   6.753  1.8281 -0.4919  1.4550
  216MOL    H4126271   4.949   1.484   6.576  0.1878  2.4478  1.0757
  216MOL    H4226272   4.795   1.321   6.601  0.0336  0.9103  0.4283
  216MOL    H4326273   4.929   1.216   6.605 -0.4722  1.2253 -0.6744
  216MOL    C4426274   4.837   1.240   6.792 -0.1323 -0.2696 -0.5046
  216MOL    C4526275   4.752   1.111   6.790 -0.0696  0.7216 -1.2434
  216MOL    H4626276   4.910   1.224   6.871 -2.4061  0.5867  1.8480
  216MOL    H4726277   4.778   1.321   6.835 -1.4348 -0.5780 -1.6686
  216MOL    H4826278   4.719   1.091   6.892  0.5927  3.3722 -0.4701
  216MOL    H4926279   4.662   1.138   6.736 -1.4107 -1.4191 -0.1296
  216MOL    C5026280   4.838   0.986   6.757 -0.3208 -0.3024 -0.2998
  216MOL    C5126281   4.761   0.855   6.792 -0.6012 -0.1690  0.2857
  216MOL    H5226282   4.874   0.986   6.654 -0.8528  0.4054 -0.4895
  216MOL    H5326283   4.924   0.985   6.823 -0.4828  0.1064 -0.0841
  216MOL    H5426284   4.759   0.841   6.900 -0.0717 -0.3881  0.2672
  216MOL    H5526285   4.655   0.864   6.771 -0.6635  1.2139  1.1771
  216MOL    C5626286   4.832   0.725   6.732  1.0827 -0.5237 -0.5208
  216MOL    C5726287   4.757   0.588   6.760  0.0352 -0.2774  0.6937
  216MOL    H5826288   4.841   0.726   6.623 -0.0248  0.1262 -0.6148
  216MOL    H5926289   4.938   0.711   6.752  1.0877 -0.0244 -0.1863
  216MOL    H6026290   4.761   0.572   6.867  1.6126 -1.9654  0.3992
  216MOL    H6126291   4.650   0.581   6.737 -0.3060 -1.7277  2.6414
  216MOL    C6226292   4.827   0.463   6.697 -0.4173 -0.2995  0.7818
  216MOL    C6326293   4.750   0.336   6.720  0.1379 -0.6881 -0.3314
  216MOL    H6426294   4.831   0.482   6.589  0.4600  2.1736  1.2160
  216MOL    H6526295   4.928   0.434   6.726  0.7079 -1.2403 -3.7065
  216MOL    H6626296   4.771   0.297   6.820 -0.3013 -0.0061  0.0299
  216MOL    H6726297   4.646   0.366   6.717  0.8426  1.9816  0.2381
  216MOL    C6826298   4.768   0.241   6.611 -0.2527 -0.1383 -0.2250
  216MOL    C6926299   4.675   0.120   6.621  0.9308 -0.5052  0.6262
  216MOL    H7026300   4.750   0.304   6.524  0.1784  2.1691  1.3019
  216MOL    H7126301   4.871   0.206   6.606  0.4871  2.0861 -0.8468
  216MOL    H7226302   4.692   0.082   6.722 -0.8982 -2.7137  0.1272
  216MOL    H7326303   4.570   0.148   6.617  0.3478 -1.9848  3.9210
  216MOL    C7426304   4.704   0.023   6.506 -0.2455 -0.0595 -0.4955
  216MOL    C7526305   4.605   7.596   6.478  0.0088  0.4857 -0.0793
  216MOL    H7626306   4.698   0.089   6.420 -1.5256 -0.7129 -0.9298
  216MOL    H7726307   4.809   7.686   6.504  0.0548  0.9504  0.5394
  216MOL    H7826308   4.640   7.508   6.533  0.9783 -0.6925 -2.5083
  216MOL    H7926309   4.505   7.629   6.506  0.0373  1.0191 -0.5969
  216MOL    C8026310   4.609   7.552   6.335 -0.9837 -1.0762  0.3184
  216MOL    C8126311   4.506   7.434   6.317 -1.1510 -0.0794  1.1335
  216MOL    H8226312   4.577   7.636   6.274 -0.1978 -2.3747 -1.9630
  216MOL    H8326313   4.709   7.521   6.302 -1.1996 -0.3686 -1.0175
  216MOL    H8426314   4.535   7.358   6.390 -0.6040 -1.3714 -0.4192
  216MOL    H8526315   4.404   7.458   6.347 -2.0943 -2.6747  0.0738
  216MOL    C8626316   4.506   7.383   6.169 -0.6118  0.2016  0.5294
  216MOL    C8726317   4.429   7.251   6.151 -0.5438  0.4989 -0.6593
  216MOL    H8826318   4.464   7.464   6.109  2.3186  0.5622 -1.1500
  216MOL    H8926319   4.608   7.371   6.133  0.0028  2.8355  1.2658
  216MOL    H9026320   4.487   7.181   6.212 -0.9491  0.9765  0.2935
  216MOL    H9126321   4.339   7.267   6.210 -1.2218 -1.3645 -1.1769
  216MOL    C9226322   4.396   7.215   6.012 -0.1329  0.0187  1.2752
  216MOL    C9326323   4.305   7.097   5.991 -0.5678  0.5587  0.0768
  216MOL    H9426324   4.346   7.303   5.971 -2.2289 -1.9129 -0.4890
  216MOL    H9526325   4.487   7.198   5.955 -2.1240  0.3975 -2.1801
  216MOL    H9626326   4.348   7.011   6.042  1.4305  2.6221  2.0338
  216MOL    H9726327   4.205   7.113   6.032 -0.6817 -0.3362  0.1644
  216MOL    C9826328   4.286   7.054   5.843 -0.3262  0.1299 -0.2480
  216MOL    C9926329   4.229   6.917   5.813 -0.4506  0.2430 -0.9633
  216MOL   H10026330   4.225   7.135   5.802  0.9351  1.1193 -0.2425
  216MOL   H10126331   4.375   7.057   5.780  0.5244  0.3279  0.9480
  216MOL   H10226332   4.305   6.839   5.812  0.4231  0.9357  3.2779
  216MOL   H10326333   4.154   6.888   5.887 -1.7431  2.8042 -1.2075
  216MOL   C10426334   4.140   6.924   5.684 -0.0959 -0.2093 -0.0474
  216MOL   C10526335   4.084   6.785   5.642 -0.0808 -0.2343  0.5752
  216MOL   H10626336   4.061   6.989   5.722  1.0322  0.6143  0.9078
  216MOL   H10726337   4.192   6.962   5.597 -0.9256  0.9760 -0.0361
  216MOL   H10826338   4.167   6.722   5.609  0.2495 -0.9482  2.7128
  216MOL   H10926339   4.045   6.733   5.729  1.0133 -0.9607  0.6432
  216MOL   C11026340   3.986   6.771   5.527 -0.2723  0.2187 -0.1117
  216MOL   C11126341   3.965   6.630   5.479 -0.2119 -0.5788 -0.2184
  216MOL   H11226342   3.885   6.810   5.543 -0.0759  2.3278 -3.4341
  216MOL   H11326343   4.021   6.831   5.443  0.1422 -0.2678 -0.2822
  216MOL   H11426344   4.052   6.598   5.420  1.5978  1.3794  1.3063
  216MOL   H11526345   3.952   6.564   5.564  1.3294  0.0037  0.4985
  216MOL   C11626346   3.831   6.610   5.401  0.4725 -0.5878  0.1771
  216MOL   C11726347   3.858   6.652   5.255  0.1157 -0.7768  1.0548
  216MOL   H11826348   3.784   6.512   5.407 -1.0425  0.0933 -0.2261
  216MOL   H11926349   3.751   6.677   5.435  2.3411  2.1115 -0.5582
  216MOL   H12026350   3.870   6.760   5.265 -1.0508 -0.6004  0.6946
  216MOL   H12126351   3.950   6.607   5.219 -0.1849 -0.6061  0.0441
  216MOL   H12226352   3.784   6.638   5.176  0.3146  0.6230  0.6034
  217MOL     C126353   6.079   3.312   3.634  0.4953  0.0343 -0.4641
  217MOL     C226354   6.156   3.188   3.608  0.3588  1.0553  0.5971
  217MOL     H326355   6.105   3.346   3.735 -1.2756  2.4917 -0.7992
  217MOL     H426356   5.972   3.295   3.647  0.2105  0.5425 -2.1555
  217MOL     H526357   6.263   3.202   3.624  0.1467  2.2717  1.0295
  217MOL     H626358   6.130   3.106   3.676 -1.1308  0.2574 -0.8879
  217MOL     H726359   6.113   3.388   3.565  1.7275 -0.1664 -0.0986
  217MOL     C826360   6.139   3.148   3.458 -0.3859  0.6559  0.1617
  217MOL     C926361   6.225   3.025   3.425 -0.1361  0.5196  0.1698
  217MOL    H1026362   6.036   3.117   3.439 -0.5054  0.4079  1.1840
  217MOL    H1126363   6.168   3.231   3.393 -1.6599  0.6353 -0.4445
  217MOL    H1226364   6.207   3.021   3.317 -0.8364  0.4840  0.2849
  217MOL    H1326365   6.326   3.055   3.450  0.3031 -2.0001  1.6195
  217MOL    C1426366   6.174   2.889   3.488  0.1086  0.4435 -0.1542
  217MOL    C1526367   6.296   2.826   3.561  0.3592 -0.5683  0.1292
  217MOL    H1626368   6.085   2.892   3.550  0.4228 -1.2432  0.4086
  217MOL    H1726369   6.146   2.822   3.405 -0.2537  0.4993 -0.0797
  217MOL    H1826370   6.283   2.718   3.555  0.3395 -0.6976  2.2217
  217MOL    H1926371   6.383   2.863   3.506 -0.6936 -0.1928 -1.3212
  217MOL    C2026372   6.313   2.868   3.704  0.3788 -0.6410  0.1759
  217MOL    C2126373   6.426   2.794   3.781  0.1093 -0.1322 -0.2171
  217MOL    H2226374   6.331   2.975   3.700 -0.1368 -0.5669 -0.2445
  217MOL    H2326375   6.222   2.864   3.765  0.2258  1.2502  0.1186
  217MOL    H2426376   6.417   2.686   3.773  0.2864 -0.0342 -1.8616
  217MOL    H2526377   6.528   2.812   3.746  1.6959  0.4078  4.3153
  217MOL    C2626378   6.422   2.839   3.918  0.3197 -0.0962  0.0982
  217MOL    C2726379   6.546   2.793   4.004 -0.1683  0.1967 -0.1743
  217MOL    H2826380   6.412   2.948   3.920  1.1321 -0.0254  0.5424
  217MOL    H2926381   6.337   2.800   3.974 -0.4315 -0.4619 -1.2963
  217MOL    H3026382   6.569   2.689   3.982 -0.4952  0.1268 -0.1871
  217MOL    H3126383   6.626   2.848   3.954 -0.9900  0.6722 -0.9879
  217MOL    C3226384   6.524   2.830   4.152  0.4445  1.3771 -0.0853
  217MOL    C3326385   6.557   2.711   4.248  0.1780 -0.4407  0.4775
  217MOL    H3426386   6.584   2.917   4.178  1.7244  0.3144  0.5667
  217MOL    H3526387   6.420   2.856   4.170 -0.0749 -1.9351  2.1848
  217MOL    H3626388   6.516   2.626   4.195  0.0271 -0.3145  0.3900
  217MOL    H3726389   6.666   2.704   4.251  0.1937 -0.3654  0.0852
  217MOL    C3826390   6.495   2.734   4.386  0.5481 -0.4857  0.0045
  217MOL    C3926391   6.533   2.631   4.482 -0.4599  0.0979  0.3864
  217MOL    H4026392   6.536   2.832   4.411  0.1930 -0.6336  1.1675
  217MOL    H4126393   6.387   2.745   4.374  0.4451 -0.9419  0.5120
  217MOL    H4226394   6.516   2.528   4.449 -0.1850 -0.7365  2.7397
  217MOL    H4326395   6.640   2.650   4.489 -0.4313  1.2903 -2.6407
  217MOL    C4426396   6.469   2.640   4.613 -0.0025  0.5453  0.0555
  217MOL    C4526397   6.542   2.557   4.721  0.1421  0.2440  0.1425
  217MOL    H4626398   6.467   2.742   4.651 -0.7498 -0.0001  1.5529
  217MOL    H4726399   6.362   2.618   4.623 -0.1294  0.7452 -0.8497
  217MOL    H4826400   6.641   2.596   4.742 -0.4015  0.7731  1.8571
  217MOL    H4926401   6.472   2.568   4.804  0.7526  0.9379  0.5696
  217MOL    C5026402   6.544   2.407   4.687 -0.1555 -0.1340  0.3541
  217MOL    C5126403   6.551   2.305   4.795  0.0845 -0.2359 -0.1416
  217MOL    H5226404   6.450   2.388   4.635 -0.6267  0.1423  1.1027
  217MOL    H5326405   6.622   2.404   4.611 -0.7292  0.0711 -0.2584
  217MOL    H5426406   6.541   2.208   4.746  0.7882  0.2281 -1.2190
  217MOL    H5526407   6.655   2.291   4.827  0.4758  1.9518 -0.3609
  217MOL    C5626408   6.456   2.327   4.913 -0.0053  0.7826 -0.3745
  217MOL    C5726409   6.451   2.194   4.991  0.5564 -1.1100  0.1673
  217MOL    H5826410   6.486   2.408   4.979  2.3218 -0.9329  0.7269
  217MOL    H5926411   6.356   2.344   4.872 -1.1461 -2.9775  0.6789
  217MOL    H6026412   6.434   2.106   4.927  1.0112 -1.2854  0.2901
  217MOL    H6126413   6.551   2.184   5.031 -0.1825 -3.2216  1.5543
  217MOL    C6226414   6.344   2.196   5.094 -0.7122  0.8805 -0.1973
  217MOL    C6326415   6.343   2.053   5.158  0.0340  0.2427  0.7712
  217MOL    H6426416   6.377   2.264   5.172  0.6859 -1.0892  0.9757
  217MOL    H6526417   6.245   2.232   5.066 -1.1060 -0.3020 -0.3671
  217MOL    H6626418   6.295   1.981   5.092 -1.1203  1.6347  0.0667
  217MOL    H6726419   6.446   2.020   5.169  0.2335  0.2744 -0.9041
  217MOL    C6826420   6.271   2.030   5.296 -0.2624 -0.4747 -0.0240
  217MOL    C6926421   6.267   1.879   5.332  0.3026  0.3058  0.3745
  217MOL    H7026422   6.326   2.078   5.377  1.4847 -3.1962  0.4465
  217MOL    H7126423   6.168   2.067   5.295 -0.2064 -0.1401 -4.2090
  217MOL    H7226424   6.368   1.846   5.309  0.5056  1.5020 -0.4829
  217MOL    H7326425   6.245   1.861   5.438  2.8587 -2.2061  0.5591
  217MOL    C7426426   6.160   1.806   5.249 -0.7338 -0.7555 -0.0370
  217MOL    C7526427   6.180   1.648   5.251  0.3350 -0.1430 -0.4710
  217MOL    H7626428   6.058   1.822   5.282 -0.5003 -0.9283  0.7659
  217MOL    H7726429   6.150   1.836   5.144 -1.7844 -2.3043 -0.3915
  217MOL    H7826430   6.275   1.626   5.205  1.9460  1.7551  1.7948
  217MOL    H7926431   6.186   1.617   5.355 -1.2437  3.0625  0.6619
  217MOL    C8026432   6.055   1.590   5.171 -0.4246 -0.6792 -0.1434
  217MOL    C8126433   6.029   1.439   5.194  0.1011 -0.3379  0.0634
  217MOL    H8226434   5.957   1.636   5.184 -1.4163 -2.4484 -1.0460
  217MOL    H8326435   6.061   1.608   5.063 -1.2656  0.7628  0.0419
  217MOL    H8426436   6.120   1.384   5.168  0.1575 -0.0900 -0.2645
  217MOL    H8526437   6.009   1.425   5.301  0.1683  1.7451  0.3803
  217MOL    C8626438   5.906   1.395   5.107  0.3978 -0.0964  0.0647
  217MOL    C8726439   5.878   1.244   5.117  0.5927 -0.6255 -0.2807
  217MOL    H8826440   5.812   1.441   5.140  2.3953  1.9709  3.0958
  217MOL    H8926441   5.917   1.424   5.003 -0.6803  0.5523  0.1267
  217MOL    H9026442   5.961   1.179   5.089  1.7107  0.7458 -0.1700
  217MOL    H9126443   5.862   1.221   5.223 -0.3376  0.6534 -0.1399
  217MOL    C9226444   5.745   1.202   5.047 -0.6580 -0.2723 -0.2238
  217MOL    C9326445   5.705   1.053   5.069 -0.4032 -0.3813  0.1578
  217MOL    H9426446   5.660   1.260   5.082 -0.6962  0.2793 -1.2219
  217MOL    H9526447   5.745   1.229   4.942 -2.0304  0.9459  0.0737
  217MOL    H9626448   5.769   0.985   5.013  1.4528  2.4179 -1.2063
  217MOL    H9726449   5.722   1.039   5.176  0.7066  1.7037  0.2937
  217MOL    C9826450   5.556   1.026   5.044  0.2545  0.1715  0.4050
  217MOL    C9926451   5.516   1.038   4.897 -0.1301  0.2251 -0.1700
  217MOL   H10026452   5.545   0.927   5.088 -0.7041  0.4220  0.7301
  217MOL   H10126453   5.496   1.102   5.093  1.5448  1.4723  0.0234
  217MOL   H10226454   5.409   1.021   4.891 -0.2216  1.0694 -0.9632
  217MOL   H10326455   5.537   1.138   4.860  3.1393 -0.0144  0.8226
  217MOL   C10426456   5.574   0.948   4.782  0.6113 -0.2589  0.0273
  217MOL   C10526457   5.565   0.796   4.818  0.4575 -0.0271 -0.3469
  217MOL   H10626458   5.525   0.976   4.689  1.4486  1.9368  0.2107
  217MOL   H10726459   5.676   0.979   4.757 -0.5088  0.4905 -4.0111
  217MOL   H10826460   5.638   0.777   4.897 -1.3202  0.7512  1.5314
  217MOL   H10926461   5.461   0.776   4.841  0.5175  0.5151  0.4150
  217MOL   C11026462   5.598   0.713   4.702  0.4719  0.1183 -0.4525
  217MOL   C11126463   5.726   0.735   4.626 -0.3871 -0.3482 -0.2392
  217MOL   H11226464   5.588   0.609   4.732  0.6113  0.2121 -0.0863
  217MOL   H11326465   5.511   0.720   4.636 -1.6593 -0.8334  2.1540
  217MOL   H11426466   5.740   0.841   4.606 -3.0939 -0.0903 -0.9342
  217MOL   H11526467   5.809   0.705   4.689 -0.3025  1.3343  0.4769
  217MOL   C11626468   5.728   0.652   4.494 -0.1570  0.0785  0.3070
  217MOL   C11726469   5.841   0.689   4.398  0.3458  0.1408  0.2613
  217MOL   H11826470   5.733   0.546   4.518 -0.4870 -0.2429 -0.9915
  217MOL   H11926471   5.625   0.657   4.458  0.3660  0.8903 -1.1268
  217MOL   H12026472   5.834   0.796   4.381  1.6492 -0.1608 -2.5176
  217MOL   H12126473   5.942   0.678   4.438  0.6299  0.5279 -0.3335
  217MOL   H12226474   5.825   0.643   4.300 -1.3118  0.4422  0.3720
  218MOL     C126475   5.517   5.387   6.905 -0.0637  0.0684  0.3196
  218MOL     C226476   5.387   5.329   6.967  0.5045 -0.6241 -0.6398
  218MOL     H326477   5.563   5.472   6.956 -0.7789 -0.3419  1.6597
  218MOL     H426478   5.504   5.423   6.802  0.1062 -0.2227  0.1977
  218MOL     H526479   5.313   5.400   7.004  0.6051 -1.8171  1.8993
  218MOL     H626480   5.332   5.279   6.886  0.4045  1.0242 -1.6199
  218MOL     H726481   5.595   5.311   6.901  1.6412  1.6456  2.5557
  218MOL     C826482   5.416   5.233   7.088 -0.3819 -0.1872 -0.5175
  218MOL     C926483   5.484   5.298   7.212  0.4590 -0.3004  1.1983
  218MOL    H1026484   5.315   5.204   7.116  0.4814 -1.6463  1.1435
  218MOL    H1126485   5.460   5.136   7.065 -0.1072 -0.1352 -0.2026
  218MOL    H1226486   5.589   5.324   7.200  0.2993  1.8504  3.9693
  218MOL    H1326487   5.427   5.390   7.227 -0.4996 -0.5344 -0.7346
  218MOL    C1426488   5.482   5.199   7.330 -0.7436  0.6046 -0.3746
  218MOL    C1526489   5.565   5.070   7.321 -0.4415  0.5742 -0.3143
  218MOL    H1626490   5.533   5.251   7.411 -1.2781  0.0604  0.3211
  218MOL    H1726491   5.379   5.169   7.351 -0.6604 -0.5466 -1.5732
  218MOL    H1826492   5.522   4.996   7.390  0.2842  0.0493 -0.4159
  218MOL    H1926493   5.550   5.016   7.228  2.4944 -0.3816 -0.2748
  218MOL    C2026494   5.706   5.086   7.349 -0.0745  0.7352 -0.1166
  218MOL    C2126495   5.775   4.948   7.352  0.2257 -0.1963 -0.4288
  218MOL    H2226496   5.750   5.151   7.274 -0.6156 -1.7118 -2.6129
  218MOL    H2326497   5.720   5.144   7.440 -0.9749  1.1271 -0.2216
  218MOL    H2426498   5.704   4.870   7.322  1.1690 -0.6373 -1.5375
  218MOL    H2526499   5.861   4.955   7.285 -0.3414  0.0367 -1.1440
  218MOL    C2626500   5.825   4.923   7.495 -0.1609  0.0400 -0.1436
  218MOL    C2726501   5.903   4.794   7.500 -0.5581 -0.3671 -0.3713
  218MOL    H2826502   5.888   5.000   7.538  0.7779 -1.8416  1.9717
  218MOL    H2926503   5.728   4.915   7.545 -0.8966  3.6534 -0.8457
  218MOL    H3026504   5.859   4.720   7.434  0.5743 -0.7921 -0.6684
  218MOL    H3126505   6.001   4.809   7.453 -0.7385 -1.6777 -1.1834
  218MOL    C3226506   5.922   4.738   7.648  0.5520  0.4162  0.3772
  218MOL    C3326507   6.025   4.625   7.649 -0.7125  0.4064  0.3507
  218MOL    H3426508   5.959   4.825   0.010 -1.0232  1.1198  0.3487
  218MOL    H3526509   5.820   4.722   7.683 -0.2932  1.5521 -1.5026
  218MOL    H3626510   5.984   4.539   7.596 -1.6874  0.6940  0.6402
  218MOL    H3726511   6.113   4.656   7.592 -0.8295 -1.8800 -1.1596
  218MOL    C3826512   6.066   4.585   0.104 -0.3292  0.5997  0.0649
  218MOL    C3926513   6.151   4.454   0.100  0.7547 -0.1198 -0.3973
  218MOL    H4026514   6.120   4.670   0.147 -1.2350  1.0869  0.2647
  218MOL    H4126515   5.979   4.577   0.169  2.5910  1.7405  4.2837
  218MOL    H4226516   6.094   4.370   0.059 -0.5925  0.5930 -0.0089
  218MOL    H4326517   6.233   4.486   0.035  0.9416  0.4014  0.0958
  218MOL    C4426518   6.230   4.413   0.230  0.4048  0.9808  0.2084
  218MOL    C4526519   6.158   4.394   0.360 -0.3285 -0.1967  0.3068
  218MOL    H4626520   6.284   4.322   0.204 -2.4934 -0.8912  0.4622
  218MOL    H4726521   6.288   4.498   0.265  1.0632  0.9799 -0.8464
  218MOL    H4826522   6.111   4.485   0.396  1.2870 -0.0118  2.0049
  218MOL    H4926523   6.067   4.337   0.339 -1.0196  1.2046 -0.5914
  218MOL    C5026524   6.242   4.320   0.468  0.4157  0.1938 -0.0099
  218MOL    C5126525   6.163   4.302   0.600 -0.0143  0.4032 -0.4195
  218MOL    H5226526   6.286   4.226   0.432  0.7881 -0.3697  1.8552
  218MOL    H5326527   6.329   4.383   0.487  1.1316 -0.6904 -0.3146
  218MOL    H5426528   6.060   4.319   0.570  0.3392  2.0157 -0.7855
  218MOL    H5526529   6.182   4.202   0.637 -1.3690  1.0338  2.0919
  218MOL    C5626530   6.203   4.408   0.704 -0.2684  0.0084 -0.4471
  218MOL    C5726531   6.110   4.398   0.827  0.1393  0.8565  0.2802
  218MOL    H5826532   6.307   4.395   0.735 -0.2810  1.0886  0.0449
  218MOL    H5926533   6.214   4.502   0.651  0.0569 -0.0576 -0.4991
  218MOL    H6026534   6.014   4.431   0.787  1.2712  1.2497 -2.2657
  218MOL    H6126535   6.095   4.301   0.874  1.6593  1.0151  1.1481
  218MOL    C6226536   6.154   4.490   0.945 -0.2492 -0.1782  0.3524
  218MOL    C6326537   6.047   4.504   1.055 -0.0352  0.2445  0.4676
  218MOL    H6426538   6.245   4.445   0.982 -0.9414 -2.1850 -0.3083
  218MOL    H6526539   6.186   4.587   0.907 -2.2251  0.7663  1.0155
  218MOL    H6626540   5.949   4.532   1.016 -0.3739 -2.0821 -0.4207
  218MOL    H6726541   6.049   4.408   1.106  0.2455  0.6577  1.2367
  218MOL    C6826542   6.087   4.612   1.152 -0.2436  0.0414 -0.2403
  218MOL    C6926543   5.995   4.616   1.265 -0.3326  0.3500 -0.0575
  218MOL    H7026544   6.188   4.606   1.193 -0.0421 -1.3802 -0.9164
  218MOL    H7126545   6.075   4.705   1.097 -0.2830 -0.5274 -1.1973
  218MOL    H7226546   5.893   4.621   1.228  0.5601  1.3395 -2.4639
  218MOL    H7326547   6.004   4.526   1.327  2.5386  0.1354 -0.6927
  218MOL    C7426548   6.013   4.737   1.363  0.5128  0.1005  0.3605
  218MOL    C7526549   5.925   4.730   1.486  0.0473 -0.1445 -0.3482
  218MOL    H7626550   6.120   4.733   1.384  0.6458 -0.9121 -0.4871
  218MOL    H7726551   6.003   4.831   1.310  0.0601  1.0866  2.1526
  218MOL    H7826552   5.928   4.625   1.514 -0.1137  0.2005  0.9773
  218MOL    H7926553   5.973   4.796   1.557  0.1742 -0.0444 -0.5245
  218MOL    C8026554   5.776   4.771   1.474  0.1599 -0.0834  0.0018
  218MOL    C8126555   5.709   4.797   1.612 -0.0566  0.3916 -0.1795
  218MOL    H8226556   5.765   4.855   1.406  3.2457 -0.6813 -1.2962
  218MOL    H8326557   5.722   4.694   1.419  1.8058 -1.7547  0.6631
  218MOL    H8426558   5.774   4.858   1.675 -5.1035  3.1806  2.6774
  218MOL    H8526559   5.617   4.855   1.605  0.6145  1.4155 -0.4835
  218MOL    C8626560   5.672   4.662   1.676 -0.2405  0.1297  0.2304
  218MOL    C8726561   5.572   4.667   1.797  0.5716 -0.1694  0.3949
  218MOL    H8826562   5.622   4.602   1.600  2.5247 -1.8689 -0.1220
  218MOL    H8926563   5.764   4.613   1.709 -2.0216 -2.2093  1.8755
  218MOL    H9026564   5.557   4.564   1.830 -1.3440  0.4172  1.4570
  218MOL    H9126565   5.607   4.718   1.886 -0.4368 -1.6072  1.6479
  218MOL    C9226566   5.429   4.707   1.764  0.3977 -0.3073 -0.5692
  218MOL    C9326567   5.332   4.665   1.869 -0.4853 -0.2523  0.4129
  218MOL    H9426568   5.440   4.815   1.747 -0.5302  0.3145  2.4961
  218MOL    H9526569   5.404   4.676   1.663  0.4963 -0.6804 -0.4770
  218MOL    H9626570   5.321   4.557   1.853  1.2421 -0.3992  0.1387
  218MOL    H9726571   5.364   4.676   1.972 -0.9348 -1.6970  0.7252
  218MOL    C9826572   5.186   4.708   1.835 -0.4036  0.1276 -0.5542
  218MOL    C9926573   5.080   4.655   1.936  0.1543  0.0314 -0.3962
  218MOL   H10026574   5.174   4.812   1.803  0.6715  0.2899 -0.4412
  218MOL   H10126575   5.161   4.661   1.740  3.5361  0.1388 -1.6982
  218MOL   H10226576   5.069   4.548   1.917 -0.9970 -0.4054  2.3561
  218MOL   H10326577   5.115   4.651   2.039 -0.2751 -0.8163 -0.2770
  218MOL   C10426578   4.948   4.718   1.934 -0.2956 -0.1778  0.0948
  218MOL   C10526579   4.845   4.644   2.021 -0.2228  0.5178 -1.1886
  218MOL   H10626580   4.953   4.815   1.983 -0.9439  0.2629 -0.7134
  218MOL   H10726581   4.910   4.719   1.832 -1.3974 -0.0324  0.4997
  218MOL   H10826582   4.809   4.554   1.971  1.3226 -0.2690 -0.9125
  218MOL   H10926583   4.894   4.608   2.111  1.4185 -0.2965 -2.3706
  218MOL   C11026584   4.720   4.729   2.066  0.1374 -0.2224 -0.1229
  218MOL   C11126585   4.609   4.658   2.149 -0.0418 -0.5887 -0.0604
  218MOL   H11226586   4.754   4.813   2.126  0.1103  0.1704 -0.6574
  218MOL   H11326587   4.671   4.775   1.980  0.4978 -1.5069 -1.0381
  218MOL   H11426588   4.568   4.578   2.087  1.4543  0.0219 -1.8868
  218MOL   H11526589   4.650   4.610   2.238 -1.5950  1.7064  1.9861
  218MOL   C11626590   4.493   4.747   2.187 -0.6942  0.2088 -0.4397
  218MOL   C11726591   4.383   4.680   2.260  0.1783 -0.0180  0.8342
  218MOL   H11826592   4.523   4.832   2.249  0.7121 -0.1785 -0.5690
  218MOL   H11926593   4.454   4.803   2.101  1.0628  1.6121 -0.3598
  218MOL   H12026594   4.366   4.591   2.198 -1.6075  2.1165 -1.8493
  218MOL   H12126595   4.427   4.647   2.354  0.3092 -0.6718  0.5527
  218MOL   H12226596   4.296   4.744   2.270 -1.0226 -1.2049 -1.5037
  219MOL     C126597   7.124   1.652   2.461 -0.3272  0.0190 -0.0982
  219MOL     C226598   7.051   1.780   2.440  0.1664 -0.7292  0.3027
  219MOL     H326599   7.059   1.567   2.439 -0.8292  0.3904 -0.0382
  219MOL     H426600   7.175   1.637   2.556 -0.5956  0.3783  0.1052
  219MOL     H526601   7.003   1.779   2.342  0.5333 -1.0708  0.1258
  219MOL     H626602   6.970   1.774   2.513  1.9278  1.9824  2.5569
  219MOL     H726603   7.202   1.646   2.385 -0.2739  2.4798 -0.2685
  219MOL     C826604   7.134   1.910   2.445  0.2325  0.4654  0.1475
  219MOL     C926605   7.058   2.039   2.412  0.4811  0.6666 -0.3288
  219MOL    H1026606   7.177   1.926   2.544  0.6274 -1.5419  0.3092
  219MOL    H1126607   7.217   1.903   2.375  0.6657 -1.4529  0.8397
  219MOL    H1226608   7.005   2.013   2.321  0.2128 -1.9004  0.5024
  219MOL    H1326609   6.984   2.048   2.492  0.0699  2.6760 -0.8999
  219MOL    C1426610   7.142   2.173   2.405  0.5155 -0.3165  0.2989
  219MOL    C1526611   7.046   2.291   2.415 -0.2760 -0.0278  0.7412
  219MOL    H1626612   7.221   2.162   2.480  1.1991 -0.6287 -0.4573
  219MOL    H1726613   7.201   2.174   2.313  0.0474  3.1974 -0.0193
  219MOL    H1826614   6.955   2.264   2.362 -0.0629 -2.1643  1.4308
  219MOL    H1926615   7.011   2.295   2.518  0.8872 -0.5900  1.1682
  219MOL    C2026616   7.105   2.420   2.364  0.1859 -0.3256 -0.2107
  219MOL    C2126617   7.237   2.462   2.430 -0.0204 -0.8535  0.2665
  219MOL    H2226618   7.121   2.422   2.257 -2.8429  0.4371 -0.6912
  219MOL    H2326619   7.025   2.486   2.399  0.5946 -1.0112  2.1594
  219MOL    H2426620   7.234   2.449   2.538 -0.0631  0.8279  0.4829
  219MOL    H2526621   7.319   2.399   2.394 -1.0002 -1.7436 -0.4382
  219MOL    C2626622   7.269   2.612   2.382  0.0667 -0.1118 -0.5400
  219MOL    C2726623   7.386   2.677   2.457  0.2884 -0.1595  0.0073
  219MOL    H2826624   7.278   2.624   2.274 -3.9804  0.0195 -0.9639
  219MOL    H2926625   7.183   2.677   2.404 -0.7500 -1.0372 -0.9589
  219MOL    H3026626   7.376   2.644   2.561  0.0585  0.5423  0.2079
  219MOL    H3126627   7.483   2.642   2.421 -0.6580  0.1247 -2.8988
  219MOL    C3226628   7.386   2.830   2.451  0.1336  0.1957 -0.2975
  219MOL    C3326629   7.423   2.884   2.314  0.2980  0.9959  0.3271
  219MOL    H3426630   7.283   2.864   2.463 -0.0301  0.1060 -1.4359
  219MOL    H3526631   7.450   2.875   2.526 -0.0109  0.4977 -0.3552
  219MOL    H3626632   7.530   2.867   2.304  0.3339 -0.7034  3.1847
  219MOL    H3726633   7.357   2.839   2.239  4.6726 -1.3983 -2.2456
  219MOL    C3826634   7.408   3.041   2.322 -0.2756  0.6577 -0.5330
  219MOL    C3926635   7.427   3.121   2.194 -0.1833  0.1819 -0.0028
  219MOL    H4026636   7.313   3.074   2.364 -0.8249 -0.1794 -1.0926
  219MOL    H4126637   7.492   3.067   2.386  0.3183 -0.4806 -0.8190
  219MOL    H4226638   7.533   3.118   2.172  0.0156  1.0753  0.8326
  219MOL    H4326639   7.372   3.068   2.115  2.6878 -1.2393 -1.1027
  219MOL    C4426640   7.359   3.258   2.217  0.2832  0.1957 -0.1620
  219MOL    C4526641   7.423   3.346   2.325  0.4535 -0.6480 -0.2523
  219MOL    H4626642   7.369   3.317   2.126  4.6999 -1.2726 -0.7483
  219MOL    H4726643   7.253   3.251   2.240 -0.8089  4.1686 -3.3145
  219MOL    H4826644   7.430   3.311   2.428 -1.0447  2.3070  0.9177
  219MOL    H4926645   7.524   3.351   2.283 -0.1461 -1.2001 -1.8038
  219MOL    C5026646   7.358   3.484   2.328 -1.0236  0.1008 -0.8894
  219MOL    C5126647   7.379   3.564   2.458 -0.7069 -0.5489 -0.5474
  219MOL    H5226648   7.394   3.543   2.244 -0.3301  0.9040 -0.0386
  219MOL    H5326649   7.251   3.476   2.309 -0.7116 -0.4471 -2.5011
  219MOL    H5426650   7.319   3.519   2.536  0.2709  2.6058  2.1242
  219MOL    H5526651   7.482   3.554   2.491 -0.7770  1.1760  0.2748
  219MOL    C5626652   7.341   3.719   2.444 -0.6134 -0.4432 -0.5512
  219MOL    C5726653   7.334   3.794   2.585  0.3151 -0.1324 -0.2788
  219MOL    H5826654   7.416   3.757   2.374  1.1973 -1.6933  0.6821
  219MOL    H5926655   7.236   3.724   2.414 -0.7791  1.5186  0.2684
  219MOL    H6026656   7.232   3.775   2.618  0.5652 -0.0221  0.5783
  219MOL    H6126657   7.406   3.743   2.649  1.5186  0.5311 -1.0919
  219MOL    C6226658   7.374   3.938   2.592 -0.5719 -0.5421  0.6105
  219MOL    C6326659   7.360   4.001   2.738  0.4705  0.4210 -0.0980
  219MOL    H6426660   7.474   3.954   2.553 -1.0046 -1.5230 -0.9274
  219MOL    H6526661   7.302   3.992   2.530 -1.6095 -1.1135  1.3060
  219MOL    H6626662   7.259   3.983   2.776  1.6380  1.0052  3.4537
  219MOL    H6726663   7.432   3.954   2.805 -0.1732  0.4374  0.6140
  219MOL    C6826664   7.372   4.155   2.731 -0.8507 -0.0274  0.3925
  219MOL    C6926665   7.365   4.217   2.872  0.5487  0.0571 -0.0552
  219MOL    H7026666   7.471   4.182   2.693 -0.1875 -1.4434  1.0736
  219MOL    H7126667   7.305   4.204   2.660  1.5541  2.2920 -0.3384
  219MOL    H7226668   7.275   4.200   2.932 -0.0675 -1.9086 -1.4563
  219MOL    H7326669   7.441   4.169   2.934 -0.2702 -0.2799  0.6981
  219MOL    C7426670   7.396   4.375   2.866 -0.4376 -0.1177 -0.7758
  219MOL    C7526671   7.450   4.426   3.001 -0.1057 -1.1935 -0.7131
  219MOL    H7626672   7.480   4.387   2.798 -1.7142  0.2852 -2.3198
  219MOL    H7726673   7.313   4.436   2.829  1.4792  1.1304 -3.1813
  219MOL    H7826674   7.399   4.383   3.087 -0.5635  0.7077 -0.0022
  219MOL    H7926675   7.557   4.406   3.007  0.1046 -0.1910 -1.0013
  219MOL    C8026676   7.429   4.576   3.017  0.3413 -0.3983  0.0696
  219MOL    C8126677   7.477   4.628   3.152  0.3718 -0.8521  0.6748
  219MOL    H8226678   7.482   4.633   2.941  1.4030 -1.5871 -0.0822
  219MOL    H8326679   7.321   4.591   3.008  0.7747  2.2233 -1.1889
  219MOL    H8426680   7.437   4.566   3.232 -2.2259  0.8327  0.7396
  219MOL    H8526681   7.585   4.611   3.154  0.4914 -0.3150 -0.9373
  219MOL    C8626682   7.445   4.783   3.187 -0.6404 -0.4151 -0.2924
  219MOL    C8726683   7.495   4.833   3.328  0.6894  0.5167 -0.4049
  219MOL    H8826684   7.493   4.844   3.111  0.4154 -0.8351  0.0389
  219MOL    H8926685   7.337   4.790   3.171 -0.5908 -0.8481 -0.8367
  219MOL    H9026686   7.464   4.764   3.406  1.2786  0.8202  0.1114
  219MOL    H9126687   7.604   4.830   3.334  0.6214 -3.0533 -0.0415
  219MOL    C9226688   7.452   4.979   3.354 -0.6500 -0.0785  0.4628
  219MOL    C9326689   7.482   5.023   3.504 -0.4436 -0.0138  0.2377
  219MOL    H9426690   7.508   5.051   3.295 -2.9486  2.4635  1.2594
  219MOL    H9526691   7.350   5.000   3.324 -0.4509 -1.8964 -1.5862
  219MOL    H9626692   7.418   4.961   3.567  0.1059  0.0524  0.8639
  219MOL    H9726693   7.585   5.010   3.539  0.2264 -0.2225 -1.7431
  219MOL    C9826694   7.454   5.171   3.526 -0.3906 -0.1076  0.6097
  219MOL    C9926695   7.303   5.198   3.547 -0.1681  0.0626 -0.9763
  219MOL   H10026696   7.506   5.204   3.617 -0.9672  0.4849  0.7271
  219MOL   H10126697   7.496   5.233   3.447 -1.9692 -0.7861 -0.7689
  219MOL   H10226698   7.250   5.162   3.459 -1.2922 -1.9613  0.4813
  219MOL   H10326699   7.280   5.139   3.636  0.7083  0.7755 -0.2687
  219MOL   C10426700   7.269   5.345   3.563 -0.0239 -0.1489  0.5630
  219MOL   C10526701   7.125   5.362   3.613 -0.0692  0.4838 -0.3964
  219MOL   H10626702   7.337   5.383   3.639  2.9917 -0.1002 -2.0716
  219MOL   H10726703   7.294   5.407   3.477  1.4048 -1.7113 -0.1663
  219MOL   H10826704   7.080   5.321   3.523  1.4829 -3.1027  0.3736
  219MOL   H10926705   7.127   5.296   3.700 -0.6190  3.0134  1.6195
  219MOL   C11026706   7.089   5.507   3.631 -0.6321 -0.3682 -0.1979
  219MOL   C11126707   6.944   5.538   3.683 -0.4030 -0.3980  0.3257
  219MOL   H11226708   7.162   5.545   3.703 -3.2112  1.0853  1.7356
  219MOL   H11326709   7.116   5.560   3.539 -0.8033 -0.5302 -0.3419
  219MOL   H11426710   6.863   5.522   3.611  0.0403  0.9389 -0.4863
  219MOL   H11526711   6.920   5.471   3.766  0.6108  0.8197  1.6187
  219MOL   C11626712   6.928   5.685   3.729 -0.9759 -0.5103 -0.3507
  219MOL   C11726713   6.796   5.724   3.782  0.3529  0.5971 -0.2538
  219MOL   H11826714   6.998   5.711   3.809  0.2869  3.3302 -2.5916
  219MOL   H11926715   6.959   5.745   3.644  0.4382  1.1962  1.3169
  219MOL   H12026716   6.730   5.739   3.696 -0.2653  0.3887  0.1796
  219MOL   H12126717   6.759   5.644   3.847  3.4243 -0.0977  0.7059
  219MOL   H12226718   6.790   5.815   3.842 -0.5879 -0.6760  1.6510
  220MOL     C126719   1.814   6.414   3.818 -0.1529 -0.2164  0.8247
  220MOL     C226720   1.783   6.321   3.935 -0.7561  0.1292 -0.3977
  220MOL     H326721   1.806   6.515   3.857 -1.9992  0.0025 -0.0735
  220MOL     H426722   1.745   6.403   3.734  1.5530 -1.5738 -0.4476
  220MOL     H526723   1.679   6.325   3.968 -0.9970 -1.8421 -0.8378
  220MOL     H626724   1.795   6.216   3.906 -0.3945  0.2993 -0.8761
  220MOL     H726725   1.915   6.411   3.777  0.0547  2.9101  1.0180
  220MOL     C826726   1.884   6.344   4.052  0.6331 -0.0372 -0.1723
  220MOL     C926727   1.826   6.308   4.184  0.1378  0.1992  0.3740
  220MOL    H1026728   1.971   6.281   4.035 -0.1368 -1.2269  0.2009
  220MOL    H1126729   1.935   6.440   4.063  0.7502 -0.0264 -0.7947
  220MOL    H1226730   1.748   6.378   4.213  0.5436  0.2351  1.4010
  220MOL    H1326731   1.775   6.212   4.174 -0.0021  0.2318  0.7786
  220MOL    C1426732   1.926   6.287   4.289 -0.7943 -0.2873 -0.1365
  220MOL    C1526733   1.862   6.257   4.425  0.4662  0.2373  0.6394
  220MOL    H1626734   2.003   6.212   4.268  0.6792  0.6386  1.7818
  220MOL    H1726735   1.974   6.383   4.308  0.2163 -1.4490  3.5705
  220MOL    H1826736   1.774   6.320   4.437  1.9645  2.6693 -0.5859
  220MOL    H1926737   1.821   6.156   4.428 -0.8875  0.8071  1.8639
  220MOL    C2026738   1.961   6.274   4.545  0.4944 -0.6035  0.1338
  220MOL    C2126739   1.883   6.259   4.679 -1.2069 -0.0818 -0.6802
  220MOL    H2226740   2.049   6.210   4.535  0.6519  0.1126 -4.2921
  220MOL    H2326741   2.002   6.374   4.548 -1.4010  0.1958  0.2338
  220MOL    H2426742   1.799   6.327   4.685 -0.3374  0.8456  1.4060
  220MOL    H2526743   1.843   6.157   4.684  2.3827 -1.6858 -2.4603
  220MOL    C2626744   1.977   6.287   4.797 -0.1499  0.3073  0.1394
  220MOL    C2726745   2.015   6.440   4.828  0.0784  1.1132  0.3142
  220MOL    H2826746   1.929   6.250   4.888  0.9725  0.1204  0.6666
  220MOL    H2926747   2.064   6.222   4.786 -0.5626 -0.6727  2.2182
  220MOL    H3026748   2.052   6.495   4.741  0.4802 -0.6533 -0.6594
  220MOL    H3126749   1.939   6.502   4.875 -0.7969 -0.5843  1.1463
  220MOL    C3226750   2.129   6.450   4.930  0.1643  0.2367  0.3566
  220MOL    C3326751   2.166   6.585   4.988 -0.1612 -0.0830  0.4009
  220MOL    H3426752   2.126   6.375   5.009  0.1148  0.2541  0.3713
  220MOL    H3526753   2.219   6.432   4.872 -0.3752 -1.8637  0.1197
  220MOL    H3626754   2.093   6.616   5.063 -0.0363 -1.4186  1.0961
  220MOL    H3726755   2.262   6.564   5.036  0.5147 -0.9222 -1.2810
  220MOL    C3826756   2.194   6.705   4.894  0.2777  0.3262 -0.1751
  220MOL    C3926757   2.235   6.841   4.963  0.3319  0.4720 -0.0428
  220MOL    H4026758   2.264   6.672   4.818 -0.9949 -1.8680 -0.4428
  220MOL    H4126759   2.097   6.729   4.849 -0.0569 -0.9993 -0.1695
  220MOL    H4226760   2.142   6.885   4.996  0.4572  0.8021 -0.1308
  220MOL    H4326761   2.305   6.825   5.046 -1.2103 -3.0632  0.6636
  220MOL    C4426762   2.309   6.931   4.867  0.6675  0.5562 -0.3567
  220MOL    C4526763   2.216   7.007   4.775  0.0849 -1.3178  0.0064
  220MOL    H4626764   2.348   7.000   4.941  2.1136  0.3415 -0.9014
  220MOL    H4726765   2.401   6.891   4.823  0.6562 -2.1163  1.9059
  220MOL    H4826766   2.190   6.950   4.686 -1.4168  0.6252 -0.8307
  220MOL    H4926767   2.115   7.017   4.816 -0.2256  0.2395 -1.0830
  220MOL    C5026768   2.263   7.147   4.742 -0.6297 -0.3001 -0.2089
  220MOL    C5126769   2.176   7.227   4.644  0.3853  0.2809  0.5098
  220MOL    H5226770   2.279   7.192   4.840  0.1726  0.1221 -0.5334
  220MOL    H5326771   2.363   7.132   4.701 -0.2200 -2.5641  1.5067
  220MOL    H5426772   2.139   7.148   4.578  0.8455  0.8076 -0.3797
  220MOL    H5526773   2.090   7.269   4.697  0.1692  0.5802 -0.0824
  220MOL    C5626774   2.256   7.319   4.552 -0.0021  0.0446  0.0441
  220MOL    C5726775   2.157   7.408   4.487  0.4564 -0.4672  0.4741
  220MOL    H5826776   2.323   7.381   4.613 -0.3265 -0.9322  1.4147
  220MOL    H5926777   2.311   7.266   4.475 -0.9021 -3.7381  1.8982
  220MOL    H6026778   2.069   7.350   4.459  0.4424 -0.1775 -0.0844
  220MOL    H6126779   2.134   7.470   4.574 -1.5776  0.2570 -0.5488
  220MOL    C6226780   2.209   7.488   4.359  0.5208  0.3588  0.4438
  220MOL    C6326781   2.342   7.558   4.371  0.4190  0.2944  0.1404
  220MOL    H6426782   2.225   7.428   4.269 -2.1566  1.9949 -1.1902
  220MOL    H6526783   2.129   7.558   4.334 -3.5075 -3.1691  2.7586
  220MOL    H6626784   2.326   7.622   4.458  2.3390 -0.1379  0.8388
  220MOL    H6726785   2.418   7.481   4.383  2.4416  2.2426  0.2891
  220MOL    C6826786   2.368   7.659   4.255  0.5744  0.1843  0.3384
  220MOL    C6926787   2.512   0.018   4.273 -0.0047 -0.3852 -0.0186
  220MOL    H7026788   2.353   7.608   4.159 -0.4111  0.4923  0.3300
  220MOL    H7126789   2.300   0.051   4.262 -0.5316 -0.7846  1.3471
  220MOL    H7226790   2.528   0.056   4.374  0.1507  0.8229 -0.4957
  220MOL    H7326791   2.577   7.623   4.259 -2.0319 -1.6310 -1.9963
  220MOL    C7426792   2.552   0.130   4.170 -0.2264  0.2525 -0.6246
  220MOL    C7526793   2.536   0.276   4.222 -0.7197  0.1457  0.2117
  220MOL    H7626794   2.650   0.114   4.125  0.7619  3.3546  0.3389
  220MOL    H7726795   2.486   0.125   4.083 -1.1281  1.4122 -0.0295
  220MOL    H7826796   2.439   0.292   4.270 -0.3423 -0.9523  1.3629
  220MOL    H7926797   2.612   0.283   4.300  1.4467  0.5636 -1.9035
  220MOL    C8026798   2.557   0.382   4.111  0.4666  0.5956 -0.6558
  220MOL    C8126799   2.695   0.402   4.082  0.4487  0.0346  0.1170
  220MOL    H8226800   2.517   0.348   4.016  1.0139 -1.6786 -0.1070
  220MOL    H8326801   2.525   0.480   4.146 -0.6835  0.0964 -0.2851
  220MOL    H8426802   2.750   0.417   4.174  3.3236 -3.6570 -0.8609
  220MOL    H8526803   2.732   0.305   4.048  0.1177 -0.1828  0.3815
  220MOL    C8626804   2.737   0.516   3.986 -0.3525  0.9790  0.7309
  220MOL    C8726805   2.731   0.486   3.833 -0.1912  0.2461 -0.2825
  220MOL    H8826806   2.677   0.598   4.027 -1.5248 -0.4205  1.9023
  220MOL    H8926807   2.837   0.557   4.000 -0.1132  0.9541 -0.8220
  220MOL    H9026808   2.638   0.429   3.827  0.3554 -0.7387  0.4239
  220MOL    H9126809   2.727   0.581   3.780  1.6253  0.7405  0.4271
  220MOL    C9226810   2.860   0.414   3.787 -0.3503  0.4330 -0.4353
  220MOL    C9326811   2.853   0.385   3.643 -0.9612  0.0771  0.0740
  220MOL    H9426812   2.946   0.479   3.807  0.6775 -0.0805 -2.9799
  220MOL    H9526813   2.878   0.321   3.841 -0.9509  0.8545  0.4877
  220MOL    H9626814   2.761   0.327   3.632 -0.6659 -0.6792  1.4779
  220MOL    H9726815   2.834   0.474   3.583  2.2594  0.2695 -0.7352
  220MOL    C9826816   2.968   0.294   3.589 -0.4413 -0.4071 -0.4562
  220MOL    C9926817   2.959   0.244   3.443  0.6697  0.3821 -0.0189
  220MOL   H10026818   3.058   0.353   3.572 -0.5514 -1.0911 -3.7400
  220MOL   H10126819   2.985   0.206   3.651  0.0466  0.5950  0.8471
  220MOL   H10226820   2.866   0.193   3.419 -0.2073  1.1867  1.5711
  220MOL   H10326821   2.959   0.336   3.384 -0.2102  0.1964 -0.3117
  220MOL   C10426822   3.073   0.156   3.394  0.2407 -0.0084  0.4647
  220MOL   C10526823   3.068   0.101   3.249 -0.3584 -0.0209 -0.3784
  220MOL   H10626824   3.165   0.212   3.411  0.7738 -0.8763  0.5007
  220MOL   H10726825   3.091   0.072   3.461  0.6674 -0.4186 -0.1596
  220MOL   H10826826   2.986   0.030   3.242 -0.4009 -0.1128  1.0630
  220MOL   H10926827   3.045   0.184   3.181  1.6979  2.3826  1.7597
  220MOL   C11026828   3.206   0.058   3.200  0.3082 -0.5654 -0.3509
  220MOL   C11126829   3.209   0.007   3.057  0.8574 -0.0506 -0.0056
  220MOL   H11226830   3.278   0.138   3.213  0.6917 -0.3339 -3.6106
  220MOL   H11326831   3.231   7.671   3.271 -0.3090 -1.9162 -1.5828
  220MOL   H11426832   3.150   7.608   3.048  0.3887  0.3067 -0.6185
  220MOL   H11526833   3.154   0.077   2.994  1.3981  0.5586  0.1943
  220MOL   C11626834   3.353   7.680   2.990 -1.0339 -0.1214  0.0099
  220MOL   C11726835   3.359   7.612   2.855  0.2739 -0.1918  0.1136
  220MOL   H11826836   3.400   0.086   2.995 -1.2661  0.0029 -0.1957
  220MOL   H11926837   3.418   7.620   3.053  1.6268  4.0503  1.4448
  220MOL   H12026838   3.299   7.522   2.859  1.1187 -0.8033 -0.8626
  220MOL   H12126839   3.314   7.680   2.782  0.1960 -1.1264 -0.7164
  220MOL   H12226840   3.461   7.589   2.826 -0.5295 -0.8544 -2.3164
  221MOL     C126841   2.392   1.455   3.146  0.0339 -0.0315  0.2822
  221MOL     C226842   2.534   1.470   3.075 -0.1137  0.4460  0.3879
  221MOL     H326843   2.333   1.384   3.088 -0.5346  1.2693 -0.7384
  221MOL     H426844   2.333   1.546   3.140 -0.3777 -0.2890  0.3796
  221MOL     H526845   2.609   1.515   3.141  1.6925 -0.8950 -0.6985
  221MOL     H626846   2.558   1.370   3.039 -0.0259  0.6587 -0.1467
  221MOL     H726847   2.414   1.424   3.249 -0.5385 -0.5095  0.2596
  221MOL     C826848   2.518   1.561   2.952 -0.1616 -0.3977  0.4660
  221MOL     C926849   2.631   1.542   2.855 -0.7129 -0.7176  0.1123
  221MOL    H1026850   2.439   1.523   2.888  0.7039 -0.0125 -0.8411
  221MOL    H1126851   2.496   1.666   2.974  1.4457  0.3206 -1.2140
  221MOL    H1226852   2.727   1.549   2.907 -0.8215 -1.6741  0.4474
  221MOL    H1326853   2.634   1.443   2.810  0.2431 -0.1939 -1.0347
  221MOL    C1426854   2.625   1.642   2.744 -0.0144 -0.2153 -0.7244
  221MOL    C1526855   2.745   1.632   2.642  0.1835  0.2187 -1.0756
  221MOL    H1626856   2.538   1.626   2.680 -2.1198  2.1051  1.4619
  221MOL    H1726857   2.608   1.742   2.784 -2.1053 -0.6261 -0.5005
  221MOL    H1826858   2.745   1.532   2.600 -1.3010 -0.1863 -0.1483
  221MOL    H1926859   2.720   1.701   2.561 -0.8849  1.8737  0.6131
  221MOL    C2026860   2.875   1.670   2.698 -0.1413  0.2713 -0.0378
  221MOL    C2126861   2.979   1.642   2.591  0.3998  0.2994 -0.0884
  221MOL    H2226862   2.871   1.775   2.729  0.4001  0.9761 -2.2523
  221MOL    H2326863   2.892   1.618   2.792  3.0749 -0.3897 -0.8927
  221MOL    H2426864   2.986   1.534   2.577  1.0775  0.4598 -1.0911
  221MOL    H2526865   2.959   1.691   2.496  2.8521 -0.3606 -0.9943
  221MOL    C2626866   3.118   1.687   2.640  0.2846  0.0741 -0.2076
  221MOL    C2726867   3.226   1.673   2.537  0.3112 -0.0222  0.2684
  221MOL    H2826868   3.118   1.793   2.665  0.0328  0.7193 -2.7442
  221MOL    H2926869   3.139   1.636   2.734 -0.3779 -0.9416 -0.6043
  221MOL    H3026870   3.216   1.573   2.496 -0.8363  0.4472 -0.6213
  221MOL    H3126871   3.202   1.739   2.454 -1.3749 -2.6426 -1.3825
  221MOL    C3226872   3.374   1.709   2.580 -0.0577 -0.8744 -0.0357
  221MOL    C3326873   3.463   1.729   2.451  0.0052 -0.1323 -0.4761
  221MOL    H3426874   3.374   1.809   2.621  0.1530 -0.3513 -1.2815
  221MOL    H3526875   3.404   1.648   2.665  2.7018  0.3561 -0.0492
  221MOL    H3626876   3.462   1.635   2.395 -2.7297 -1.3259  1.4321
  221MOL    H3726877   3.423   1.811   2.391  0.3410 -0.2851 -0.9083
  221MOL    C3826878   3.603   1.770   2.494 -0.2511 -0.9952 -0.0001
  221MOL    C3926879   3.697   1.815   2.374 -0.0498  0.2079  0.5163
  221MOL    H4026880   3.583   1.858   2.555 -0.5896  0.1009 -1.6586
  221MOL    H4126881   3.656   1.703   2.563  0.7187  0.5044  0.7481
  221MOL    H4226882   3.683   1.747   2.290 -1.4259  0.0090  0.9020
  221MOL    H4326883   3.667   1.912   2.333  1.1356  0.0500 -0.7526
  221MOL    C4426884   3.846   1.820   2.417  0.3762 -0.0407  0.0823
  221MOL    C4526885   3.937   1.846   2.299 -0.3688  0.4047 -0.1871
  221MOL    H4626886   3.854   1.906   2.483 -1.7473  1.7891 -1.9433
  221MOL    H4726887   3.872   1.724   2.460  0.9421 -0.4952 -1.2466
  221MOL    H4826888   3.926   1.766   2.226 -1.0367  0.1874  0.1451
  221MOL    H4926889   3.909   1.936   2.244 -1.2827 -0.1035 -0.5637
  221MOL    C5026890   4.081   1.862   2.349 -0.3017  0.1173 -0.2764
  221MOL    C5126891   4.176   1.888   2.240  0.2383 -0.7385  0.0272
  221MOL    H5226892   4.085   1.942   2.423  3.5952  0.3324 -0.6353
  221MOL    H5326893   4.113   1.770   2.399 -0.5630 -0.0353 -0.3885
  221MOL    H5426894   4.183   1.802   2.173  2.5411 -0.3433 -0.2899
  221MOL    H5526895   4.142   1.977   2.189  0.6571 -0.5096  0.1451
  221MOL    C5626896   4.324   1.916   2.283  0.5109  0.3670 -0.5159
  221MOL    C5726897   4.424   1.923   2.165  0.3101  0.5725  0.0586
  221MOL    H5826898   4.320   2.011   2.336  1.1154  0.2307 -0.2209
  221MOL    H5926899   4.363   1.849   2.359  0.1658  0.4004 -0.3123
  221MOL    H6026900   4.452   1.822   2.135 -1.3441  0.1372 -0.0829
  221MOL    H6126901   4.379   1.961   2.073  2.2420  1.5653 -0.5021
  221MOL    C6226902   4.558   1.997   2.190 -0.1367 -0.4437  0.0595
  221MOL    C6326903   4.647   2.000   2.066  0.2334 -0.1733  0.1909
  221MOL    H6426904   4.521   2.096   2.220  0.2628  0.0606 -1.0975
  221MOL    H6526905   4.610   1.964   2.280 -2.9321 -0.1611  1.8473
  221MOL    H6626906   4.646   1.903   2.015  3.5505  0.0969 -0.4571
  221MOL    H6726907   4.622   2.076   1.993  0.3267  0.6261  0.9858
  221MOL    C6826908   4.798   2.021   2.119  0.2649  0.8724  0.2858
  221MOL    C6926909   4.899   2.029   2.007  0.2568 -0.2333 -0.3802
  221MOL    H7026910   4.807   2.111   2.179 -0.3115 -0.1046  1.8806
  221MOL    H7126911   4.824   1.943   2.191 -2.6230 -0.4832 -0.0670
  221MOL    H7226912   4.904   1.935   1.953 -2.6967  0.4533 -1.9400
  221MOL    H7326913   4.866   2.107   1.939  1.0234 -0.6396 -1.2219
  221MOL    C7426914   5.033   2.082   2.062  0.6348 -0.4195  0.3329
  221MOL    C7526915   5.129   2.089   1.948 -0.3578 -0.0989 -0.7895
  221MOL    H7626916   5.017   2.184   2.099  0.5817 -0.6553  0.9672
  221MOL    H7726917   5.068   2.030   2.150 -3.1339  1.1905  2.9279
  221MOL    H7826918   5.139   1.991   1.902 -1.3548 -0.6161  0.0502
  221MOL    H7926919   5.101   2.165   1.874 -0.3357  0.3373 -0.3577
  221MOL    C8026920   5.269   2.128   1.997 -0.3364  0.2934 -0.6610
  221MOL    C8126921   5.376   2.138   1.891 -0.0450  0.0386 -0.2622
  221MOL    H8226922   5.259   2.224   2.047 -1.2764 -0.0856 -0.0881
  221MOL    H8326923   5.293   2.048   2.067  1.9565  2.0425  0.5986
  221MOL    H8426924   5.395   2.042   1.841  1.4720  0.4977 -0.5720
  221MOL    H8526925   5.351   2.203   1.807 -2.3535 -0.5808 -0.1077
  221MOL    C8626926   5.514   2.168   1.951  0.0805 -0.1691 -0.3368
  221MOL    C8726927   5.634   2.176   1.851  0.0297  0.0407  0.0071
  221MOL    H8826928   5.513   2.250   2.022  0.7430 -0.6501  0.2392
  221MOL    H8926929   5.544   2.075   2.001 -0.4377 -1.2370 -1.9715
  221MOL    H9026930   5.644   2.078   1.804 -2.1735  0.6838 -1.8794
  221MOL    H9126931   5.614   2.238   1.764 -2.0242 -0.7942 -0.1377
  221MOL    C9226932   5.776   2.217   1.914  0.7284  0.1283  0.7999
  221MOL    C9326933   5.884   2.234   1.804 -0.1568 -0.2865 -0.2034
  221MOL    H9426934   5.750   2.309   1.967  3.4802  1.4035  0.0430
  221MOL    H9526935   5.802   2.143   1.989  0.9028  2.8296  3.4819
  221MOL    H9626936   5.878   2.140   1.749 -0.9771 -0.7779  0.7065
  221MOL    H9726937   5.847   2.313   1.740  0.3688 -0.8595 -1.2301
  221MOL    C9826938   6.017   2.280   1.866 -0.2114  0.1176  0.0558
  221MOL    C9926939   6.133   2.286   1.760  0.3907  0.1060  0.3974
  221MOL   H10026940   6.000   2.379   1.909 -0.7994 -0.1012  0.3277
  221MOL   H10126941   6.049   2.203   1.936 -1.1683 -0.0196  0.3468
  221MOL   H10226942   6.229   2.254   1.801  0.9756  2.5056  0.9948
  221MOL   H10326943   6.108   2.222   1.676 -0.2782  0.2747  0.4611
  221MOL   C10426944   6.172   2.428   1.703  0.6125 -0.0850 -0.2978
  221MOL   C10526945   6.228   2.426   1.561  0.1330 -0.2863  0.7355
  221MOL   H10626946   6.080   2.486   1.708 -1.1912 -2.8938  0.1376
  221MOL   H10726947   6.240   2.476   1.773  0.3474  1.5597 -1.1380
  221MOL   H10826948   6.289   2.336   1.555 -2.3922 -1.9674 -0.8269
  221MOL   H10926949   6.150   2.416   1.484 -0.0449  0.7745  0.7620
  221MOL   C11026950   6.329   2.541   1.538 -0.2395  0.1526 -0.1987
  221MOL   C11126951   6.392   2.538   1.397  0.3850  0.1880 -0.2852
  221MOL   H11226952   6.285   2.641   1.550  1.7711  0.9926  0.3754
  221MOL   H11326953   6.412   2.541   1.608  0.8991  0.0795 -1.5410
  221MOL   H11426954   6.467   2.459   1.387  1.0621  0.5479  1.7140
  221MOL   H11526955   6.310   2.513   1.329 -2.0804  0.0859  2.6085
  221MOL   C11626956   6.455   2.671   1.350 -0.3637  0.2969 -0.0375
  221MOL   C11726957   6.520   2.664   1.209  0.0830  0.2816 -0.2849
  221MOL   H11826958   6.380   2.751   1.351 -0.4510  0.2236 -0.5365
  221MOL   H11926959   6.523   2.709   1.426  0.3336  1.6309 -1.2887
  221MOL   H12026960   6.440   2.655   1.136 -0.6909 -0.1277  0.6015
  221MOL   H12126961   6.563   2.760   1.181 -2.1788  0.6608 -2.5691
  221MOL   H12226962   6.588   2.579   1.207 -3.2178 -2.5922  2.0962
  222MOL     C126963   6.304   1.307   6.213  0.2304 -0.2036  0.1467
  222MOL     C226964   6.163   1.315   6.266 -0.5350 -0.1499  0.4285
  222MOL     H326965   6.372   1.282   6.294  1.6186  1.8315 -0.3563
  222MOL     H426966   6.346   1.389   6.155  0.5521  1.1344  2.1935
  222MOL     H526967   6.152   1.394   6.341  1.4645 -0.3437  0.9690
  222MOL     H626968   6.105   1.354   6.183  0.7333 -1.7024 -1.2364
  222MOL     H726969   6.318   1.225   6.144  2.1824  1.2215 -1.1992
  222MOL     C826970   6.094   1.187   6.314 -0.9537  0.2850 -0.4114
  222MOL     C926971   6.170   1.115   6.426  0.8355  0.0084 -0.1105
  222MOL    H1026972   5.992   1.203   6.347 -0.7366 -0.5047  0.6555
  222MOL    H1126973   6.084   1.129   6.222 -3.1925 -0.2536  0.1594
  222MOL    H1226974   6.276   1.108   6.404  1.1900  3.7713  0.1187
  222MOL    H1326975   6.172   1.175   6.517  0.3818  0.6061 -0.4899
  222MOL    C1426976   6.106   0.977   6.459  0.7212  0.4413  0.3066
  222MOL    C1526977   6.146   0.883   6.352 -0.2156 -1.2598 -0.0417
  222MOL    H1626978   6.133   0.939   6.558  0.7306  1.3583  0.6629
  222MOL    H1726979   5.997   0.988   6.466  0.6478  0.9330 -1.4298
  222MOL    H1826980   6.132   0.929   6.255 -1.1365 -2.5573 -0.5387
  222MOL    H1926981   6.254   0.866   6.350  0.1152  0.8870 -1.4174
  222MOL    C2026982   6.080   0.744   6.352 -0.1120 -0.5989  0.7284
  222MOL    C2126983   6.044   0.684   6.205 -0.3967 -0.1454  0.5910
  222MOL    H2226984   6.153   0.683   6.405  1.6469  0.6955 -0.1513
  222MOL    H2326985   5.987   0.751   6.408  1.5106  1.0460  3.3246
  222MOL    H2426986   5.962   0.739   6.159 -1.6330 -1.1887  1.5198
  222MOL    H2526987   6.131   0.707   6.144 -0.6975 -0.7268 -0.0580
  222MOL    C2626988   6.013   0.533   6.212 -0.4370 -0.3812 -0.8003
  222MOL    C2726989   5.973   0.471   6.084 -0.1088  0.6697  0.3023
  222MOL    H2826990   6.095   0.477   6.259  1.7634  1.6474 -2.0904
  222MOL    H2926991   5.925   0.507   6.271 -0.4160 -3.0231 -1.8410
  222MOL    H3026992   5.890   0.528   6.043 -1.4031 -0.0883  1.8326
  222MOL    H3126993   6.051   0.479   6.008 -0.1618 -2.0436 -0.0881
  222MOL    C3226994   5.935   0.324   6.092 -0.0979 -1.0614 -0.2102
  222MOL    C3326995   5.902   0.273   5.949 -0.0242  0.4717 -0.2658
  222MOL    H3426996   6.025   0.276   6.129 -0.2360 -1.1045  0.0745
  222MOL    H3526997   5.847   0.298   6.152 -0.3663 -0.1668 -0.2095
  222MOL    H3626998   5.807   0.317   5.917 -1.4995 -2.8614 -0.7113
  222MOL    H3726999   5.981   0.305   5.881  0.9973  0.3899  0.8865
  222MOL    C3827000   5.869   0.122   5.942 -0.2227  0.1438 -0.3383
  222MOL    C3927001   5.831   0.083   5.797  0.0096 -0.1926 -0.8322
  222MOL    H4027002   5.947   0.067   5.995  0.3694  2.7330  1.5298
  222MOL    H4127003   5.791   0.102   6.016 -1.1950  2.2007 -0.7808
  222MOL    H4227004   5.753   0.153   5.770 -0.2348 -1.2442 -2.9344
  222MOL    H4327005   5.906   0.104   5.721  0.5488 -4.1401 -1.4844
  222MOL    C4427006   5.783   7.625   5.777 -0.8354 -0.3632  0.2983
  222MOL    C4527007   5.901   7.532   5.798  0.1164 -0.0265 -0.2406
  222MOL    H4627008   5.695   7.603   5.838  0.1718  0.5345  2.1488
  222MOL    H4727009   5.747   7.613   5.675  1.4344  1.2721 -0.7283
  222MOL    H4827010   5.967   7.529   5.711  1.4610  0.8021  0.7168
  222MOL    H4927011   5.949   7.563   5.891 -0.0481 -2.8207  0.8130
  222MOL    C5027012   5.854   7.380   5.828 -0.3655 -0.5077  0.4057
  222MOL    C5127013   5.820   7.369   5.982 -0.2982 -0.3217 -0.3695
  222MOL    H5227014   5.764   7.361   5.769 -0.7885  1.8768  0.2069
  222MOL    H5327015   5.928   7.303   5.810 -1.6637 -1.3336 -1.5188
  222MOL    H5427016   5.909   7.399   6.038 -1.3395 -0.0292  1.1598
  222MOL    H5527017   5.737   7.433   6.014 -0.4438 -1.0510  0.7157
  222MOL    C5627018   5.789   7.234   6.030 -0.1300  1.3064 -0.1849
  222MOL    C5727019   5.708   7.228   6.161 -0.4572  0.2340  0.4532
  222MOL    H5827020   5.730   7.182   5.954  0.6870 -0.6369  0.4864
  222MOL    H5927021   5.888   7.189   6.036 -0.2855  1.1748  1.8592
  222MOL    H6027022   5.766   7.273   6.242 -1.2500  0.0091  1.1514
  222MOL    H6127023   5.617   7.286   6.149 -0.0239  0.4760 -1.9635
  222MOL    C6227024   5.676   7.077   6.218  0.1537 -0.0072 -0.0433
  222MOL    C6327025   5.597   6.989   6.111 -0.2537 -0.5803 -0.5592
  222MOL    H6427026   5.761   7.015   6.246  1.0520  0.6687 -1.2345
  222MOL    H6527027   5.627   7.098   6.313  2.1065  0.8519  0.8220
  222MOL    H6627028   5.507   7.049   6.098 -0.9125 -1.1663  1.1959
  222MOL    H6727029   5.648   7.001   6.015 -1.8197 -1.6428 -1.5451
  222MOL    C6827030   5.568   6.840   6.122 -0.1112 -0.0189  0.3818
  222MOL    C6927031   5.539   6.782   5.984  0.1791 -1.0378  0.0042
  222MOL    H7027032   5.647   6.780   6.167 -1.1688  0.0643  2.3842
  222MOL    H7127033   5.477   6.828   6.181 -0.6946  0.4612 -0.4082
  222MOL    H7227034   5.461   6.837   5.932  0.2666 -0.2440  0.7015
  222MOL    H7327035   5.630   6.787   5.924 -0.5048 -2.1537 -1.1357
  222MOL    C7427036   5.500   6.635   6.000  0.3464 -1.0517  0.0143
  222MOL    C7527037   5.455   6.584   5.865 -0.1735  0.5335  0.3363
  222MOL    H7627038   5.590   6.579   6.026 -1.1279 -3.6230 -0.2579
  222MOL    H7727039   5.425   6.601   6.073  1.5623 -1.6302  1.0102
  222MOL    H7827040   5.360   6.631   5.839 -0.6403  0.1023  1.2702
  222MOL    H7927041   5.534   6.606   5.792 -2.4115  0.1235 -2.3098
  222MOL    C8027042   5.443   6.427   5.862  0.0676 -0.0248 -1.0257
  222MOL    C8127043   5.399   6.364   5.719 -0.1600  0.0292  0.4491
  222MOL    H8227044   5.540   6.392   5.899 -0.8200 -0.5890  0.8401
  222MOL    H8327045   5.371   6.401   5.939  1.4399 -2.6912 -0.5935
  222MOL    H8427046   5.306   6.399   5.675  1.1463  1.0172 -1.6117
  222MOL    H8527047   5.472   6.384   5.640  0.1056  3.6375  1.5425
  222MOL    C8627048   5.390   6.210   5.725  0.2133  0.5333  0.5428
  222MOL    C8727049   5.357   6.140   5.591  0.3415  0.4059  0.2124
  222MOL    H8827050   5.479   6.168   5.772  1.5298  1.1306 -1.3800
  222MOL    H8927051   5.313   6.190   5.800  0.6011  0.3708  0.9007
  222MOL    H9027052   5.280   6.198   5.539 -0.5845 -2.1041 -1.2742
  222MOL    H9127053   5.441   6.154   5.523  0.9798 -0.6727  0.7735
  222MOL    C9227054   5.313   5.992   5.600 -0.7578 -0.0531  0.1242
  222MOL    C9327055   5.284   5.936   5.459  0.0034  0.5685 -0.4143
  222MOL    H9427056   5.389   5.930   5.647 -0.9134  1.8052  3.0028
  222MOL    H9527057   5.217   5.986   5.652 -0.0578  1.4397  1.6566
  222MOL    H9627058   5.206   5.989   5.403 -0.9071  0.7069  0.9703
  222MOL    H9727059   5.369   5.949   5.391  1.2933  1.1558  1.2823
  222MOL    C9827060   5.247   5.784   5.455 -0.0597 -0.4217 -0.0927
  222MOL    C9927061   5.228   5.741   5.305 -0.3922  0.1556 -0.4471
  222MOL   H10027062   5.320   5.714   5.496 -0.8530 -0.6537  0.9732
  222MOL   H10127063   5.153   5.772   5.509  0.4820  0.1676  0.9948
  222MOL   H10227064   5.159   5.805   5.250  0.1282  0.5032 -0.7020
  222MOL   H10327065   5.314   5.740   5.237  0.7535  0.6002  0.9784
  222MOL   C10427066   5.157   5.603   5.294 -0.0498 -0.0353 -0.0770
  222MOL   C10527067   5.149   5.547   5.148  0.0878  0.6510 -0.4076
  222MOL   H10627068   5.187   5.524   5.363  0.2308 -0.2346 -0.4281
  222MOL   H10727069   5.055   5.628   5.324  0.9939  2.1221  1.8967
  222MOL   H10827070   5.068   5.592   5.090 -1.9789 -0.0703  1.8261
  222MOL   H10927071   5.243   5.552   5.094  0.0323 -0.2161 -0.5866
  222MOL   C11027072   5.118   5.399   5.148 -0.2140  0.0599  0.4699
  222MOL   C11127073   5.136   5.339   5.007 -0.2618  0.0391  0.5760
  222MOL   H11227074   5.188   5.341   5.208  0.3104  1.2126  0.9885
  222MOL   H11327075   5.019   5.384   5.193  0.2030  0.7812  1.6428
  222MOL   H11427076   5.085   5.403   4.935  0.6099  2.2663  1.8817
  222MOL   H11527077   5.238   5.329   4.970 -0.0464  0.3425  1.0876
  222MOL   C11627078   5.077   5.199   4.990  0.2787 -0.1053  0.3862
  222MOL   C11727079   5.050   5.148   4.854 -0.4909  0.2510  0.3740
  222MOL   H11827080   5.146   5.131   5.039  0.9388  0.4191  0.1867
  222MOL   H11927081   4.987   5.196   5.050 -0.1297  0.5166 -0.1827
  222MOL   H12027082   4.980   5.207   4.795  0.2690 -0.1769 -0.9905
  222MOL   H12127083   5.140   5.140   4.792 -0.5589  1.1327  0.1501
  222MOL   H12227084   5.006   5.048   4.852 -0.6062  0.2516  2.1499
  223MOL     C127085   7.253   6.109   5.600 -0.2726  0.4834 -0.6976
  223MOL     C227086   7.349   6.151   5.716 -0.2575 -0.5953  0.0080
  223MOL     H327087   7.146   6.116   5.622 -0.4715 -0.5836 -1.2864
  223MOL     H427088   7.257   6.010   5.554 -0.2168 -1.6071  3.5743
  223MOL     H527089   7.312   6.237   5.772  0.9281 -0.3361  0.4139
  223MOL     H627090   7.356   6.068   5.786  0.6676 -0.8779 -0.4231
  223MOL     H727091   7.262   6.179   5.518 -2.7523  1.2405 -0.3672
  223MOL     C827092   7.491   6.180   5.669 -0.0145  0.0770 -0.0690
  223MOL     C927093   7.584   6.237   5.777 -0.7751 -0.7162  0.4884
  223MOL    H1027094   7.543   6.087   5.646  3.9798  2.1705  0.1314
  223MOL    H1127095   7.491   6.243   5.579 -1.6483  0.4278  0.1546
  223MOL    H1227096   7.556   6.336   5.813  3.5117  0.9424 -0.4283
  223MOL    H1327097   7.572   6.162   5.855 -4.4065 -0.3073  0.3860
  223MOL    C1427098   0.037   6.256   5.729 -0.2968 -0.1380  0.0816
  223MOL    C1527099   0.129   6.312   5.840  0.2866  0.3074 -0.8415
  223MOL    H1627100   0.094   6.174   5.686  0.6984  0.2410  0.6576
  223MOL    H1727101   0.029   6.329   5.649 -0.3495 -1.4802 -1.1712
  223MOL    H1827102   0.085   6.400   5.885 -0.8940 -1.1764  0.9868
  223MOL    H1927103   0.108   6.234   5.913  1.2253  0.8844  0.0561
  223MOL    C2027104   0.277   6.337   5.796  0.5593 -0.3134  0.2963
  223MOL    C2127105   0.372   6.376   5.911  0.4172  1.3222  0.3104
  223MOL    H2227106   0.323   6.267   5.727  0.5267  0.5322 -0.5842
  223MOL    H2327107   0.263   6.417   5.724 -1.2694 -0.0592  0.9051
  223MOL    H2427108   0.324   6.458   5.963 -1.2457  0.1017  0.7451
  223MOL    H2527109   0.358   6.286   5.971  0.0315  0.1650 -1.5028
  223MOL    C2627110   0.517   6.393   5.882  0.4692 -0.4775 -0.8144
  223MOL    C2727111   0.605   6.432   6.006 -0.0367 -0.3215  0.0034
  223MOL    H2827112   0.558   6.304   5.836 -0.6619 -0.4643 -1.8718
  223MOL    H2927113   0.516   6.477   5.812  0.6470  1.4186  1.3643
  223MOL    H3027114   0.559   6.509   6.067 -2.9887  0.1997 -2.7436
  223MOL    H3127115   0.606   6.350   6.077 -1.0000  0.6201  1.1200
  223MOL    C3227116   0.749   6.469   5.968  0.5049 -0.0691 -0.1510
  223MOL    C3327117   0.836   6.511   6.089 -0.3595  0.4279 -0.3997
  223MOL    H3427118   0.788   6.378   5.922  2.6778 -0.3923  2.2773
  223MOL    H3527119   0.750   6.547   5.891  0.7902 -0.3845 -0.4696
  223MOL    H3627120   0.786   6.596   6.136 -0.8469 -1.1702  2.1010
  223MOL    H3727121   0.835   6.433   6.166  1.3545  0.1451 -0.6530
  223MOL    C3827122   0.983   6.536   6.062  0.1205  0.0923 -0.4375
  223MOL    C3927123   1.053   6.584   6.193  0.0591  0.1960  0.3256
  223MOL    H4027124   1.045   6.456   6.023 -1.3062 -1.2413 -0.0373
  223MOL    H4127125   0.989   6.623   5.996 -2.3985  0.5205 -0.1583
  223MOL    H4227126   0.982   6.659   6.230 -0.7590 -0.3915 -0.0198
  223MOL    H4327127   1.070   6.504   6.264  3.7565  0.9839  0.4017
  223MOL    C4427128   1.193   6.651   6.170  0.6344 -0.0250  0.6031
  223MOL    C4527129   1.250   6.719   6.299 -0.3337 -0.4231  0.4504
  223MOL    H4627130   1.266   6.579   6.132  0.4692 -0.3864  0.9700
  223MOL    H4727131   1.181   6.736   6.102  0.3059 -0.2789  0.3421
  223MOL    H4827132   1.184   6.802   6.325  1.0136  1.1336 -0.9595
  223MOL    H4927133   1.241   6.638   6.371  1.2869  0.3354  1.5293
  223MOL    C5027134   1.385   6.779   6.295 -0.0407 -0.4902  0.4198
  223MOL    C5127135   1.428   6.862   6.418  0.6567 -0.3354 -0.0167
  223MOL    H5227136   1.459   6.699   6.288  1.1944  0.8661 -2.8460
  223MOL    H5327137   1.394   6.836   6.203  0.0510 -0.1226  0.6545
  223MOL    H5427138   1.360   6.945   6.435 -0.5164 -1.0450 -1.1315
  223MOL    H5527139   1.414   6.796   6.503  0.4030  0.1626  0.3291
  223MOL    C5627140   1.578   6.909   6.419 -0.3161 -0.6390 -0.3239
  223MOL    C5727141   1.609   6.982   6.551 -0.4807 -0.3186  0.1021
  223MOL    H5827142   1.643   6.822   6.411 -0.7298 -0.9183 -0.6692
  223MOL    H5927143   1.597   6.975   6.334  1.0502 -1.1427 -0.4220
  223MOL    H6027144   1.531   7.053   6.581 -0.5283 -0.1137 -0.4928
  223MOL    H6127145   1.609   6.914   6.635 -1.6017  0.5163  0.8035
  223MOL    C6227146   1.739   7.058   6.529 -1.0287  0.5252 -0.7033
  223MOL    C6327147   1.799   7.102   6.659 -0.3503 -1.1627 -0.6452
  223MOL    H6427148   1.823   6.997   6.494 -0.1422  0.3566  1.6327
  223MOL    H6527149   1.721   7.137   6.457  1.1899  0.5721 -1.2653
  223MOL    H6627150   1.718   7.161   6.702  0.4114 -1.2825  0.9816
  223MOL    H6727151   1.837   7.024   6.726 -2.3105  1.1788  3.3441
  223MOL    C6827152   1.903   7.210   6.635 -0.0679 -0.6528 -0.3819
  223MOL    C6927153   1.931   7.298   6.763 -0.7091  0.1803  0.5453
  223MOL    H7027154   1.993   7.161   6.597  1.1961 -0.2294  1.9600
  223MOL    H7127155   1.875   7.274   6.552 -1.2026  0.7233  1.0379
  223MOL    H7227156   2.004   7.373   6.733 -0.5826 -0.2843 -0.3242
  223MOL    H7327157   1.845   7.357   6.794  0.0674  0.7431  1.6568
  223MOL    C7427158   1.964   7.220   6.891 -0.6423 -0.0674  0.8245
  223MOL    C7527159   2.035   7.304   7.001  0.2886 -0.6425  0.0333
  223MOL    H7627160   1.871   7.170   6.919 -1.6842 -0.1522 -2.5604
  223MOL    H7727161   2.033   7.139   6.867  0.1293  0.3799  1.4926
  223MOL    H7827162   2.114   7.372   6.969  0.1544 -0.6111 -0.2267
  223MOL    H7927163   1.966   7.383   7.028  0.6285 -0.6314  0.8914
  223MOL    C8027164   2.076   7.233   7.133 -0.9047  0.2174 -0.3381
  223MOL    C8127165   2.111   7.330   7.249  0.6306 -0.0078 -0.1054
  223MOL    H8227166   2.002   7.164   7.173  1.3306 -1.9546  0.2040
  223MOL    H8327167   2.161   7.169   7.109 -0.1022  1.0951  0.0939
  223MOL    H8427168   2.194   7.397   7.226  0.9067  0.1323  1.2291
  223MOL    H8527169   2.026   7.397   7.262 -0.1253 -1.2208  1.3135
  223MOL    C8627170   2.159   7.255   7.379 -0.1338 -0.1195  0.1194
  223MOL    C8727171   2.219   7.351   7.485 -0.2591  0.2292 -0.0833
  223MOL    H8827172   2.077   7.196   7.419  1.1446 -2.6788 -0.9015
  223MOL    H8927173   2.238   7.182   7.364 -0.1401 -0.1356  0.1674
  223MOL    H9027174   2.304   7.404   7.440  1.7130 -2.8598 -0.1120
  223MOL    H9127175   2.148   7.429   7.511 -0.4675  0.2074 -0.5764
  223MOL    C9227176   2.254   7.284   7.619 -0.1152  0.1883 -0.4055
  223MOL    C9327177   2.288   7.389   0.033  0.2661  0.3589 -0.5863
  223MOL    H9427178   2.169   7.217   7.632  0.1593  0.0084  0.4968
  223MOL    H9527179   2.338   7.214   7.616  1.2355  1.7600  0.1163
  223MOL    H9627180   2.373   7.451   0.004 -0.3689  0.7442 -1.6497
  223MOL    H9727181   2.199   7.451   0.030  0.4751  0.6633 -0.5394
  223MOL    C9827182   2.303   7.339   0.180  0.3292 -0.2351  0.5209
  223MOL    C9927183   2.308   7.457   0.279  0.1091 -0.3338  0.5006
  223MOL   H10027184   2.224   7.268   0.206 -0.3856 -0.0399 -1.0800
  223MOL   H10127185   2.391   7.276   0.187 -0.4362 -1.4282 -0.2589
  223MOL   H10227186   2.377   7.533   0.243 -0.4061  0.4396  1.1405
  223MOL   H10327187   2.210   7.501   0.295 -0.3688 -0.9514 -0.6780
  223MOL   C10427188   2.360   7.406   0.409 -0.4325 -1.1542 -0.0781
  223MOL   C10527189   2.377   7.522   0.505  0.2615  0.2231  0.5475
  223MOL   H10627190   2.294   7.332   0.456 -1.8518 -0.8749 -1.5781
  223MOL   H10727191   2.449   7.352   0.378  0.7981  0.9367 -0.2684
  223MOL   H10827192   2.441   7.597   0.459  0.2362  1.0442  1.8010
  223MOL   H10927193   2.282   7.569   0.530 -0.5048 -0.7000 -0.5672
  223MOL   C11027194   2.436   7.477   0.635 -0.5496  0.8536 -0.0583
  223MOL   C11127195   2.481   7.583   0.740 -0.1240  1.0529 -0.3246
  223MOL   H11227196   2.360   7.412   0.678  0.2631 -0.3533 -0.4073
  223MOL   H11327197   2.517   7.408   0.611  1.2910  3.0767 -0.4281
  223MOL   H11427198   2.545   7.652   0.687  4.1666 -1.5180  1.2730
  223MOL   H11527199   2.394   7.636   0.778 -2.0033 -3.1841  1.7317
  223MOL   C11627200   2.568   7.526   0.850 -0.1472 -0.0199  0.1174
  223MOL   C11727201   2.599   7.625   0.964 -1.0344 -0.5658 -0.0990
  223MOL   H11827202   2.525   7.438   0.898 -1.5277  1.4284  1.5891
  223MOL   H11927203   2.660   7.500   0.798  0.3649 -0.7554  1.3842
  223MOL   H12027204   2.511   7.665   1.014  0.6272  1.1324  1.5575
  223MOL   H12127205   2.664   7.574   1.034 -0.3390 -1.8818 -1.6717
  223MOL   H12227206   2.650   0.019   0.919  0.6140 -0.7767  1.3010
  224MOL     C127207   7.383   1.446   0.788 -0.6001  0.0698 -0.2367
  224MOL     C227208   7.455   1.390   0.912 -1.1706  0.2064 -0.2833
  224MOL     H327209   7.429   1.532   0.740 -1.1865  0.0466 -0.8566
  224MOL     H427210   7.277   1.472   0.792 -0.9286 -0.9446 -1.6082
  224MOL     H527211   7.560   1.381   0.884 -1.5988 -0.8904 -1.5967
  224MOL     H627212   7.447   1.461   0.994  0.3072  0.1840 -0.1119
  224MOL     H727213   7.391   1.362   0.718  0.3527  0.0401 -0.0908
  224MOL     C827214   7.387   1.259   0.967  0.2832 -0.9208  0.1580
  224MOL     C927215   7.468   1.203   1.082 -0.3367  0.0717  0.0562
  224MOL    H1027216   7.294   1.287   1.018  0.4596  0.3906 -0.2153
  224MOL    H1127217   7.380   1.183   0.890  1.0025  0.6563 -1.4950
  224MOL    H1227218   7.547   1.141   1.039 -1.2974 -1.0558 -0.1053
  224MOL    H1327219   7.523   1.278   1.138 -0.2305  1.6442 -2.1268
  224MOL    C1427220   7.383   1.099   1.158  0.0457  0.5132 -0.0543
  224MOL    C1527221   7.449   1.000   1.254  0.0297  0.4449  0.6946
  224MOL    H1627222   7.312   1.163   1.211 -0.1992 -0.0421  0.2972
  224MOL    H1727223   7.327   1.035   1.089  0.8832  0.8263 -1.0314
  224MOL    H1827224   7.517   0.936   1.196 -0.9080  1.5503 -1.6962
  224MOL    H1927225   7.502   1.045   1.338  2.2683  0.7000 -0.7962
  224MOL    C2027226   7.335   0.905   1.307  0.0782  0.0109  0.0262
  224MOL    C2127227   7.384   0.819   1.426 -0.0140  0.0145 -0.1650
  224MOL    H2227228   7.247   0.959   1.344 -0.2471 -0.8878  0.5928
  224MOL    H2327229   7.286   0.844   1.232  2.5035 -0.1362 -1.4672
  224MOL    H2427230   7.396   0.717   1.391 -0.1423 -0.1903  0.3825
  224MOL    H2527231   7.486   0.846   1.454  0.4031 -2.0065  0.3350
  224MOL    C2627232   7.283   0.811   1.548 -1.0913 -0.1980 -0.5487
  224MOL    C2727233   7.344   0.754   1.669 -0.2349  0.3917 -0.7396
  224MOL    H2827234   7.238   0.908   1.566  2.0830  1.1444  0.5775
  224MOL    H2927235   7.204   0.747   1.509 -0.5798 -1.0073 -0.2779
  224MOL    H3027236   7.401   0.666   1.641  0.4844  0.4436  0.5047
  224MOL    H3127237   7.428   0.816   1.701 -0.6299 -0.0555  1.2630
  224MOL    C3227238   7.243   0.717   1.786  0.2488  0.1875  0.1037
  224MOL    C3327239   7.322   0.685   1.914  0.0693 -0.2396 -0.0476
  224MOL    H3427240   7.167   0.795   1.796  0.7690  0.6029  0.9570
  224MOL    H3527241   7.188   0.628   1.757 -0.7814  0.8865 -0.1127
  224MOL    H3627242   7.269   0.620   1.983 -1.1323 -0.7066 -1.3861
  224MOL    H3727243   7.403   0.625   1.871 -1.4629 -0.6729 -2.4460
  224MOL    C3827244   7.384   0.805   1.984  0.3428  0.1714 -0.0367
  224MOL    C3927245   7.430   0.772   2.124 -0.1278  0.3468  0.0345
  224MOL    H4027246   7.454   0.855   1.918  1.3960 -1.4654 -0.2032
  224MOL    H4127247   7.300   0.873   1.992  0.0420 -0.2725  0.7477
  224MOL    H4227248   7.446   0.871   2.167  1.7848 -0.3295  0.9532
  224MOL    H4327249   7.351   0.719   2.178 -0.8351 -1.2882 -2.5110
  224MOL    C4427250   7.564   0.696   2.128  0.0753 -0.0890  0.7995
  224MOL    C4527251   7.617   0.664   2.264  0.6214  0.6373 -1.0215
  224MOL    H4627252   7.545   0.600   2.080  2.4661 -1.2801  2.0870
  224MOL    H4727253   7.641   0.750   2.072 -0.7749  0.1679 -0.1290
  224MOL    H4827254   7.533   0.624   2.321  1.1050  0.1559 -0.6433
  224MOL    H4927255   0.008   0.593   2.257 -1.3391 -1.6657 -1.7528
  224MOL    C5027256   7.644   0.783   2.359  0.3492 -0.3030 -0.5420
  224MOL    C5127257   7.682   0.738   2.498  0.1857  0.2421 -0.1261
  224MOL    H5227258   0.041   0.831   2.320  0.3712 -0.4205 -0.6379
  224MOL    H5327259   7.558   0.850   2.360  0.9105  0.4327 -1.4325
  224MOL    H5427260   7.594   0.686   2.536  0.8394 -2.3403 -2.0074
  224MOL    H5527261   0.073   0.669   2.480  1.2624  1.2384  0.8971
  224MOL    C5627262   0.030   0.850   2.605 -0.0634  0.3937 -0.4713
  224MOL    C5727263   0.063   0.797   2.747  0.7924  0.3149  0.0969
  224MOL    H5827264   0.120   0.894   2.560  0.2467  1.0104  0.7202
  224MOL    H5927265   7.655   0.936   2.606  0.5774  0.9236 -2.0321
  224MOL    H6027266   0.086   0.876   2.818  2.6364  0.1218 -0.2570
  224MOL    H6127267   7.668   0.740   2.781  1.4086 -0.5204  0.2793
  224MOL    C6227268   0.179   0.701   2.734 -0.1837  0.3331  0.3313
  224MOL    C6327269   0.214   0.637   2.872  0.1155 -0.1459  0.3029
  224MOL    H6427270   0.151   0.629   2.657  2.0111 -0.1877 -0.0134
  224MOL    H6527271   0.262   0.758   2.691  0.0437 -0.1631  0.1026
  224MOL    H6627272   0.189   0.713   2.946  1.6652  0.5161  0.1681
  224MOL    H6727273   0.143   0.557   2.895 -2.0679  0.4507 -3.9131
  224MOL    C6827274   0.357   0.600   2.890 -0.2344 -0.1295  0.2508
  224MOL    C6927275   0.397   0.542   3.030  1.2766 -0.0651  0.2698
  224MOL    H7027276   0.385   0.542   2.802 -0.6778  1.1714 -0.7571
  224MOL    H7127277   0.418   0.690   2.885  1.5122 -1.2570  0.7523
  224MOL    H7227278   0.386   0.625   3.099 -0.2236  0.2809 -0.3517
  224MOL    H7327279   0.330   0.469   3.073  1.2785 -0.2847 -0.0971
  224MOL    C7427280   0.544   0.490   3.017 -0.2057  0.1609  0.0011
  224MOL    C7527281   0.595   0.437   3.155  0.4773  0.3442 -0.0223
  224MOL    H7627282   0.543   0.411   2.943  1.2795  0.5794 -0.4905
  224MOL    H7727283   0.609   0.570   2.981 -0.6177 -0.8425 -3.1214
  224MOL    H7827284   0.609   0.527   3.216 -2.6331 -0.2104  1.6372
  224MOL    H7927285   0.523   0.373   3.206 -0.3005  0.3567 -1.0967
  224MOL    C8027286   0.736   0.378   3.137 -0.5027 -0.0428 -0.0486
  224MOL    C8127287   0.808   0.334   3.265 -0.0886  0.3040  0.3421
  224MOL    H8227288   0.739   0.291   3.071 -1.7599 -1.4837  1.7300
  224MOL    H8327289   0.793   0.457   3.090  1.0678 -0.1438  1.6191
  224MOL    H8427290   0.779   0.391   3.354 -1.3209 -0.3444  0.3668
  224MOL    H8527291   0.760   0.241   3.295 -0.1163  0.4382  0.7238
  224MOL    C8627292   0.956   0.331   3.257 -0.3362 -0.8764 -0.2829
  224MOL    C8727293   1.017   0.324   3.395 -0.4233  0.4959  0.2109
  224MOL    H8827294   0.994   0.251   3.193  0.3225 -1.4777  0.8537
  224MOL    H8927295   0.979   0.420   3.197  0.4215 -0.3968  0.7101
  224MOL    H9027296   0.977   0.402   3.460 -1.5431  0.9645 -0.9986
  224MOL    H9127297   0.993   0.226   3.435  0.5475  0.8532  1.6752
  224MOL    C9227298   1.168   0.344   3.377  0.3682 -0.4561  0.4053
  224MOL    C9327299   1.268   0.296   3.489 -0.1048  0.3891 -0.4132
  224MOL    H9427300   1.200   0.289   3.288 -1.8230 -1.0915 -0.0125
  224MOL    H9527301   1.196   0.443   3.341 -1.4235  0.6259  1.9099
  224MOL    H9627302   1.268   0.376   3.564 -2.3096  1.0479 -1.0908
  224MOL    H9727303   1.222   0.214   3.542  1.0401 -0.4381 -0.6761
  224MOL    C9827304   1.405   0.278   3.434  0.1272  0.4620 -0.1975
  224MOL    C9927305   1.497   0.238   3.550 -0.3904 -0.5890 -0.4459
  224MOL   H10027306   1.392   0.199   3.360 -0.0688  0.3317 -0.0248
  224MOL   H10127307   1.440   0.366   3.380  2.1224 -1.1744 -1.6440
  224MOL   H10227308   1.475   0.310   3.629  2.8168  2.9787 -2.5919
  224MOL   H10327309   1.461   0.143   3.589 -2.3866  0.2493 -0.1740
  224MOL   C10427310   1.644   0.226   3.512 -0.1995 -0.1234  0.0339
  224MOL   C10527311   1.740   0.166   3.623  0.9539  0.1914  0.4025
  224MOL   H10627312   1.643   0.171   3.418 -1.2145  0.2849 -0.1970
  224MOL   H10727313   1.672   0.325   3.475  0.3636 -0.5211 -0.6056
  224MOL   H10827314   1.695   0.195   3.718  0.5546  2.0359 -0.3236
  224MOL   H10927315   1.727   0.058   3.624 -2.4373  0.4895 -2.1061
  224MOL   C11027316   1.883   0.209   3.630 -0.4503  0.5066 -0.5580
  224MOL   C11127317   1.962   0.142   3.745 -0.2026  0.5904  0.4104
  224MOL   H11227318   1.926   0.192   3.531 -0.3420 -1.4741 -0.1768
  224MOL   H11327319   1.891   0.317   3.646 -3.4892  0.5913  0.6044
  224MOL   H11427320   1.899   0.135   3.833 -0.4115 -0.0892  0.2146
  224MOL   H11527321   1.975   0.039   3.710 -0.8502  1.0194 -1.1574
  224MOL   C11627322   2.094   0.211   3.781  0.7316 -0.6387  0.4509
  224MOL   C11727323   2.148   0.160   3.913 -0.5313 -0.4403  0.3699
  224MOL   H11827324   2.160   0.184   3.699 -0.7518 -0.7453 -0.7433
  224MOL   H11927325   2.075   0.318   3.783 -1.3301 -0.9947  1.9822
  224MOL   H12027326   2.240   0.206   3.949  0.1570  0.3800 -2.3652
  224MOL   H12127327   2.076   0.174   3.994 -1.4304 -0.3575 -0.4399
  224MOL   H12227328   2.174   0.055   3.900 -2.7565 -1.0633  0.6776
  225MOL     C127329   6.317   6.517   5.988  0.0705  0.1717 -0.0580
  225MOL     C227330   6.446   6.597   6.013  0.1246  0.8276 -0.0237
  225MOL     H327331   6.342   6.414   5.962  1.7273 -0.0658  2.2769
  225MOL     H427332   6.246   6.555   5.915 -1.4304  0.8432  1.6906
  225MOL     H527333   6.499   6.538   6.088  1.0122 -0.4781 -1.6559
  225MOL     H627334   6.504   6.580   5.923 -2.5394 -3.0833 -1.1557
  225MOL     H727335   6.260   6.520   6.081 -0.8478 -2.5691 -0.4900
  225MOL     C827336   6.416   6.748   6.036 -0.1462 -0.0592  0.6521
  225MOL     C927337   6.543   6.835   6.031  0.2215 -0.3795 -0.0882
  225MOL    H1027338   6.354   6.790   5.958  1.4715  2.5294  0.6960
  225MOL    H1127339   6.362   6.772   6.127 -0.4672 -1.0742  0.7428
  225MOL    H1227340   6.519   6.938   6.060 -0.3006 -0.7266  0.7179
  225MOL    H1327341   6.616   6.812   6.109 -0.9195 -0.0540  1.0903
  225MOL    C1427342   6.614   6.841   5.894  0.7433  0.2614 -0.2669
  225MOL    C1527343   6.688   6.970   5.863  0.4911  0.7449  1.2461
  225MOL    H1627344   6.689   6.763   5.902  0.2349 -0.2858 -0.7315
  225MOL    H1727345   6.535   6.819   5.821 -0.6525  3.5332  0.1829
  225MOL    H1827346   6.609   7.041   5.839 -1.7568 -2.1204 -0.0928
  225MOL    H1927347   6.741   7.001   5.954 -2.2170  1.3407  2.6585
  225MOL    C2027348   6.771   6.955   5.738  0.8498  0.2366  0.2975
  225MOL    C2127349   6.698   6.899   5.612 -0.2592  0.9731 -0.0745
  225MOL    H2227350   6.821   7.050   5.719 -1.4588  1.1581 -1.4352
  225MOL    H2327351   6.851   6.892   5.777  0.0681 -0.5966  0.5733
  225MOL    H2427352   6.637   6.810   5.626  1.1176  0.0780  0.3137
  225MOL    H2527353   6.618   6.972   5.600 -0.0229  1.1118 -0.8106
  225MOL    C2627354   6.793   6.899   5.486 -0.7580 -0.1295 -0.9113
  225MOL    C2727355   6.711   6.856   5.362 -0.5292  0.8751  0.2024
  225MOL    H2827356   6.836   6.999   5.477 -2.0053  0.8554  2.8588
  225MOL    H2927357   6.877   6.834   5.508  0.5095  1.8298  0.2663
  225MOL    H3027358   6.668   6.757   5.376 -1.1021  0.6799 -2.6946
  225MOL    H3127359   6.632   6.931   5.354 -1.6332 -0.0211  2.3843
  225MOL    C3227360   6.807   6.854   5.242 -0.4993  0.7406 -0.1864
  225MOL    C3327361   6.730   6.799   5.126  0.4359 -0.3246 -0.2436
  225MOL    H3427362   6.862   6.945   5.218  2.1681 -1.0859 -1.1117
  225MOL    H3527363   6.882   6.780   5.267 -1.3767  0.7233  2.4741
  225MOL    H3627364   6.685   6.706   5.163 -0.3068  0.7555  1.6446
  225MOL    H3727365   6.653   6.871   5.097 -0.2889 -0.6154  0.9218
  225MOL    C3827366   6.828   6.780   5.008  0.5130 -0.6656  0.0647
  225MOL    C3927367   6.741   6.760   4.882  0.4195  0.3714  0.8017
  225MOL    H4027368   6.890   6.870   5.002 -1.5570  0.8143  0.3343
  225MOL    H4127369   6.885   6.690   5.027 -1.3716 -1.3977  2.6011
  225MOL    H4227370   6.668   6.681   4.898  0.7660  0.2127  1.6347
  225MOL    H4327371   6.679   6.847   4.858 -0.9116 -0.9972 -0.8278
  225MOL    C4427372   6.822   6.729   4.754  0.1346  0.4793  0.1855
  225MOL    C4527373   6.734   6.670   4.634 -0.4656  0.4249  0.7586
  225MOL    H4627374   6.887   6.810   4.719 -0.5776  1.8001  1.8534
  225MOL    H4727375   6.887   6.649   4.788  0.6161 -0.4273 -2.7266
  225MOL    H4827376   6.657   6.604   4.672 -0.0765  0.3222  1.3718
  225MOL    H4927377   6.686   6.751   4.579  0.3780  0.7122  0.4349
  225MOL    C5027378   6.824   6.588   4.530  0.1001 -0.4884  0.3057
  225MOL    C5127379   6.737   6.542   4.413  0.0554 -0.1585  0.2841
  225MOL    H5227380   6.908   6.646   4.491 -1.3795  1.1373 -0.5522
  225MOL    H5327381   6.862   6.502   4.584 -2.3179 -1.4307  0.5828
  225MOL    H5427382   6.796   6.479   4.346 -0.6446  1.4433 -1.8952
  225MOL    H5527383   6.654   6.482   4.453 -0.5665  0.2957 -0.3134
  225MOL    C5627384   6.668   6.654   4.338 -1.0015  0.4625  0.2419
  225MOL    C5727385   6.773   6.765   4.300  0.0723  0.4520  0.6471
  225MOL    H5827386   6.637   6.605   4.246  0.2718  1.4252 -0.7031
  225MOL    H5927387   6.582   6.691   4.396 -0.9684  1.7148 -0.4906
  225MOL    H6027388   6.804   6.822   4.388  1.3625  0.8640 -0.0639
  225MOL    H6127389   6.862   6.711   4.269  1.1229  2.5700 -0.1325
  225MOL    C6227390   6.727   6.857   4.183  0.0945 -0.3869 -0.0875
  225MOL    C6327391   6.671   6.986   4.226 -0.0425 -0.4502  0.3476
  225MOL    H6427392   6.814   6.871   4.119  0.3502 -2.1339 -0.1474
  225MOL    H6527393   6.654   6.826   4.108 -0.1407  1.1512 -0.5184
  225MOL    H6627394   6.587   6.971   4.294  0.2980  0.0776  0.8979
  225MOL    H6727395   6.744   7.041   4.286  2.0891 -1.5317 -1.1724
  225MOL    C6827396   6.635   7.077   4.101 -0.7301  0.5219 -0.0285
  225MOL    C6927397   6.638   7.224   4.140  0.5237  0.5168  0.3500
  225MOL    H7027398   6.705   7.057   4.020  1.9552  0.7162  2.1444
  225MOL    H7127399   6.542   7.037   4.061 -1.7130  0.2387  2.4160
  225MOL    H7227400   6.556   7.242   4.210 -0.2234 -0.0438 -0.3552
  225MOL    H7327401   6.731   7.243   4.192  0.6275  0.6841  0.1048
  225MOL    C7427402   6.619   7.319   4.017  0.9382 -0.4020 -0.9391
  225MOL    C7527403   6.641   7.466   4.078 -0.2348  0.2967  1.1709
  225MOL    H7627404   6.685   7.293   3.933 -0.7427 -1.9947 -1.7850
  225MOL    H7727405   6.515   7.305   3.989  1.3748 -0.0505 -2.8758
  225MOL    H7827406   6.573   7.475   4.163 -2.9475 -1.6837 -0.7224
  225MOL    H7927407   6.743   7.474   4.118  0.1383 -2.0108  0.7289
  225MOL    C8027408   6.625   7.586   3.977  0.6285  0.4944 -0.0845
  225MOL    C8127409   6.665   0.029   4.040 -0.1014  0.1488 -0.6145
  225MOL    H8227410   6.674   7.563   3.882  1.7602  0.9056  0.3834
  225MOL    H8327411   6.520   7.593   3.950  0.3996 -0.7730  0.4481
  225MOL    H8427412   6.769   0.010   4.069  0.1692 -1.6783 -2.6177
  225MOL    H8527413   6.681   0.101   3.959 -3.0805  1.5514 -0.0006
  225MOL    C8627414   6.568   0.068   4.147 -0.2509 -0.1527  0.2771
  225MOL    C8727415   6.568   0.212   4.173 -1.2571 -0.5924  0.1863
  225MOL    H8827416   6.469   0.032   4.121 -0.4795  1.2302 -0.8089
  225MOL    H8927417   6.599   0.012   4.235 -0.3255 -3.2543 -1.5919
  225MOL    H9027418   6.667   0.254   4.189 -1.4335 -0.4340  0.9138
  225MOL    H9127419   6.530   0.270   4.089  0.0831 -0.5690 -0.4097
  225MOL    C9227420   6.488   0.244   4.301  0.1963  0.5806 -0.3209
  225MOL    C9327421   6.494   0.399   4.337 -0.2822  0.4594  0.1092
  225MOL    H9427422   6.382   0.221   4.291 -0.2369  0.9338  2.9789
  225MOL    H9527423   6.509   0.177   4.384 -1.0244  0.7026  0.1047
  225MOL    H9627424   6.596   0.415   4.369 -0.8417  0.1999  2.0611
  225MOL    H9727425   6.485   0.462   4.248  1.9696  1.3724  0.5153
  225MOL    C9827426   6.389   0.454   4.433  0.0029  0.0137 -0.9702
  225MOL    C9927427   6.394   0.606   4.469  0.0703 -0.0677  0.2603
  225MOL   H10027428   6.297   0.434   4.378  0.9112 -0.2983 -2.4025
  225MOL   H10127429   6.393   0.389   4.520  2.7326  1.1803 -0.1949
  225MOL   H10227430   6.488   0.624   4.521 -0.6599  0.7694  1.3172
  225MOL   H10327431   6.380   0.664   4.378 -0.2167  0.4837  0.6557
  225MOL   C10427432   6.282   0.656   4.569  0.0248  0.3552  0.7264
  225MOL   C10527433   6.293   0.795   4.622  0.0217  0.1779  0.0919
  225MOL   H10627434   6.187   0.641   4.518  0.7467  1.3041 -0.9331
  225MOL   H10727435   6.276   0.586   4.652  0.0874  0.0539  0.4805
  225MOL   H10827436   6.388   0.799   4.674 -0.4820  0.3972  1.0116
  225MOL   H10927437   6.294   0.866   4.539 -3.5855  0.0517 -0.1424
  225MOL   C11027438   6.175   0.811   4.711 -0.6233  0.0789  0.2107
  225MOL   C11127439   6.162   0.948   4.772  0.4948  0.0107 -0.3526
  225MOL   H11227440   6.082   0.786   4.660  0.6917 -2.6908 -0.9808
  225MOL   H11327441   6.183   0.735   4.788 -1.2753  0.7932  0.9872
  225MOL   H11427442   6.250   0.984   4.825  0.3521 -0.2957  0.0901
  225MOL   H11527443   6.159   1.014   4.685 -0.2836  0.7100  0.2003
  225MOL   C11627444   6.035   0.970   4.854 -0.3066  0.0905  0.4699
  225MOL   C11727445   6.071   0.926   4.992 -0.6098 -0.4117  0.0705
  225MOL   H11827446   6.009   1.075   4.842  1.1304  0.5693  1.3982
  225MOL   H11927447   5.946   0.924   4.811 -0.6893  0.3889  0.9404
  225MOL   H12027448   6.099   0.821   5.000  0.3219 -0.1317  0.6152
  225MOL   H12127449   6.154   0.982   5.036 -0.1817 -0.3370 -0.8215
  225MOL   H12227450   5.988   0.921   5.063  1.7143 -1.8252  2.8146
  226MOL     C127451   0.898   0.016   7.452  0.3655 -0.1581  0.2549
  226MOL     C227452   0.832   0.124   7.534  0.2505  0.4092  0.5961
  226MOL     H327453   0.945   0.063   7.365 -0.3628  0.9861  0.4777
  226MOL     H427454   0.817   7.639   7.429 -0.9256  0.8558  1.6817
  226MOL     H527455   0.767   0.182   7.468  1.7150 -0.5114 -1.7055
  226MOL     H627456   0.764   0.083   7.608 -1.5066  0.2164 -1.1031
  226MOL     H727457   0.972   7.657   7.514  0.6637  0.2355  0.2261
  226MOL     C827458   0.937   0.216   7.608  0.4742  0.7643 -0.0948
  226MOL     C927459   0.870   0.316   0.005 -0.1421 -0.3695 -0.3302
  226MOL    H1027460   1.003   0.152   7.666 -0.2767 -0.3840 -0.4841
  226MOL    H1127461   0.985   0.277   7.531 -0.0974  1.5318  0.1524
  226MOL    H1227462   0.812   0.381   7.632 -1.9401 -0.6546  0.9648
  226MOL    H1327463   0.795   0.261   0.062 -0.6094  0.5987 -0.0103
  226MOL    C1427464   0.974   0.392   0.088 -0.2335 -1.0200  0.3043
  226MOL    C1527465   0.917   0.503   0.169  0.4009 -0.1829 -0.2238
  226MOL    H1627466   1.043   0.335   0.150  1.7318 -0.3300 -1.2128
  226MOL    H1727467   1.048   0.439   0.024 -1.6703  1.8640  0.6414
  226MOL    H1827468   0.861   0.554   0.091  0.2659 -3.0979 -2.1096
  226MOL    H1927469   0.846   0.468   0.244  0.7722  1.9462  1.1842
  226MOL    C2027470   1.006   0.593   0.248  0.2183 -0.1942  0.2310
  226MOL    C2127471   0.940   0.719   0.304  0.6102 -0.4364 -0.2550
  226MOL    H2227472   1.060   0.534   0.322  2.5190  1.1994 -0.2771
  226MOL    H2327473   1.083   0.631   0.181  0.7573 -1.9026 -0.1362
  226MOL    H2427474   0.926   0.783   0.217  0.0963 -0.1085  0.0698
  226MOL    H2527475   0.842   0.684   0.337 -0.5799 -0.2224 -3.3387
  226MOL    C2627476   1.029   0.786   0.413 -0.6922  0.2756  0.1446
  226MOL    C2727477   0.959   0.906   0.483 -0.0152  0.1210 -0.1285
  226MOL    H2827478   1.062   0.710   0.484  1.6980 -1.0342 -2.2557
  226MOL    H2927479   1.116   0.832   0.365 -0.0409 -1.3853 -0.3383
  226MOL    H3027480   0.953   0.984   0.407  3.5231  1.3137  0.7073
  226MOL    H3127481   0.856   0.889   0.515 -0.3056  0.3971 -0.9181
  226MOL    C3227482   1.046   0.964   0.593 -0.1856  0.4502 -0.4641
  226MOL    C3327483   1.001   1.103   0.650  0.0490  0.1351  0.6578
  226MOL    H3427484   1.052   0.888   0.671 -0.2343 -0.3095 -1.1999
  226MOL    H3527485   1.153   0.970   0.570  0.1852  0.7885  1.2064
  226MOL    H3627486   0.980   1.171   0.567 -2.5856 -0.3346  0.9076
  226MOL    H3727487   0.915   1.086   0.714 -0.1310  0.3785  0.4803
  226MOL    C3827488   1.108   1.174   0.742  0.2687  0.6006 -0.4733
  226MOL    C3927489   1.058   1.309   0.778 -0.2010 -0.4051  0.3911
  226MOL    H4027490   1.117   1.127   0.839 -0.0437 -1.6038 -1.4880
  226MOL    H4127491   1.208   1.168   0.699  0.2595 -2.9406 -0.1423
  226MOL    H4227492   1.003   1.347   0.692  0.3993 -0.6339 -0.0958
  226MOL    H4327493   0.983   1.302   0.857  0.3925 -0.6297  0.9408
  226MOL    C4427494   1.169   1.413   0.817 -0.1736  0.3176 -0.0513
  226MOL    C4527495   1.120   1.547   0.871 -0.1110  0.6095 -0.5276
  226MOL    H4627496   1.235   1.372   0.894  1.3602  1.1467 -0.8906
  226MOL    H4727497   1.226   1.423   0.725  0.2033 -0.6696  0.0658
  226MOL    H4827498   1.051   1.595   0.802 -1.3609  0.8282  0.8660
  226MOL    H4927499   1.062   1.535   0.962  0.5365 -0.1658 -0.2118
  226MOL    C5027500   1.236   1.641   0.911 -0.3172  0.3002 -0.1152
  226MOL    C5127501   1.202   1.790   0.921  0.5032 -0.1810  0.4026
  226MOL    H5227502   1.262   1.613   1.013 -0.8985  0.2472  0.0205
  226MOL    H5327503   1.329   1.631   0.856  0.9556  1.1366  1.8258
  226MOL    H5427504   1.201   1.823   0.817  1.9228  0.2673  0.5220
  226MOL    H5527505   1.103   1.801   0.966  0.8483 -2.1112  1.6982
  226MOL    C5627506   1.305   1.869   1.011  0.1254 -0.3738 -0.1599
  226MOL    C5727507   1.448   1.852   0.961  0.2225 -0.2012 -0.0016
  226MOL    H5827508   1.275   1.974   1.013 -0.0607 -0.4395  0.6901
  226MOL    H5927509   1.305   1.836   1.115  0.3507  3.5217  1.1708
  226MOL    H6027510   1.474   1.750   0.934  0.1859 -0.4296  0.7898
  226MOL    H6127511   1.454   1.904   0.866 -1.0415  0.0069  0.0272
  226MOL    C6227512   1.559   1.894   1.064  0.6917 -0.3224 -0.1808
  226MOL    C6327513   1.706   1.866   1.016 -0.5074 -0.0201 -0.1781
  226MOL    H6427514   1.540   1.994   1.103  2.1373  0.0556 -0.4423
  226MOL    H6527515   1.543   1.825   1.148 -3.4563  1.1024  0.3196
  226MOL    H6627516   1.722   1.768   0.970  0.0713  1.0301 -2.2795
  226MOL    H6727517   1.740   1.928   0.933  0.7280  0.2208  0.5059
  226MOL    C6827518   1.799   1.863   1.132 -0.8297 -0.1856 -0.1598
  226MOL    C6927519   1.941   1.850   1.083 -0.2289  0.0843 -0.8384
  226MOL    H7027520   1.789   1.942   1.207  0.2186 -0.2095  0.0128
  226MOL    H7127521   1.780   1.772   1.190  2.2868 -0.0688  1.1227
  226MOL    H7227522   1.957   1.772   1.009  1.4530 -0.8946  0.5269
  226MOL    H7327523   1.967   1.938   1.024  2.0005  0.9934  1.4118
  226MOL    C7427524   2.043   1.831   1.194  0.2450 -0.3111  0.6249
  226MOL    C7527525   2.183   1.796   1.137 -0.0024  0.4774  0.0075
  226MOL    H7627526   2.053   1.923   1.253 -1.1700 -0.0718  0.5101
  226MOL    H7727527   2.005   1.764   1.272  1.5932 -0.3077  1.2965
  226MOL    H7827528   2.180   1.704   1.078 -1.5220  0.6274 -0.1713
  226MOL    H7927529   2.201   1.880   1.070 -0.4774  1.7705  1.4918
  226MOL    C8027530   2.296   1.786   1.241 -0.0670  0.4669 -0.6182
  226MOL    C8127531   2.418   1.712   1.189 -0.4403 -0.1986  0.6671
  226MOL    H8227532   2.312   1.881   1.291  1.1294 -0.5726  1.0494
  226MOL    H8327533   2.248   1.724   1.317  0.1235  0.3722 -0.5755
  226MOL    H8427534   2.394   1.613   1.149  0.0731 -0.6326  1.4072
  226MOL    H8527535   2.462   1.778   1.114  0.9057  0.3707  1.9313
  226MOL    C8627536   2.519   1.683   1.295 -0.4691 -0.0944 -0.3255
  226MOL    C8727537   2.634   1.599   1.243  0.8475  0.1307 -0.3754
  226MOL    H8827538   2.558   1.780   1.328  0.2609  0.2251 -2.0437
  226MOL    H8927539   2.479   1.649   1.390  0.0882 -0.6080 -0.2720
  226MOL    H9027540   2.599   1.506   1.198  2.3721 -0.2168 -0.8656
  226MOL    H9127541   2.677   1.652   1.157 -2.0604  1.5093 -1.0361
  226MOL    C9227542   2.751   1.567   1.337  0.0474  0.4860 -0.1639
  226MOL    C9327543   2.856   1.489   1.265  0.1887  0.2307  0.2346
  226MOL    H9427544   2.783   1.665   1.372 -0.4748 -0.8578  4.4611
  226MOL    H9527545   2.718   1.515   1.427 -2.8102 -1.1137 -2.0429
  226MOL    H9627546   2.820   1.389   1.239  0.4136 -0.2943  1.8781
  226MOL    H9727547   2.889   1.542   1.176 -0.2017  0.9534  0.5179
  226MOL    C9827548   2.983   1.466   1.346  0.3129  0.2933  0.2418
  226MOL    C9927549   3.090   1.404   1.254 -0.2908 -0.0698  0.6201
  226MOL   H10027550   3.021   1.560   1.383  0.2719 -0.7025  2.8924
  226MOL   H10127551   2.953   1.398   1.426 -1.7843  0.2910 -0.5158
  226MOL   H10227552   3.064   1.304   1.218 -0.6520 -0.0169  0.7332
  226MOL   H10327553   3.107   1.472   1.170  2.0015 -1.4860 -0.1209
  226MOL   C10427554   3.231   1.399   1.328  0.0397 -0.4267 -0.1287
  226MOL   C10527555   3.332   1.325   1.242  0.2119  0.7744  0.7471
  226MOL   H10627556   3.272   1.499   1.347  1.7759 -0.5941 -2.6357
  226MOL   H10727557   3.227   1.340   1.420 -0.6813  1.0346  0.7932
  226MOL   H10827558   3.310   1.218   1.242  0.2880  0.7563  1.0412
  226MOL   H10927559   3.321   1.348   1.136 -3.2984 -2.7127  0.2162
  226MOL   C11027560   3.468   1.338   1.307  0.2903 -0.2680  0.2753
  226MOL   C11127561   3.583   1.271   1.228 -0.1701  0.2472 -0.1146
  226MOL   H11227562   3.487   1.446   1.309  1.8887 -0.5183 -0.5549
  226MOL   H11327563   3.478   1.298   1.408 -0.9725  0.2230  0.5975
  226MOL   H11427564   3.552   1.168   1.212  2.5731 -0.3953 -1.4972
  226MOL   H11527565   3.602   1.311   1.128  1.4298  0.2153  0.1621
  226MOL   C11627566   3.713   1.279   1.294 -0.8488  0.1043 -0.2721
  226MOL   C11727567   3.821   1.209   1.208  0.2261  0.0716  0.5508
  226MOL   H11827568   3.747   1.381   1.315  3.7265 -1.3803  0.0316
  226MOL   H11927569   3.692   1.241   1.394 -0.3060 -0.6020 -0.4294
  226MOL   H12027570   3.912   1.235   1.262  0.1928  2.3968 -0.4573
  226MOL   H12127571   3.805   1.102   1.222 -0.8726  0.2869  0.9653
  226MOL   H12227572   3.822   1.240   1.103  0.8696 -0.7537  0.3070
  227MOL     C127573   1.927   7.346   2.538 -0.3348 -0.7136 -0.0517
  227MOL     C227574   1.863   7.381   2.408  0.4778 -0.1900  1.0008
  227MOL     H327575   2.022   7.299   2.511  0.0761 -0.2428  0.5571
  227MOL     H427576   1.864   7.270   2.586 -0.0307 -0.3055  1.0139
  227MOL     H527577   1.931   7.436   2.343 -0.6458 -0.9578 -0.8489
  227MOL     H627578   1.829   7.293   2.353  1.2253  0.0882  0.0866
  227MOL     H727579   1.945   7.436   2.597  0.5665  0.9588 -2.8004
  227MOL     C827580   1.734   7.467   2.424  0.4736 -0.2332  0.3237
  227MOL     C927581   1.693   7.506   2.285  0.9706  0.8021  0.1339
  227MOL    H1027582   1.658   7.404   2.471  1.2863 -0.4031  1.4236
  227MOL    H1127583   1.760   7.547   2.493  0.0735 -0.4867  0.7764
  227MOL    H1227584   1.773   7.565   2.239  0.4038  0.9022 -0.7477
  227MOL    H1327585   1.679   7.415   2.227 -0.2880  1.6374 -0.9057
  227MOL    C1427586   1.567   7.593   2.280 -0.3344 -0.2505  0.5133
  227MOL    C1527587   1.503   7.608   2.144  0.8821  0.8324  0.0516
  227MOL    H1627588   1.495   7.533   2.336 -1.4178 -1.8598 -2.4602
  227MOL    H1727589   1.579   7.688   2.331 -1.6022  0.9711 -1.3824
  227MOL    H1827590   1.578   7.622   2.066  0.3244  2.6901 -0.1683
  227MOL    H1927591   1.463   7.510   2.118  2.8232 -0.6613  2.5438
  227MOL    C2027592   1.381   0.013   2.139  0.2135 -0.8364  0.4137
  227MOL    C2127593   1.301   0.012   2.001  0.7789 -0.1115  0.1305
  227MOL    H2227594   1.308   7.675   2.214  0.5970 -1.4931  0.5252
  227MOL    H2327595   1.420   0.111   2.168  0.7414 -1.2134  0.9808
  227MOL    H2427596   1.369   0.052   1.927  0.1375  1.1422  0.2158
  227MOL    H2527597   1.272   7.601   1.978  0.4868  0.1197 -0.5347
  227MOL    C2627598   1.169   0.091   2.014  0.2707 -0.7130  0.1390
  227MOL    C2727599   1.102   0.115   1.875 -0.5795 -0.4171 -0.3014
  227MOL    H2827600   1.114   0.037   2.092  2.0611 -2.8869 -0.0442
  227MOL    H2927601   1.191   0.191   2.050 -0.9475 -0.5615  0.4940
  227MOL    H3027602   1.176   0.164   1.812 -2.6237  2.5755 -0.4660
  227MOL    H3127603   1.073   0.020   1.829  2.1286 -0.9300 -1.0085
  227MOL    C3227604   0.974   0.202   1.890 -0.3474  0.4783  0.1148
  227MOL    C3327605   0.899   0.212   1.754 -0.0423  0.2469  0.3574
  227MOL    H3427606   0.916   0.165   1.974  0.8543 -1.0585  0.2838
  227MOL    H3527607   1.009   0.300   1.923  1.8879 -0.4741  0.6789
  227MOL    H3627608   0.975   0.248   1.684 -0.2099  0.8673  0.4847
  227MOL    H3727609   0.872   0.116   1.711  2.7694 -0.7963  0.8171
  227MOL    C3827610   0.786   0.313   1.763  0.1898 -0.5087 -0.2506
  227MOL    C3927611   0.712   0.322   1.626  0.1922  0.1528  0.2558
  227MOL    H4027612   0.731   0.291   1.855  1.0922  2.1296  0.9813
  227MOL    H4127613   0.837   0.404   1.796  0.6609 -1.2727  1.2147
  227MOL    H4227614   0.777   0.378   1.559  0.8629 -0.5335  0.3148
  227MOL    H4327615   0.696   0.221   1.587  1.0782 -0.3798  1.2448
  227MOL    C4427616   0.577   0.395   1.627 -0.1255 -0.3030 -0.6602
  227MOL    C4527617   0.504   0.393   1.491 -0.1495  0.3590 -1.1181
  227MOL    H4627618   0.514   0.334   1.692 -0.0388  0.3409  0.0322
  227MOL    H4727619   0.578   0.498   1.665  2.0159 -1.1425  1.7191
  227MOL    H4827620   0.574   0.436   1.418  2.6129 -1.1172  0.5741
  227MOL    H4927621   0.474   0.291   1.467 -0.2475  0.2834 -0.6651
  227MOL    C5027622   0.377   0.483   1.499  0.4844  0.0476  0.0534
  227MOL    C5127623   0.314   0.509   1.359 -0.1201 -1.1734  0.2548
  227MOL    H5227624   0.301   0.444   1.567  0.8782  0.1721  0.5618
  227MOL    H5327625   0.394   0.580   1.544 -3.4036 -0.0229  1.8481
  227MOL    H5427626   0.379   0.566   1.291 -0.0624 -0.3340  1.0047
  227MOL    H5527627   0.298   0.412   1.312 -1.8011 -0.6343 -0.3441
  227MOL    C5627628   0.180   0.586   1.371 -0.0700  0.4384  0.4699
  227MOL    C5727629   0.086   0.611   1.236  0.1711 -0.0903  0.0280
  227MOL    H5827630   0.109   0.531   1.433 -0.9022  1.1589  0.1634
  227MOL    H5927631   0.186   0.682   1.424 -0.0760  0.9758 -0.4947
  227MOL    H6027632   0.056   0.518   1.189 -0.0626  0.6581 -1.3095
  227MOL    H6127633   7.681   0.657   1.259  1.3730  1.8167  1.5158
  227MOL    C6227634   0.159   0.717   1.149  0.1369 -0.3364 -0.9819
  227MOL    C6327635   0.066   0.764   1.032 -0.3123 -0.4189  0.4300
  227MOL    H6427636   0.197   0.798   1.211 -1.7760  0.1416 -0.4181
  227MOL    H6527637   0.250   0.665   1.117 -0.7170 -3.0939  0.8551
  227MOL    H6627638   0.037   0.681   0.968 -1.0157  0.5107 -0.4766
  227MOL    H6727639   7.667   0.814   1.063 -0.8080 -0.6347 -0.6743
  227MOL    C6827640   0.140   0.860   0.943  0.0936 -0.5198 -0.1625
  227MOL    C6927641   0.079   0.887   0.809  0.3630  0.1045 -0.2624
  227MOL    H7027642   0.149   0.960   0.987  1.6259 -1.1413  0.9899
  227MOL    H7127643   0.245   0.835   0.927  0.3431  1.0797 -1.1827
  227MOL    H7227644   0.068   0.798   0.747 -2.0071  0.7022 -0.7308
  227MOL    H7327645   7.667   0.919   0.817  0.5750  0.5701  0.7352
  227MOL    C7427646   0.161   0.991   0.721  0.3177  0.0442  0.1064
  227MOL    C7527647   0.126   1.135   0.770  0.2913 -0.7035  0.0819
  227MOL    H7627648   0.267   0.967   0.721 -0.2178 -2.5766  0.2129
  227MOL    H7727649   0.125   0.980   0.619 -0.3660  0.0294  0.3440
  227MOL    H7827650   0.018   1.145   0.779  0.3979  0.7802 -0.1703
  227MOL    H7927651   0.158   1.153   0.873  1.6174 -0.7986 -0.3022
  227MOL    C8027652   0.174   1.232   0.658  0.2728 -0.7095 -0.7311
  227MOL    C8127653   0.180   1.375   0.725  0.0833 -0.0988  0.0710
  227MOL    H8227654   0.277   1.201   0.637  0.8667  1.5062 -1.3046
  227MOL    H8327655   0.118   1.223   0.565 -2.6208  3.0113  0.5082
  227MOL    H8427656   0.081   1.408   0.756 -1.2134 -2.9441 -0.8663
  227MOL    H8527657   0.238   1.376   0.818  0.7025  0.2072 -0.3102
  227MOL    C8627658   0.244   1.482   0.629 -0.3878 -0.1305 -0.1999
  227MOL    C8727659   0.164   1.522   0.506  0.5441 -0.0764  0.2065
  227MOL    H8827660   0.263   1.578   0.679  0.0332  1.6267 -3.6090
  227MOL    H8927661   0.343   1.442   0.608 -0.1156  0.8566 -0.8411
  227MOL    H9027662   0.110   1.437   0.463  0.7810  0.9432 -2.2192
  227MOL    H9127663   0.091   1.596   0.538 -0.1781  0.2659 -2.1572
  227MOL    C9227664   0.247   1.578   0.394 -0.0434  0.2277  0.5249
  227MOL    C9327665   0.175   1.616   0.261  0.4346 -0.0346  0.1240
  227MOL    H9427666   0.311   1.661   0.426  2.1720 -1.4232  0.4673
  227MOL    H9527667   0.316   1.502   0.358 -1.5097  0.1155 -2.2055
  227MOL    H9627668   0.241   1.623   0.174  1.1621 -2.1544  0.4769
  227MOL    H9727669   0.108   1.534   0.238  0.3312  0.4104 -1.2329
  227MOL    C9827670   0.117   1.764   0.273 -0.1932  0.5295 -0.7113
  227MOL    C9927671   0.046   1.822   0.148 -0.5591  0.1351  0.5257
  227MOL   H10027672   0.051   1.766   0.360  3.5410 -1.4954  2.3061
  227MOL   H10127673   0.199   1.832   0.296  1.4083 -1.0827 -1.5723
  227MOL   H10227674   0.116   1.825   0.065 -0.7062 -3.2876  0.1849
  227MOL   H10327675   7.677   1.746   0.099  1.0617  0.3207 -1.8424
  227MOL   C10427676   7.653   1.951   0.153  0.1244 -0.3114 -0.2439
  227MOL   C10527677   7.586   1.983   0.018 -0.1933  0.3306  0.0365
  227MOL   H10627678   7.577   1.930   0.228 -0.3915 -1.0623 -0.9643
  227MOL   H10727679   0.032   2.029   0.182  0.4392 -0.6248 -0.1639
  227MOL   H10827680   7.661   1.983   7.631 -2.2482 -1.1601 -1.9771
  227MOL   H10927681   7.519   1.902   7.680  1.4208 -0.5493 -1.2852
  227MOL   C11027682   7.501   2.107   0.016  0.2057  0.3552 -0.2577
  227MOL   C11127683   7.464   2.138   7.560  0.3844 -0.3961 -0.4686
  227MOL   H11227684   7.417   2.084   0.081  1.1546 -0.1871  0.7795
  227MOL   H11327685   7.557   2.187   0.065 -0.1784 -0.7676  2.1007
  227MOL   H11427686   7.551   2.165   7.500  0.3880  0.4780 -0.0872
  227MOL   H11527687   7.409   2.058   7.509 -0.3124 -1.2317  1.5742
  227MOL   C11627688   7.370   2.256   7.570 -0.1154 -0.4147 -0.4578
  227MOL   C11727689   7.350   2.325   7.435  0.4843 -0.0367  0.6493
  227MOL   H11827690   7.275   2.215   7.604  0.5774 -0.3100  1.6269
  227MOL   H11927691   7.399   2.334   7.640 -2.6877 -0.8926  1.1927
  227MOL   H12027692   7.274   2.400   7.455  1.6479  1.8432 -1.6715
  227MOL   H12127693   7.444   2.369   7.401  0.9540 -0.5460  1.2744
  227MOL   H12227694   7.303   2.256   7.364  2.1913  0.9810 -1.5415
  228MOL     C127695   5.965   0.303   4.437 -0.5570  0.0424 -0.0214
  228MOL     C227696   6.048   0.243   4.555  0.5704 -0.0828  0.3468
  228MOL     H327697   5.937   0.231   4.360  1.2827  0.4282 -1.0778
  228MOL     H427698   6.036   0.365   4.382 -0.2574 -2.0690 -2.0831
  228MOL     H527699   5.992   0.154   4.581  0.4299  0.3646  1.6271
  228MOL     H627700   6.148   0.216   4.523  2.2395  2.0423  3.4498
  228MOL     H727701   5.871   0.352   4.462 -1.0252 -1.2447  0.8033
  228MOL     C827702   6.062   0.346   4.674  0.3142 -0.0556  0.1821
  228MOL     C927703   5.929   0.370   4.749  0.2717 -0.0349  0.1681
  228MOL    H1027704   6.132   0.298   4.743 -0.1249 -0.4667  0.3417
  228MOL    H1127705   6.105   0.436   4.629 -0.6167  0.9035  1.1952
  228MOL    H1227706   5.869   0.429   4.680 -0.9739  0.9256  2.0283
  228MOL    H1327707   5.874   0.277   4.767  1.7965 -0.5069  2.6757
  228MOL    C1427708   5.931   0.461   4.874  0.3275  1.4197 -0.1949
  228MOL    C1527709   5.802   0.467   4.955 -0.0667 -0.0414  0.3420
  228MOL    H1627710   6.018   0.436   4.935  1.1283 -1.7143 -2.5182
  228MOL    H1727711   5.948   0.564   4.842 -0.8185  1.6251 -0.1812
  228MOL    H1827712   5.721   0.493   4.887 -0.5955 -1.7177  0.3228
  228MOL    H1927713   5.779   0.369   4.997  0.3173  0.2909  1.3540
  228MOL    C2027714   5.803   0.564   5.073 -0.3223  0.1981 -0.3227
  228MOL    C2127715   5.671   0.591   5.146  0.3502  0.3214 -0.6320
  228MOL    H2227716   5.887   0.534   5.136  0.1526 -2.2412 -2.0533
  228MOL    H2327717   5.845   0.653   5.027 -0.4666 -0.1278 -1.0829
  228MOL    H2427718   5.586   0.611   5.080  0.0856 -0.8485 -0.6659
  228MOL    H2527719   5.628   0.502   5.193  1.4400 -1.0187 -2.1010
  228MOL    C2627720   5.676   0.701   5.247  0.1077  0.2508 -0.3788
  228MOL    C2727721   5.544   0.736   5.313  0.0060  0.2684  0.0763
  228MOL    H2827722   5.743   0.672   5.328 -1.3424  0.2611  0.8450
  228MOL    H2927723   5.720   0.790   5.201 -0.8577  0.0465 -1.7245
  228MOL    H3027724   5.463   0.751   5.240  0.3024 -0.5162 -0.4117
  228MOL    H3127725   5.503   0.653   5.370  3.5119  0.4721  3.0536
  228MOL    C3227726   5.547   0.847   5.419 -0.0284 -0.2491 -0.0669
  228MOL    C3327727   5.399   0.879   5.461  0.1019 -0.6163  0.0639
  228MOL    H3427728   5.599   0.815   5.510  2.8560  1.0716 -1.1972
  228MOL    H3527729   5.600   0.935   5.385  0.1098  0.3956  1.7391
  228MOL    H3627730   5.346   0.927   5.378  1.1947 -1.4292 -1.1271
  228MOL    H3727731   5.339   0.792   5.484  0.7545 -1.2190 -0.5075
  228MOL    C3827732   5.392   0.974   5.586 -0.3637 -0.0673  0.0540
  228MOL    C3927733   5.243   0.992   5.629  0.1939 -0.5584  0.7948
  228MOL    H4027734   5.449   0.923   5.663  2.2447 -1.4978 -2.6938
  228MOL    H4127735   5.448   1.064   5.561  0.3164  0.2453  2.5907
  228MOL    H4227736   5.195   1.037   5.542  3.1746 -0.4501 -0.8532
  228MOL    H4327737   5.186   0.903   5.654  1.0681 -2.0662 -2.3474
  228MOL    C4427738   5.228   1.102   5.737  0.4832  0.4363 -0.5175
  228MOL    C4527739   5.089   1.123   5.802 -0.3181 -0.1566  0.2424
  228MOL    H4627740   5.298   1.077   5.817  0.8717 -0.4053 -1.1117
  228MOL    H4727741   5.264   1.200   5.704 -1.1616  1.2728  0.1251
  228MOL    H4827742   5.053   1.025   5.835 -0.9009 -0.0792 -0.1595
  228MOL    H4927743   5.095   1.186   5.891  0.0291 -1.7310  1.3701
  228MOL    C5027744   4.985   1.185   5.715 -0.3164  0.0825 -0.8123
  228MOL    C5127745   5.002   1.327   5.673 -0.0181  0.1398  0.3659
  228MOL    H5227746   4.976   1.121   5.627 -1.5623 -1.3197  0.3116
  228MOL    H5327747   4.893   1.173   5.772  0.8973  1.3676  1.5040
  228MOL    H5427748   4.994   1.397   5.757 -3.7898  2.5987 -1.8541
  228MOL    H5527749   5.101   1.337   5.629 -0.9968 -1.1131 -2.2174
  228MOL    C5627750   4.902   1.375   5.564 -0.0533  0.1153 -0.3724
  228MOL    C5727751   4.946   1.513   5.517  0.5750  0.1672 -0.5319
  228MOL    H5827752   4.921   1.312   5.476  0.2563  0.3047 -0.4415
  228MOL    H5927753   4.800   1.359   5.596  0.7785  0.2096  2.4189
  228MOL    H6027754   4.930   1.585   5.598  1.3485 -0.3934  0.1271
  228MOL    H6127755   5.052   1.517   5.494  0.5770 -4.0381 -1.5331
  228MOL    C6227756   4.860   1.564   5.410  0.2785 -0.4129 -0.8971
  228MOL    C6327757   4.891   1.706   5.378  0.5292 -0.4847  0.3908
  228MOL    H6427758   4.880   1.506   5.320  1.3452 -1.7040  0.1434
  228MOL    H6527759   4.753   1.552   5.425  0.8424 -1.7275  2.5279
  228MOL    H6627760   4.873   1.768   5.466  0.5107 -0.5326  0.4212
  228MOL    H6727761   4.997   1.726   5.360  0.2909  0.6895  0.2215
  228MOL    C6827762   4.798   1.758   5.267  0.2280 -0.0079 -0.0701
  228MOL    C6927763   4.838   1.900   5.227  0.0260  0.4578  0.0273
  228MOL    H7027764   4.797   1.695   5.178  0.8150 -2.4499  1.5913
  228MOL    H7127765   4.695   1.761   5.303 -0.4274  2.0834 -1.9825
  228MOL    H7227766   4.825   1.959   5.317  1.7469  1.7542 -0.5588
  228MOL    H7327767   4.941   1.912   5.194  0.3336  1.4329  1.3323
  228MOL    C7427768   4.733   1.963   5.130 -0.4691 -1.0158 -0.3361
  228MOL    C7527769   4.750   2.117   5.113 -0.3373 -0.1886  0.4387
  228MOL    H7627770   4.745   1.916   5.032 -0.2383  1.1815 -1.3923
  228MOL    H7727771   4.631   1.936   5.157 -0.3017  0.0182  1.4001
  228MOL    H7827772   4.736   2.167   5.209  1.7163 -0.7339  1.0374
  228MOL    H7927773   4.854   2.141   5.091 -0.8070 -0.1496 -1.8458
  228MOL    C8027774   4.649   2.166   5.000  0.3934 -0.1773 -0.3929
  228MOL    C8127775   4.642   2.316   4.987  0.2797  0.3628 -0.1627
  228MOL    H8227776   4.678   2.123   4.904 -1.4308 -1.3124 -0.4564
  228MOL    H8327777   4.553   2.123   5.027  0.3965 -0.3310 -0.6261
  228MOL    H8427778   4.620   2.361   5.083 -1.7005  0.6956 -0.7584
  228MOL    H8527779   4.747   2.342   4.969  0.1057  0.8750 -0.4544
  228MOL    C8627780   4.553   2.374   4.873 -0.6564  0.5933  0.1163
  228MOL    C8727781   4.543   2.525   4.863  0.4843  0.0448  0.8230
  228MOL    H8827782   4.600   2.350   4.778 -0.9023 -0.5111  0.2621
  228MOL    H8927783   4.453   2.330   4.874 -0.5686  0.3800 -0.6013
  228MOL    H9027784   4.640   2.574   4.863  0.7654 -0.5160  1.8060
  228MOL    H9127785   4.493   2.543   4.767 -0.0210  1.5208  1.3551
  228MOL    C9227786   4.461   2.580   4.984  0.5679 -0.3436 -0.0987
  228MOL    C9327787   4.399   2.714   4.943 -0.0283  0.0122  0.5940
  228MOL    H9427788   4.381   2.508   4.998  0.7174 -0.7257 -1.1982
  228MOL    H9527789   4.526   2.591   5.071 -0.0869  2.3075  0.1014
  228MOL    H9627790   4.471   2.781   4.896 -0.7519 -0.4304 -1.1449
  228MOL    H9727791   4.328   2.682   4.867 -0.4100 -2.0868  1.7881
  228MOL    C9827792   4.324   2.782   5.056  0.4370 -0.0455  0.0279
  228MOL    C9927793   4.271   2.924   5.024 -0.6232  0.5092 -0.6293
  228MOL   H10027794   4.236   2.723   5.083 -0.1091  1.4706  1.6466
  228MOL   H10127795   4.388   2.794   5.144  0.8194  1.6154 -0.4774
  228MOL   H10227796   4.354   2.984   4.987  1.1085 -0.7751  1.0600
  228MOL   H10327797   4.204   2.916   4.939 -0.0323  3.0188 -1.3716
  228MOL   C10427798   4.210   2.994   5.151  0.0544 -0.9213 -0.1408
  228MOL   C10527799   4.112   3.110   5.112 -0.9987 -0.2070 -0.5364
  228MOL   H10627800   4.157   2.909   5.195  2.2018 -3.2791 -1.9932
  228MOL   H10727801   4.275   3.040   5.225 -2.3774  1.4589  0.6154
  228MOL   H10827802   4.038   3.078   5.039 -0.4067  1.9588 -2.1042
  228MOL   H10927803   4.053   3.133   5.201 -2.8047  0.6315 -1.9312
  228MOL   C11027804   4.186   3.235   5.071  0.1922  0.5554  0.4235
  228MOL   C11127805   4.076   3.347   5.029  0.1292 -0.7015 -0.8041
  228MOL   H11227806   4.250   3.273   5.151  2.1282 -0.5233 -0.5795
  228MOL   H11327807   4.245   3.224   4.980 -2.5609  1.1689 -1.4964
  228MOL   H11427808   4.009   3.296   4.960 -1.5344 -0.3539  0.5225
  228MOL   H11527809   4.009   3.366   5.113 -0.9778  0.0216 -1.8237
  228MOL   C11627810   4.137   3.467   4.959  0.9941 -0.1180 -0.3660
  228MOL   C11727811   4.026   3.538   4.877 -0.3528  0.0046  0.5443
  228MOL   H11827812   4.190   3.543   5.016 -0.0857  2.0700 -2.2237
  228MOL   H11927813   4.204   3.426   4.885 -0.1968 -1.5080 -0.6999
  228MOL   H12027814   4.046   3.640   4.844 -1.9711  0.0451 -0.3367
  228MOL   H12127815   4.015   3.480   4.785  1.0931 -1.9215  1.5391
  228MOL   H12227816   3.932   3.546   4.931  0.6224 -0.4416  2.3368
  229MOL     C127817   1.239   2.557   1.023  0.4808 -0.1092  0.9056
  229MOL     C227818   1.343   2.513   1.123 -0.4106  0.1110  0.9280
  229MOL     H327819   1.282   2.612   0.940  1.0212 -1.9757 -0.0664
  229MOL     H427820   1.175   2.626   1.079  0.7789 -1.1873  2.6248
  229MOL     H527821   1.438   2.490   1.075 -1.4897  1.6190 -2.0771
  229MOL     H627822   1.361   2.587   1.201 -2.1432  2.8425 -1.1580
  229MOL     H727823   1.185   2.475   0.976 -0.3168  1.5097 -1.0528
  229MOL     C827824   1.303   2.384   1.193 -0.5505 -0.0799  0.0334
  229MOL     C927825   1.412   2.313   1.283 -0.4324  0.0820 -0.0944
  229MOL    H1027826   1.211   2.397   1.249  0.1284 -3.5204  2.1138
  229MOL    H1127827   1.279   2.312   1.115 -0.8572 -0.8062  0.7907
  229MOL    H1227828   1.500   2.294   1.222 -1.6494 -2.1973 -1.2276
  229MOL    H1327829   1.441   2.377   1.366 -0.2543 -0.4577  0.2636
  229MOL    C1427830   1.374   2.173   1.339  0.1417 -0.0244  0.3057
  229MOL    C1527831   1.494   2.100   1.395  0.3848 -0.1288 -0.0159
  229MOL    H1627832   1.298   2.187   1.416  1.4922  0.7186  1.5313
  229MOL    H1727833   1.330   2.120   1.255  1.0000 -0.4251  0.1017
  229MOL    H1827834   1.577   2.088   1.326 -1.3475 -0.3475 -2.1078
  229MOL    H1927835   1.546   2.159   1.471  1.5190 -0.8595 -0.2168
  229MOL    C2027836   1.444   1.964   1.437  0.3679  0.6827  0.5389
  229MOL    C2127837   1.562   1.887   1.511  0.3441  0.4912 -0.4907
  229MOL    H2227838   1.360   1.971   1.506  0.7655  0.6593  1.0263
  229MOL    H2327839   1.412   1.912   1.347  0.9337  0.9755  0.1626
  229MOL    H2427840   1.625   1.859   1.426  1.0138 -2.0916  0.7825
  229MOL    H2527841   1.611   1.959   1.576  0.6107  0.0982 -0.2487
  229MOL    C2627842   1.513   1.771   1.601  0.4104 -0.1377 -0.6334
  229MOL    C2727843   1.448   1.651   1.527 -0.0150  0.4062  0.3625
  229MOL    H2827844   1.594   1.743   1.667 -0.8078  2.5202  2.0835
  229MOL    H2927845   1.439   1.804   1.674 -1.3615 -0.7780 -2.0734
  229MOL    H3027846   1.395   1.579   1.589  0.2808 -1.8065 -1.9105
  229MOL    H3127847   1.375   1.688   1.455  0.3836  0.8002  0.1543
  229MOL    C3227848   1.562   1.577   1.455 -0.8130 -0.1313 -0.1045
  229MOL    C3327849   1.503   1.450   1.389  0.1936  0.4848  0.3818
  229MOL    H3427850   1.611   1.645   1.385 -1.5366  1.4875  0.9483
  229MOL    H3527851   1.639   1.544   1.525  0.2859  0.3480 -1.0766
  229MOL    H3627852   1.587   1.398   1.343 -1.2781 -2.3086  0.7549
  229MOL    H3727853   1.467   1.384   1.468 -1.2424  0.8951  0.0712
  229MOL    C3827854   1.397   1.460   1.280  0.1837 -0.1175 -0.1288
  229MOL    C3927855   1.357   1.332   1.211  0.2859  0.4230 -0.0287
  229MOL    H4027856   1.304   1.503   1.316  0.2149 -3.0180  3.7168
  229MOL    H4127857   1.444   1.527   1.208  2.1297  0.1321  1.3263
  229MOL    H4227858   1.277   1.358   1.142 -1.2244 -0.2417  1.4355
  229MOL    H4327859   1.446   1.293   1.161 -0.4491  0.1140 -1.0955
  229MOL    C4427860   1.303   1.223   1.304  0.0577  0.1714 -0.6664
  229MOL    C4527861   1.255   1.101   1.230  0.5911  0.5818  0.8667
  229MOL    H4627862   1.378   1.191   1.377  1.2298 -0.9084 -2.3311
  229MOL    H4727863   1.221   1.271   1.358 -0.0282 -1.3070  0.5631
  229MOL    H4827864   1.321   1.085   1.144 -0.2853  3.2442 -0.3588
  229MOL    H4927865   1.257   1.015   1.296 -2.9880 -2.1057 -2.3338
  229MOL    C5027866   1.117   1.124   1.168  0.2725  0.0722 -0.8006
  229MOL    C5127867   0.997   1.108   1.268  0.5801  0.0440  0.5056
  229MOL    H5227868   1.113   1.213   1.105  0.3520  1.0215  0.4910
  229MOL    H5327869   1.115   1.046   1.093  1.5442 -0.3154 -0.4434
  229MOL    H5427870   1.005   1.015   1.325  0.7701 -0.9563 -1.1302
  229MOL    H5527871   0.987   1.194   1.334 -1.4088 -0.8157  1.3502
  229MOL    C5627872   0.859   1.108   1.202  0.1468 -0.8995  0.7668
  229MOL    C5727873   0.799   1.239   1.136  0.2029 -0.1394 -0.9166
  229MOL    H5827874   0.857   1.026   1.130  2.0322 -0.6871  0.4604
  229MOL    H5927875   0.796   1.058   1.276  0.8315  0.8992  2.5967
  229MOL    H6027876   0.877   1.286   1.077 -0.0889 -1.6320 -2.5326
  229MOL    H6127877   0.713   1.215   1.074 -1.8164 -0.7604  2.0002
  229MOL    C6227878   0.757   1.334   1.243 -0.0056 -0.1885  0.4483
  229MOL    C6327879   0.647   1.427   1.196 -0.1187 -0.4344 -0.9968
  229MOL    H6427880   0.715   1.275   1.324  0.2065 -2.8698 -1.3269
  229MOL    H6527881   0.843   1.397   1.268  0.9391 -0.6836 -1.4007
  229MOL    H6627882   0.684   1.489   1.114  0.9473  0.6628  0.2972
  229MOL    H6727883   0.561   1.373   1.156 -3.1111  1.8503  2.0356
  229MOL    C6827884   0.593   1.513   1.317 -0.0821  0.2402  0.3398
  229MOL    C6927885   0.531   1.643   1.260 -0.4540  0.1664 -0.6137
  229MOL    H7027886   0.516   1.457   1.371 -2.1844  2.9237  0.2330
  229MOL    H7127887   0.663   1.545   1.394 -2.2074 -1.9034  3.2917
  229MOL    H7227888   0.601   1.702   1.202 -0.1080 -1.3262 -1.7310
  229MOL    H7327889   0.447   1.621   1.194  0.6357  0.0045 -1.9738
  229MOL    C7427890   0.487   1.728   1.377  0.3378  0.5840 -0.7234
  229MOL    C7527891   0.417   1.861   1.350 -0.8566  0.3451  0.2847
  229MOL    H7627892   0.426   1.666   1.444  1.0581 -0.3586 -0.9231
  229MOL    H7727893   0.576   1.744   1.439 -0.3165 -0.1167  0.4256
  229MOL    H7827894   0.330   1.850   1.285 -0.3808 -0.8777 -0.1693
  229MOL    H7927895   0.379   1.909   1.440 -0.7213  1.6102 -0.3278
  229MOL    C8027896   0.508   1.974   1.293 -0.0696  0.3914 -0.4959
  229MOL    C8127897   0.420   2.086   1.223  0.6262 -0.0608 -0.5552
  229MOL    H8227898   0.569   2.013   1.375  0.9723  0.8953 -1.5069
  229MOL    H8327899   0.580   1.925   1.227 -0.1308 -0.9571  0.4129
  229MOL    H8427900   0.357   2.127   1.302  0.6713  0.5081 -0.8086
  229MOL    H8527901   0.483   2.175   1.212 -0.4418  0.6766 -0.7425
  229MOL    C8627902   0.351   2.059   1.095  0.9033  0.7251  0.5507
  229MOL    C8727903   0.302   2.182   1.024  0.6748  0.4394 -0.7475
  229MOL    H8827904   0.420   1.998   1.037 -0.9911  0.4139 -1.4363
  229MOL    H8927905   0.269   1.991   1.117 -1.0950  1.9195 -2.7428
  229MOL    H9027906   0.199   2.174   0.990 -0.0586 -2.5680  1.9305
  229MOL    H9127907   0.299   2.268   1.089 -2.3264  1.2643 -1.8701
  229MOL    C9227908   0.383   2.241   0.907 -0.2983 -1.1544  0.2948
  229MOL    C9327909   0.299   2.353   0.848 -0.1348 -0.7673  0.1044
  229MOL    H9427910   0.484   2.262   0.943 -0.6904 -1.4471  1.5529
  229MOL    H9527911   0.404   2.173   0.824  2.6245 -0.8290  0.7059
  229MOL    H9627912   0.202   2.324   0.807 -0.8478 -0.7074  1.6887
  229MOL    H9727913   0.288   2.428   0.926 -2.1259  1.9432 -2.6519
  229MOL    C9827914   0.376   2.432   0.739  0.5185 -0.0145 -0.2846
  229MOL    C9927915   0.304   2.541   0.667  0.4248  0.7480  0.4985
  229MOL   H10027916   0.470   2.466   0.784  0.5920 -0.2941 -0.2249
  229MOL   H10127917   0.400   2.360   0.661  1.5515 -0.9222  0.8378
  229MOL   H10227918   0.209   2.501   0.631 -0.6429  2.3938  1.4107
  229MOL   H10327919   0.286   2.628   0.730  0.5413  0.5435  0.8133
  229MOL   C10427920   0.374   2.590   0.546 -0.7913 -0.7095 -0.1975
  229MOL   C10527921   0.308   2.700   0.470 -0.8582  0.3947 -0.2999
  229MOL   H10627922   0.472   2.622   0.582 -1.9642  1.5111  1.1530
  229MOL   H10727923   0.402   2.509   0.480  1.6359  2.5278 -3.3555
  229MOL   H10827924   0.209   2.670   0.436  0.0312 -1.4790 -1.2770
  229MOL   H10927925   0.301   2.781   0.543 -0.7260  0.4560 -0.3561
  229MOL   C11027926   0.395   2.749   0.357 -0.6618 -0.0840  0.2812
  229MOL   C11127927   0.315   2.850   0.266  0.0695 -0.0268 -0.0792
  229MOL   H11227928   0.489   2.792   0.391  0.5497 -2.7618  0.3977
  229MOL   H11327929   0.435   2.674   0.289 -0.8690  0.6004 -0.6139
  229MOL   H11427930   0.219   2.813   0.230 -0.4258  1.6973 -0.6016
  229MOL   H11527931   0.302   2.943   0.322 -0.6014 -0.8732  1.1830
  229MOL   C11627932   0.380   2.886   0.134 -0.4082 -0.1484 -0.6607
  229MOL   C11727933   0.276   2.970   0.054 -0.0547  0.0708  0.6585
  229MOL   H11827934   0.478   2.933   0.143 -0.2790 -0.8672  1.8414
  229MOL   H11927935   0.413   2.797   0.079  2.0091  1.1123 -1.3198
  229MOL   H12027936   0.253   3.062   0.109 -3.8334  0.9333 -2.2079
  229MOL   H12127937   0.331   2.990   7.655  1.6585 -0.0103  1.6572
  229MOL   H12227938   0.181   2.919   0.036 -0.2311  0.1202  1.4078
  230MOL     C127939   7.459   6.620   3.635 -0.1477  0.0324  0.6495
  230MOL     C227940   7.496   6.602   3.782 -0.2986  0.1482  0.4185
  230MOL     H327941   7.527   6.677   3.572 -1.3757 -1.3083 -1.9486
  230MOL     H427942   7.356   6.655   3.621  1.3093  4.3194 -0.0634
  230MOL     H527943   7.431   6.530   3.832  1.6403 -0.6983  1.8237
  230MOL     H627944   7.589   6.545   3.780  0.0605  0.7508 -0.1516
  230MOL     H727945   7.452   6.523   3.587 -1.0449  0.7122 -0.6309
  230MOL     C827946   7.497   6.735   3.856 -0.1888 -0.4734 -0.0138
  230MOL     C927947   7.520   6.711   4.009  0.0534  0.2124 -0.7061
  230MOL    H1027948   7.573   6.797   3.810  1.7801 -1.4432  1.8436
  230MOL    H1127949   7.394   6.769   3.842 -0.3286  0.1529  2.2659
  230MOL    H1227950   7.425   6.676   4.050  0.6482  0.9296  1.3238
  230MOL    H1327951   7.596   6.635   4.025  0.1832  0.7861  1.4680
  230MOL    C1427952   7.564   6.844   4.081 -0.0512  0.0731 -0.2468
  230MOL    C1527953   7.573   6.820   4.228 -0.0262 -0.3118 -0.2310
  230MOL    H1627954   7.655   6.891   4.044  0.6571 -0.3217  0.9736
  230MOL    H1727955   7.476   6.906   4.065  0.3688  0.6755 -0.2307
  230MOL    H1827956   7.493   6.758   4.269 -1.4877  1.6615  0.0005
  230MOL    H1927957   7.665   6.767   4.249 -0.9478 -1.7963  0.1208
  230MOL    C2027958   7.553   6.953   4.310  0.1462  0.2534 -0.1688
  230MOL    C2127959   7.561   6.939   4.467 -0.6527  0.3101  1.0397
  230MOL    H2227960   7.627   7.026   4.278  1.1929  0.0539  1.7575
  230MOL    H2327961   7.454   6.991   4.283 -1.3142 -1.3495  2.6356
  230MOL    H2427962   7.478   6.875   4.496  1.0820 -1.8177  1.4195
  230MOL    H2527963   7.655   6.894   4.496 -0.6964  0.3327  1.2226
  230MOL    C2627964   7.536   7.078   4.527  0.2152 -0.1446 -0.5715
  230MOL    C2727965   7.538   7.069   4.683  0.1421  0.7536 -0.6538
  230MOL    H2827966   7.619   7.139   4.491 -0.1783  0.6482 -0.1518
  230MOL    H2927967   7.440   7.116   4.492 -0.3293 -0.9560  0.0297
  230MOL    H3027968   7.464   6.995   4.713  2.1575 -0.6189  1.0766
  230MOL    H3127969   7.636   7.030   4.710 -0.1159 -0.1963 -1.0408
  230MOL    C3227970   7.525   7.197   4.763 -0.5102  0.7584  0.5059
  230MOL    C3327971   7.528   7.171   4.917 -0.3966  0.2370  0.6989
  230MOL    H3427972   7.603   7.273   4.748  0.0401 -0.0874 -1.0720
  230MOL    H3527973   7.439   7.252   4.726 -0.4610  0.0604 -0.6601
  230MOL    H3627974   7.449   7.098   4.936  0.0626  0.6375  4.3956
  230MOL    H3727975   7.626   7.141   4.952  1.3034  4.1504 -0.4444
  230MOL    C3827976   7.482   7.293   4.992 -0.2856  0.0616  0.1430
  230MOL    C3927977   7.500   7.265   5.136  0.0646  0.5978 -0.4219
  230MOL    H4027978   7.537   7.381   4.961 -0.8255  0.8619  1.4018
  230MOL    H4127979   7.377   7.319   4.978 -0.4648 -1.1478 -0.8435
  230MOL    H4227980   7.448   7.175   5.168 -0.7095  1.5454  1.0278
  230MOL    H4327981   7.605   7.241   5.154 -0.1155 -0.2428 -0.4843
  230MOL    C4427982   7.453   7.391   5.214 -0.3613 -0.5517  0.4934
  230MOL    C4527983   7.480   7.366   5.359  0.3355 -0.4419  0.1260
  230MOL    H4627984   7.494   7.481   5.169 -3.0106  0.7931  0.6598
  230MOL    H4727985   7.346   7.391   5.191 -0.3469 -1.3587  0.3877
  230MOL    H4827986   7.422   7.276   5.377  0.8759 -0.5958  1.1608
  230MOL    H4927987   7.583   7.331   5.369  0.7084  0.5433 -0.1531
  230MOL    C5027988   7.449   7.491   5.449 -0.1089  0.7786 -0.0571
  230MOL    C5127989   7.489   7.458   5.592 -0.4294 -0.0486 -0.2141
  230MOL    H5227990   7.497   7.580   5.408  0.4791  0.8148  0.7057
  230MOL    H5327991   7.341   7.510   5.446 -0.4568 -0.9936  0.3957
  230MOL    H5427992   7.420   7.385   5.634 -0.8048 -0.4734 -1.5266
  230MOL    H5527993   7.594   7.427   5.594 -1.0557 -2.1352  1.4304
  230MOL    C5627994   7.471   7.573   5.698 -0.2744  0.3270  0.3217
  230MOL    C5727995   7.543   7.544   5.831 -0.3955  0.3540  0.4758
  230MOL    H5827996   7.520   7.664   5.664 -1.5848  1.2641  0.9252
  230MOL    H5927997   7.367   7.602   5.710  0.5574  3.1082  0.9665
  230MOL    H6027998   7.487   7.463   5.879 -0.5266  0.1189 -0.0717
  230MOL    H6127999   7.649   7.517   5.829 -0.1740  1.1415  1.3081
  230MOL    C6228000   7.523   7.663   5.926 -0.0060 -0.4247  0.3883
  230MOL    C6328001   7.544   7.618   6.070 -0.3993 -0.2468  0.2207
  230MOL    H6428002   7.599   0.040   5.889 -1.3024  1.3468  0.9197
  230MOL    H6528003   7.428   0.024   5.917  0.2156  0.1753  1.3777
  230MOL    H6628004   7.461   7.555   6.101 -2.1010  0.1586 -3.3090
  230MOL    H6728005   7.632   7.554   6.073  0.1350  0.5427  1.5669
  230MOL    C6828006   7.565   0.044   6.169 -0.5725  0.1250  0.1196
  230MOL    C6928007   7.599   0.005   6.315  0.5322 -0.3968  0.3483
  230MOL    H7028008   7.659   0.091   6.142  1.2427 -0.7892  4.3617
  230MOL    H7128009   7.499   0.131   6.170  0.2863  0.7978 -1.1932
  230MOL    H7228010   7.523   7.636   6.364 -0.7701 -0.3560 -1.5612
  230MOL    H7328011   7.677   7.621   6.312 -0.0761 -1.0140 -0.0620
  230MOL    C7428012   7.635   0.126   6.405  0.0672 -0.2872  0.3054
  230MOL    C7528013   7.641   0.079   6.553 -0.0170 -1.1111 -0.1785
  230MOL    H7628014   0.032   0.183   6.376  0.2443 -0.6491  0.1360
  230MOL    H7728015   7.548   0.190   6.390  0.9764  1.6940  3.0057
  230MOL    H7828016   7.553   0.027   6.591  1.3458 -2.5927  0.9806
  230MOL    H7928017   0.040   0.021   6.569 -0.5342 -2.3648 -1.6873
  230MOL    C8028018   7.649   0.206   6.641  0.5090 -0.7347 -0.0942
  230MOL    C8128019   7.673   0.175   6.788 -0.9440  0.2673  0.5763
  230MOL    H8228020   0.047   0.258   6.609  0.6056  0.4259  1.9797
  230MOL    H8328021   7.564   0.272   6.622  1.4426  0.2340 -1.0095
  230MOL    H8428022   7.603   0.099   6.823 -1.0873  0.3990  0.5744
  230MOL    H8528023   0.082   0.134   6.784 -0.0911  2.4601 -1.3626
  230MOL    C8628024   7.687   0.295   6.882  0.9912  0.7714  1.2353
  230MOL    C8728025   0.023   0.261   7.025 -0.2192  0.5277 -0.7193
  230MOL    H8828026   0.077   0.358   6.845  1.5609 -0.0541  1.0802
  230MOL    H8928027   7.600   0.361   6.880 -0.4954 -1.1927  0.2856
  230MOL    H9028028   7.638   0.197   7.068 -1.1017  0.0666 -2.9286
  230MOL    H9128029   0.113   0.200   7.030  0.4682  1.6482  1.3820
  230MOL    C9228030   0.039   0.387   7.106 -0.3504 -0.5500  0.2022
  230MOL    C9328031   0.061   0.358   7.259 -0.4991  0.3262 -0.4811
  230MOL    H9428032   0.120   0.446   7.065  0.8891 -1.2345  1.6160
  230MOL    H9528033   7.641   0.449   7.101  0.4931  0.6553 -0.4720
  230MOL    H9628034   7.668   0.304   7.300  0.9299 -1.3673  0.2883
  230MOL    H9728035   0.149   0.294   7.264 -0.3393  0.4713 -1.3102
  230MOL    C9828036   0.086   0.498   7.340 -0.2451  0.0241  1.0436
  230MOL    C9928037   0.088   0.473   7.489  0.0482  0.3667 -0.6757
  230MOL   H10028038   0.172   0.549   7.297 -0.1610 -0.7559  0.2810
  230MOL   H10128039   7.688   0.560   7.336 -0.1968 -0.0163 -0.9953
  230MOL   H10228040   0.001   0.412   7.512  0.6249  0.6685  2.4636
  230MOL   H10328041   0.165   0.400   7.514  0.1125  0.3367 -0.9606
  230MOL   C10428042   0.091   0.596   7.577 -0.5544  0.3580  0.5567
  230MOL   C10528043   0.078   0.568   0.033 -0.3464  0.5412 -0.3322
  230MOL   H10628044   0.193   0.635   7.572 -0.1889 -0.8694 -2.1179
  230MOL   H10728045   0.018   0.669   7.542 -0.6550 -0.8306 -1.8041
  230MOL   H10828046   7.671   0.527   0.052 -1.6785  3.0696 -1.5547
  230MOL   H10928047   0.151   0.497   0.073  0.7592 -0.0281 -3.2248
  230MOL   C11028048   0.073   0.691   0.120 -0.2353  0.1976  0.2704
  230MOL   C11128049   0.050   0.666   0.266  0.1197  0.3161 -0.0436
  230MOL   H11228050   0.165   0.747   0.102 -0.4003 -0.2969 -2.2478
  230MOL   H11328051   0.004   0.764   0.079 -0.7359  0.8880  2.2959
  230MOL   H11428052   0.010   0.759   0.307 -2.3331  0.0866 -1.7703
  230MOL   H11528053   7.651   0.606   0.277  0.1647  0.3262  0.3897
  230MOL   C11628054   0.173   0.612   0.343 -0.1488 -0.3317  0.7018
  230MOL   C11728055   0.134   0.550   0.483  0.1552 -0.0429  0.0327
  230MOL   H11828056   0.211   0.524   0.291 -2.5307 -0.2747 -1.1957
  230MOL   H11928057   0.256   0.682   0.353  1.0622 -1.7954  1.1223
  230MOL   H12028058   0.083   0.629   0.539 -0.1856 -0.6649  0.6064
  230MOL   H12128059   0.064   0.467   0.473  0.0772 -0.1990  1.6595
  230MOL   H12228060   0.223   0.512   0.533 -0.3394 -2.1415 -0.6283
  231MOL     C128061   7.436   6.487   2.610 -0.2354  0.1560 -0.1323
  231MOL     C228062   7.465   6.351   2.534 -0.0344 -0.0461  0.0454
  231MOL     H328063   7.328   6.488   2.595 -0.3178  2.3517  0.4937
  231MOL     H428064   7.479   6.582   2.580  0.1142  0.7917  2.2331
  231MOL     H528065   7.571   6.330   2.545  0.3967  2.3066  0.5317
  231MOL     H628066   7.400   6.272   2.574 -2.0247  1.2288 -0.5931
  231MOL     H728067   7.456   6.450   2.711  0.4857 -0.8323 -0.6266
  231MOL     C828068   7.433   6.363   2.386  0.4182  0.2585  0.0770
  231MOL     C928069   7.483   6.248   2.300 -0.6466 -0.5600 -0.2928
  231MOL    H1028070   7.326   6.376   2.372  0.5018 -0.1908 -1.0579
  231MOL    H1128071   7.477   6.457   2.352 -0.7608  0.7078 -0.2288
  231MOL    H1228072   7.591   6.242   2.301 -0.4778  1.8823  1.5668
  231MOL    H1328073   7.449   6.156   2.347  1.2426 -1.0532  0.1176
  231MOL    C1428074   7.431   6.239   2.152  0.3229  0.2712  0.3797
  231MOL    C1528075   7.475   6.112   2.068 -0.8908  0.3438 -0.1043
  231MOL    H1628076   7.322   6.233   2.147  0.3960  0.2836 -1.3644
  231MOL    H1728077   7.447   6.334   2.102  1.1282  0.0255  0.1663
  231MOL    H1828078   7.584   6.120   2.073 -1.0203  0.8545  2.7712
  231MOL    H1928079   7.454   6.021   2.123 -0.0174 -0.4740 -1.1073
  231MOL    C2028080   7.441   6.109   1.917 -0.0670  0.3035  0.5559
  231MOL    C2128081   7.509   5.992   1.846 -0.4362 -0.2709 -0.0448
  231MOL    H2228082   7.334   6.087   1.915 -0.1236  0.3356  2.3705
  231MOL    H2328083   7.461   6.205   1.870  0.8768 -0.3610 -0.4161
  231MOL    H2428084   7.617   6.000   1.858 -0.3301 -0.5995 -0.7870
  231MOL    H2528085   7.477   5.897   1.889  2.0318 -1.9198 -1.7086
  231MOL    C2628086   7.470   5.974   1.701  0.1298 -0.1447  0.3699
  231MOL    C2728087   7.552   5.872   1.625 -0.7633  0.5101 -0.0905
  231MOL    H2828088   7.367   5.939   1.707  1.0969 -3.2143 -0.2641
  231MOL    H2928089   7.453   6.067   1.646 -1.4072  0.9850  2.6525
  231MOL    H3028090   7.655   5.892   1.656 -0.9744 -0.3104  1.1865
  231MOL    H3128091   7.531   5.771   1.660 -0.0424 -0.2589 -1.8138
  231MOL    C3228092   7.541   5.886   1.475  0.8940 -0.1779  0.8807
  231MOL    C3328093   7.590   5.759   1.398  0.6010  0.5352  0.0124
  231MOL    H3428094   7.436   5.895   1.446  1.2767  1.2971 -0.0773
  231MOL    H3528095   7.591   5.980   1.452 -0.0921  0.0178 -0.5233
  231MOL    H3628096   0.005   5.751   1.416  0.6326  2.7810  0.9131
  231MOL    H3728097   7.536   5.672   1.436  0.3253  0.6309 -0.1650
  231MOL    C3828098   7.570   5.778   1.252 -0.0468  0.8382  0.6870
  231MOL    C3928099   7.619   5.660   1.177  0.9361 -0.4245 -0.1770
  231MOL    H4028100   7.465   5.802   1.238  0.0635 -0.8184 -3.6656
  231MOL    H4128101   7.619   5.871   1.222 -1.7111  1.7696  0.7619
  231MOL    H4228102   0.027   5.639   1.212  1.1103  0.5491 -0.0615
  231MOL    H4328103   7.558   5.571   1.194  0.6808 -0.1230  0.4698
  231MOL    C4428104   7.635   5.695   1.024 -0.7580  0.0576  0.4748
  231MOL    C4528105   7.688   5.576   0.951 -0.4782  0.1003 -0.2833
  231MOL    H4628106   7.540   5.729   0.982 -0.1074  0.6951 -0.4998
  231MOL    H4728107   0.014   5.778   1.020 -1.1446  0.3315 -0.6484
  231MOL    H4828108   0.099   5.557   0.980  0.1721 -0.2079 -2.6695
  231MOL    H4928109   7.639   5.488   0.991  1.2214 -1.3856 -1.4050
  231MOL    C5028110   7.675   5.586   0.796 -0.6628  0.2788  0.1003
  231MOL    C5128111   0.020   5.725   0.730  0.0633  0.3067  1.2665
  231MOL    H5228112   0.056   5.510   0.767 -0.4958 -0.1292  1.5601
  231MOL    H5328113   7.574   5.564   0.762  0.1669 -0.8734 -1.6751
  231MOL    H5428114   7.683   5.728   0.625  2.0515 -3.2604  0.5501
  231MOL    H5528115   7.641   5.789   0.783 -0.2530  0.9042  0.1154
  231MOL    C5628116   0.166   5.769   0.749  0.3397 -0.4536  0.7820
  231MOL    C5728117   0.208   5.888   0.651  0.3959  0.2772  0.0908
  231MOL    H5828118   0.182   5.788   0.855 -1.6200 -1.6104  1.3199
  231MOL    H5928119   0.232   5.687   0.719 -0.1111 -0.9073  1.0037
  231MOL    H6028120   0.164   5.875   0.552  0.4881 -0.0552  0.0936
  231MOL    H6128121   0.164   5.984   0.680 -0.2796 -0.5557  1.8705
  231MOL    C6228122   0.360   5.903   0.622 -0.2955 -0.2838  0.0903
  231MOL    C6328123   0.387   6.003   0.511  0.0635  0.1894  0.3451
  231MOL    H6428124   0.407   5.932   0.716 -1.4615 -0.0524  0.6107
  231MOL    H6528125   0.396   5.803   0.597 -0.3848 -0.9325  2.4032
  231MOL    H6628126   0.341   5.968   0.419 -0.4552  0.1906  0.6055
  231MOL    H6728127   0.351   6.099   0.547  0.4555  0.1626  0.8045
  231MOL    C6828128   0.539   6.022   0.474  0.2568 -0.4613  0.2867
  231MOL    C6928129   0.562   6.149   0.392  0.1706 -0.0457  0.4629
  231MOL    H7028130   0.597   6.016   0.566  0.5375 -0.5204  0.1074
  231MOL    H7128131   0.573   5.932   0.422 -0.9433  0.2777 -1.8295
  231MOL    H7228132   0.487   6.147   0.314  0.8410 -0.9451 -0.1641
  231MOL    H7328133   0.538   6.225   0.467 -0.2464 -1.0242  1.3395
  231MOL    C7428134   0.703   6.181   0.330  0.3316 -0.0817  0.0931
  231MOL    C7528135   0.813   6.190   0.435  0.1799 -0.1963 -0.1772
  231MOL    H7628136   0.729   6.103   0.258 -0.2645 -0.9515  0.8053
  231MOL    H7728137   0.707   6.276   0.278 -1.7470  0.1445  0.2801
  231MOL    H7828138   0.786   6.248   0.523  2.0846 -0.6989  0.7582
  231MOL    H7928139   0.825   6.089   0.474  0.0293 -0.0544  0.2392
  231MOL    C8028140   0.944   6.249   0.382 -0.4459  0.0722  0.0062
  231MOL    C8128141   0.945   6.401   0.380 -0.5243  0.0129  0.3459
  231MOL    H8228142   1.019   6.221   0.456 -0.4586 -0.8465 -0.3238
  231MOL    H8328143   0.952   6.206   0.282  0.0166  0.5630 -0.1692
  231MOL    H8428144   0.848   6.435   0.344 -0.6012 -0.2372  0.3179
  231MOL    H8528145   0.943   6.444   0.480 -0.8627 -0.1210  0.3987
  231MOL    C8628146   1.046   6.450   0.276 -0.3365  0.3785  1.1332
  231MOL    C8728147   1.117   6.584   0.312 -0.1486  0.8684  0.4669
  231MOL    H8828148   1.126   6.376   0.282  0.2131  1.0154  1.7496
  231MOL    H8928149   1.008   6.446   0.174  1.4261  1.6391  0.3997
  231MOL    H9028150   1.040   6.661   0.304 -0.0798  1.1529  2.2071
  231MOL    H9128151   1.148   6.585   0.417  0.9976 -1.1525  0.1719
  231MOL    C9228152   1.229   6.625   0.213 -0.1168 -0.0108 -0.1387
  231MOL    C9328153   1.263   6.783   0.219  0.4411 -0.2019  0.5007
  231MOL    H9428154   1.316   6.559   0.220 -0.5894 -0.8827 -2.1655
  231MOL    H9528155   1.188   6.596   0.116 -1.9157  0.5104  0.4495
  231MOL    H9628156   1.167   6.835   0.221  1.4605  1.6847  1.1757
  231MOL    H9728157   1.318   6.788   0.313 -1.5279  1.1353  1.6241
  231MOL    C9828158   1.361   6.819   0.103  0.2992  0.0796  0.1142
  231MOL    C9928159   1.411   6.956   0.103 -0.0226 -0.0965  0.3689
  231MOL   H10028160   1.450   6.758   0.117 -0.7345 -1.5699 -0.3525
  231MOL   H10128161   1.325   6.803   0.001 -0.0307  2.3382 -0.1547
  231MOL   H10228162   1.454   6.978   0.200 -1.9838  0.7450  1.0807
  231MOL   H10328163   1.491   6.960   0.029  0.0272 -0.5623  0.3954
  231MOL   C10428164   1.308   7.060   0.058  0.2208 -0.4729  0.3124
  231MOL   C10528165   1.365   7.192   0.031  0.0622 -0.0067 -0.5127
  231MOL   H10628166   1.253   7.024   7.662 -0.8146 -1.2012  1.2343
  231MOL   H10728167   1.231   7.054   0.135  1.6165  0.2305  1.7721
  231MOL   H10828168   1.415   7.223   0.123 -0.2366 -3.7731  1.0019
  231MOL   H10928169   1.429   7.189   7.635  1.5612  0.8905  0.5346
  231MOL   C11028170   1.260   7.302   0.006  0.4057 -0.7418  0.3174
  231MOL   C11128171   1.316   7.438   7.661  0.3827  0.3315  0.5178
  231MOL   H11228172   1.211   7.275   7.604 -0.2251 -0.0138  0.4376
  231MOL   H11328173   1.185   7.306   0.085 -1.4128 -4.2681 -1.1399
  231MOL   H11428174   1.402   7.422   7.597  1.3236  2.0690  1.3176
  231MOL   H11528175   1.239   7.491   7.605 -0.7941 -0.8738  0.9524
  231MOL   C11628176   1.363   7.518   0.090 -0.1520 -0.9423  0.3755
  231MOL   C11728177   1.387   7.666   0.052 -0.1573  0.2220  0.4943
  231MOL   H11828178   1.299   7.501   0.177 -0.7273  0.4331  0.2320
  231MOL   H11928179   1.461   7.487   0.126  0.2509 -1.8875 -1.5027
  231MOL   H12028180   1.438   0.021   0.136 -0.7811  0.2940  0.8338
  231MOL   H12128181   1.449   7.669   7.655 -0.7419  0.6020  0.0994
  231MOL   H12228182   1.296   0.030   0.033 -0.9559 -1.1158  0.3151
  232MOL     C128183   3.522   5.487   6.318  0.6698  0.3589  0.0657
  232MOL     C228184   3.672   5.495   6.307  0.0967  0.2207 -0.1575
  232MOL     H328185   3.484   5.558   6.391  0.5748  0.7986 -0.4134
  232MOL     H428186   3.494   5.390   6.360 -0.9698  0.0262 -1.7312
  232MOL     H528187   3.692   5.600   6.284 -1.4220  0.6325  0.3374
  232MOL     H628188   3.723   5.476   6.402  1.1750  3.0425 -0.1171
  232MOL     H728189   3.472   5.503   6.223  2.9509  1.9626 -0.9065
  232MOL     C828190   3.724   5.396   6.197  0.3061 -0.0277 -0.2718
  232MOL     C928191   3.878   5.381   6.187 -0.0324 -0.3252 -0.1173
  232MOL    H1028192   3.684   5.297   6.216  1.0743 -0.5829 -1.4467
  232MOL    H1128193   3.691   5.434   6.100  2.4775 -0.5791 -1.2627
  232MOL    H1228194   3.912   5.468   6.130  1.4142 -0.8453 -0.0787
  232MOL    H1328195   3.928   5.380   6.284  1.1256 -3.3614 -0.6896
  232MOL    C1428196   3.911   5.246   6.122  0.0529  0.2787  0.2858
  232MOL    C1528197   4.050   5.243   6.057  0.6793  0.0331 -0.5022
  232MOL    H1628198   3.912   5.163   6.193  1.5766  0.2564  0.2500
  232MOL    H1728199   3.848   5.224   6.036  1.0234  1.0094 -0.6142
  232MOL    H1828200   4.058   5.324   5.985 -2.2229  0.2474 -0.6489
  232MOL    H1928201   4.131   5.254   6.129  1.8273 -0.6959 -1.6444
  232MOL    C2028202   4.075   5.106   5.980 -0.0600 -0.4297  0.2866
  232MOL    C2128203   4.186   5.106   5.881 -0.0830  0.3515  0.2920
  232MOL    H2228204   4.092   5.033   6.059  1.5709  1.1130  1.4049
  232MOL    H2328205   3.983   5.069   5.935 -0.8512  0.3938  1.2223
  232MOL    H2428206   4.181   5.199   5.824  1.5894  0.9490  1.0804
  232MOL    H2528207   4.277   5.107   5.941  0.4514 -0.3843 -0.4997
  232MOL    C2628208   4.203   4.979   5.798 -0.0651 -0.0671 -0.1260
  232MOL    C2728209   4.331   4.985   5.711 -0.5284 -0.1535  0.1661
  232MOL    H2828210   4.197   4.891   5.863 -1.7918 -1.2541 -1.8500
  232MOL    H2928211   4.120   4.970   5.729 -1.8310 -1.7444  2.1183
  232MOL    H3028212   4.349   5.081   5.662 -0.4437 -1.3184 -2.1680
  232MOL    H3128213   4.421   4.981   5.772 -2.8476  4.9726  4.3283
  232MOL    C3228214   4.336   4.868   5.609  0.5341 -0.2388  0.0252
  232MOL    C3328215   4.475   4.840   5.559  0.5054  0.2986 -0.1628
  232MOL    H3428216   4.293   4.783   5.662 -0.7523  1.0060  1.0219
  232MOL    H3528217   4.268   4.889   5.526  0.5044  1.3091  0.4146
  232MOL    H3628218   4.547   4.918   5.538 -1.5307  1.9436 -1.2638
  232MOL    H3728219   4.529   4.786   5.637  0.5220  0.3785 -0.1196
  232MOL    C3828220   4.485   4.761   5.427  0.9251 -0.5374  0.6498
  232MOL    C3928221   4.623   4.688   5.421 -0.5844  0.1150 -0.1592
  232MOL    H4028222   4.412   4.680   5.429 -0.3255  0.6028  2.5893
  232MOL    H4128223   4.468   4.825   5.340 -0.0467  0.0211  1.2535
  232MOL    H4228224   4.700   4.762   5.442 -0.5199  0.6081 -2.0601
  232MOL    H4328225   4.610   4.602   5.487 -1.4104  1.9296  2.0804
  232MOL    C4428226   4.645   4.624   5.287  0.3256  0.0610 -0.9757
  232MOL    C4528227   4.780   4.557   5.265 -0.0486  0.5861  0.6822
  232MOL    H4628228   4.568   4.550   5.268  0.6807  0.1823 -3.0002
  232MOL    H4728229   4.632   4.708   5.219  1.6974 -0.1139 -1.4673
  232MOL    H4828230   4.856   4.633   5.284 -0.5786  1.2540  0.1663
  232MOL    H4928231   4.790   4.473   5.333  1.4623 -0.4506 -0.7922
  232MOL    C5028232   4.806   4.513   5.121  0.6717  0.2098 -0.4357
  232MOL    C5128233   4.816   4.630   5.018  0.7200 -0.4660 -0.2378
  232MOL    H5228234   4.891   4.446   5.113 -0.8017 -2.0950  2.0955
  232MOL    H5328235   4.724   4.444   5.099  1.4400 -1.8743  2.7813
  232MOL    H5428236   4.730   4.696   5.028  0.7534 -0.1047 -2.1167
  232MOL    H5528237   4.900   4.692   5.050  1.4578 -2.4148  1.7164
  232MOL    C5628238   4.840   4.581   4.881 -0.3430 -0.0157  0.1193
  232MOL    C5728239   4.875   4.681   4.776 -0.0664  0.2863  0.8246
  232MOL    H5828240   4.926   4.514   4.883  0.9594  1.6104  0.4662
  232MOL    H5928241   4.757   4.524   4.840 -1.2349  0.8074  0.7409
  232MOL    H6028242   4.799   4.759   4.775 -2.3368 -1.8410 -1.1648
  232MOL    H6128243   4.968   4.730   4.804  0.8764 -1.5924  1.0504
  232MOL    C6228244   4.876   4.617   4.629 -0.3160  0.5464  0.5009
  232MOL    C6328245   4.957   4.711   4.535  0.1673 -0.1152  0.2710
  232MOL    H6428246   4.932   4.524   4.641 -1.2308 -0.0817 -0.0138
  232MOL    H6528247   4.772   4.589   4.609 -0.4249  0.3226  1.3296
  232MOL    H6628248   4.930   4.814   4.556 -0.7251 -0.5460  1.2905
  232MOL    H6728249   5.064   4.712   4.557 -0.1796 -1.3264  2.1528
  232MOL    C6828250   4.939   4.656   4.396  0.0966 -0.0798 -0.4417
  232MOL    C6928251   5.006   4.763   4.303  0.2317 -0.4104  1.1075
  232MOL    H7028252   4.986   4.559   4.384 -0.3216 -0.2328 -0.8663
  232MOL    H7128253   4.833   4.650   4.370  0.2369 -0.5234 -0.9093
  232MOL    H7228254   4.951   4.856   4.303  0.5266 -0.1994 -1.1850
  232MOL    H7328255   5.109   4.789   4.329  1.0407 -0.2597 -2.0426
  232MOL    C7428256   5.006   4.710   4.159 -0.1929  0.5380 -0.8715
  232MOL    C7528257   5.116   4.601   4.134  0.5631  0.5941  0.5284
  232MOL    H7628258   4.906   4.684   4.125  0.0778  0.4804 -1.6311
  232MOL    H7728259   5.027   4.801   4.102  1.0395  0.3610 -0.7277
  232MOL    H7828260   5.209   4.623   4.186  0.4996 -1.7389  1.6800
  232MOL    H7928261   5.081   4.507   4.177 -0.2649  0.5934 -0.1233
  232MOL    C8028262   5.151   4.585   3.986  0.2245  0.4182 -0.6008
  232MOL    C8128263   5.279   4.501   3.965 -0.8197 -0.3541  0.0130
  232MOL    H8228264   5.074   4.536   3.926 -0.0599 -1.5116  1.2781
  232MOL    H8328265   5.172   4.686   3.950 -1.2288  0.4714 -1.3480
  232MOL    H8428266   5.361   4.570   3.980 -3.0252  2.1833  0.8520
  232MOL    H8528267   5.284   4.422   4.040  0.0306  0.6950  1.0661
  232MOL    C8628268   5.284   4.425   3.827 -0.2034 -0.1010 -0.3293
  232MOL    C8728269   5.417   4.344   3.813  0.0156  0.1179 -0.6131
  232MOL    H8828270   5.192   4.370   3.810 -0.0196  0.0603 -1.9476
  232MOL    H8928271   5.292   4.505   3.753 -0.7638  0.3889  0.1389
  232MOL    H9028272   5.495   4.404   3.859 -0.7536 -0.1547  1.0820
  232MOL    H9128273   5.406   4.255   3.875 -0.5023  0.4509 -0.2219
  232MOL    C9228274   5.466   4.318   3.669 -0.2473  0.3535 -0.3370
  232MOL    C9328275   5.594   4.228   3.681  0.2948  0.4268  0.3295
  232MOL    H9428276   5.393   4.251   3.625  0.1183 -0.5689  0.4325
  232MOL    H9528277   5.470   4.413   3.616  0.1219  1.4424  1.6128
  232MOL    H9628278   5.660   4.266   3.759 -0.6222  0.9100  0.8845
  232MOL    H9728279   5.580   4.123   3.707 -0.8386  0.3650 -0.5041
  232MOL    C9828280   5.694   4.247   3.562  0.2570  0.0315 -0.5540
  232MOL    C9928281   5.818   4.169   3.579 -0.6523 -0.0210 -0.1628
  232MOL   H10028282   5.644   4.193   3.481 -0.5108 -0.1586  0.0359
  232MOL   H10128283   5.716   4.346   3.524 -2.0115  0.2770 -1.3276
  232MOL   H10228284   5.865   4.207   3.670 -0.1160  1.9181 -1.2299
  232MOL   H10328285   5.807   4.063   3.605  1.9731 -0.2802  0.0592
  232MOL   C10428286   5.921   4.177   3.468  0.5310 -0.5578 -0.0170
  232MOL   C10528287   6.061   4.125   3.509  0.8067  0.5566  0.2755
  232MOL   H10628288   5.901   4.114   3.381  0.3535 -3.1566  1.8143
  232MOL   H10728289   5.949   4.277   3.435 -0.7218  0.1502  1.0094
  232MOL   H10828290   6.119   4.193   3.571  1.2962  0.0030  0.4283
  232MOL   H10928291   6.050   4.032   3.564 -0.8432  0.4800 -0.1515
  232MOL   C11028292   6.148   4.073   3.391  0.7044  0.2069 -0.4076
  232MOL   C11128293   6.175   4.174   3.281 -1.0551  0.9092  0.3222
  232MOL   H11228294   6.241   4.028   3.426  0.2906  0.3371  0.9198
  232MOL   H11328295   6.097   3.992   3.339  0.7833 -1.1955  1.6390
  232MOL   H11428296   6.212   4.124   3.192 -2.1446 -1.6856  1.2838
  232MOL   H11528297   6.076   4.211   3.256 -0.7871  2.2503  1.1612
  232MOL   C11628298   6.267   4.288   3.325  0.5538 -0.5243 -0.6206
  232MOL   C11728299   6.264   4.401   3.230 -0.0839 -0.5692 -0.1401
  232MOL   H11828300   6.229   4.333   3.417  2.4079 -1.5874  0.6951
  232MOL   H11928301   6.365   4.250   3.355  0.6871  1.0949  1.1089
  232MOL   H12028302   6.327   4.373   3.145 -0.4746 -0.5473 -0.4349
  232MOL   H12128303   6.166   4.421   3.188 -0.6620  2.0200  2.3235
  232MOL   H12228304   6.314   4.489   3.270 -1.0158  0.6099 -1.5230
  233MOL     C128305   0.710   1.748   0.913 -0.3215 -0.1487  0.5552
  233MOL     C228306   0.624   1.631   0.878  0.2857  0.1231 -0.5378
  233MOL     H328307   0.772   1.790   0.834  1.6115 -2.1936  0.9313
  233MOL     H428308   0.784   1.726   0.990  1.0215 -2.6292 -1.3596
  233MOL     H528309   0.560   1.594   0.958  0.8044  0.0737 -0.1410
  233MOL     H628310   0.551   1.669   0.806 -1.6542 -1.8077  0.3537
  233MOL     H728311   0.659   1.833   0.959  0.6336  1.3572 -1.0849
  233MOL     C828312   0.705   1.528   0.802 -0.7355  0.4439 -0.0391
  233MOL     C928313   0.601   1.425   0.738 -1.1847 -0.1500  0.3643
  233MOL    H1028314   0.768   1.564   0.721  0.1060  1.1938  0.9313
  233MOL    H1128315   0.766   1.481   0.880 -0.1733 -0.5792 -1.0783
  233MOL    H1228316   0.533   1.377   0.808  0.3840 -1.7781  0.7884
  233MOL    H1328317   0.536   1.480   0.670 -0.0982 -1.0917 -1.4822
  233MOL    C1428318   0.668   1.323   0.647 -0.1963 -0.1781  0.0002
  233MOL    C1528319   0.564   1.219   0.596  0.1138 -0.6000  0.8321
  233MOL    H1628320   0.709   1.370   0.558 -0.5019 -1.5190 -0.8645
  233MOL    H1728321   0.756   1.289   0.703 -0.0301  0.1835 -0.0374
  233MOL    H1828322   0.507   1.166   0.672 -0.2044  0.1329  1.1095
  233MOL    H1928323   0.490   1.275   0.538 -0.5815 -1.7975  0.5351
  233MOL    C2028324   0.631   1.117   0.508 -0.5257  0.6726  0.2818
  233MOL    C2128325   0.539   1.028   0.437  0.5035 -0.1242  0.3015
  233MOL    H2228326   0.686   1.175   0.434  0.8366 -1.6809 -0.6078
  233MOL    H2328327   0.707   1.058   0.561 -1.0108  0.9383  1.2957
  233MOL    H2428328   0.483   0.969   0.510  0.6364 -1.5747 -0.7371
  233MOL    H2528329   0.471   1.081   0.370  2.3299  1.3169 -0.4328
  233MOL    C2628330   0.609   0.923   0.348 -0.2277 -0.2119 -0.3545
  233MOL    C2728331   0.515   0.853   0.254 -0.1421  0.1193 -0.7605
  233MOL    H2828332   0.684   0.974   0.287 -1.9236  2.7843 -0.0059
  233MOL    H2928333   0.668   0.849   0.402  0.4560  0.5993  0.0189
  233MOL    H3028334   0.423   0.819   0.303 -0.0559  0.1739 -0.5624
  233MOL    H3128335   0.482   0.927   0.181 -2.3456 -0.0057  0.0778
  233MOL    C3228336   0.570   0.723   0.192 -0.1857  0.2019  0.5554
  233MOL    C3328337   0.478   0.672   0.087  0.0896  0.6714  0.1229
  233MOL    H3428338   0.671   0.741   0.157  0.5396 -2.8573  0.9642
  233MOL    H3528339   0.577   0.648   0.271  0.0853 -1.0908 -0.6855
  233MOL    H3628340   0.387   0.648   0.142 -0.4387  2.4029  0.0393
  233MOL    H3728341   0.458   0.750   0.012 -2.3048 -0.0958 -0.0936
  233MOL    C3828342   0.540   0.548   0.009  0.1593  0.1120 -1.0654
  233MOL    C3928343   0.449   0.460   7.609  0.2119 -0.3835 -0.2692
  233MOL    H4028344   0.637   0.570   7.655  0.0165  2.1722 -0.3989
  233MOL    H4128345   0.579   0.476   0.080 -1.0274 -0.6446 -1.1685
  233MOL    H4228346   0.369   0.403   7.658 -1.1565 -0.2574 -2.3207
  233MOL    H4328347   0.389   0.523   7.545  1.0066 -0.7998 -1.4323
  233MOL    C4428348   0.526   0.360   7.521  0.3952 -0.1166 -0.0282
  233MOL    C4528349   0.442   0.287   7.417  0.2849  0.0136  0.2981
  233MOL    H4628350   0.600   0.417   7.465 -0.3046  2.0435  1.2000
  233MOL    H4728351   0.593   0.291   7.572  0.3716  1.0536  1.6215
  233MOL    H4828352   0.375   0.225   7.478  1.4605 -0.5100  1.0997
  233MOL    H4928353   0.382   0.364   7.369 -2.9095 -2.0491  0.7824
  233MOL    C5028354   0.508   0.197   7.313  0.0957  0.0973 -0.0982
  233MOL    C5128355   0.413   0.160   7.199 -0.2926  0.4169  0.0848
  233MOL    H5228356   0.606   0.235   7.284 -0.0268  0.8352  0.4250
  233MOL    H5328357   0.547   0.108   7.361 -1.4042 -2.4131 -3.3361
  233MOL    H5428358   0.354   0.077   7.239  3.4390 -1.7941  1.2817
  233MOL    H5528359   0.344   0.238   7.169 -1.9437 -0.8601  0.4929
  233MOL    C5628360   0.486   0.103   7.079  0.1888 -0.5392  0.0377
  233MOL    C5728361   0.388   0.041   6.985  0.0246 -0.7180  0.5698
  233MOL    H5828362   0.531   0.180   7.016 -0.5609  0.9167  1.2372
  233MOL    H5928363   0.554   0.027   7.115  1.8598  0.9452  0.0719
  233MOL    H6028364   0.350   7.649   7.043  0.2306 -1.1754  0.0445
  233MOL    H6128365   0.309   0.112   6.961 -0.0659 -0.7411  0.8034
  233MOL    C6228366   0.463   7.676   6.870 -0.5116 -0.3526  0.1922
  233MOL    C6328367   0.375   7.612   6.756  0.0776  0.2843 -0.0708
  233MOL    H6428368   0.515   0.064   6.817  1.1804  0.4410  2.9322
  233MOL    H6528369   0.534   7.603   6.909 -0.6821 -1.4064 -1.4141
  233MOL    H6628370   0.320   7.532   6.804  2.5134  0.4497  3.1846
  233MOL    H6728371   0.312   7.686   6.706  0.2336  0.3883 -0.1141
  233MOL    C6828372   0.469   7.546   6.657 -0.1759  0.1930  0.0939
  233MOL    C6928373   0.395   7.480   6.536 -0.6775  0.0484 -0.0535
  233MOL    H7028374   0.541   7.617   6.616  1.0129 -0.6751  0.6444
  233MOL    H7128375   0.532   7.475   6.709  1.7755 -0.0146 -2.4212
  233MOL    H7228376   0.311   7.421   6.573 -0.7754  0.6244  0.6589
  233MOL    H7328377   0.332   7.552   6.484  0.6355  0.3506 -1.2549
  233MOL    C7428378   0.479   7.405   6.433 -0.1227 -0.3009  0.8309
  233MOL    C7528379   0.398   7.373   6.304  0.0046 -0.7481 -0.2310
  233MOL    H7628380   0.566   7.463   6.403 -0.5961 -0.3022 -0.6031
  233MOL    H7728381   0.518   7.311   6.471  0.6879  0.6773  2.5057
  233MOL    H7828382   0.315   7.308   6.332 -0.5108  0.4757  1.1828
  233MOL    H7928383   0.342   7.462   6.275  2.4390  1.4616  1.6399
  233MOL    C8028384   0.492   7.327   6.184  0.4022 -0.7113 -0.6012
  233MOL    C8128385   0.402   7.263   6.073  0.2062 -0.0200  0.0024
  233MOL    H8228386   0.539   7.418   6.148  0.3933 -1.1250 -1.6783
  233MOL    H8328387   0.574   7.260   6.209  0.6339 -0.1466  0.1492
  233MOL    H8428388   0.376   7.159   6.092  0.8940 -0.1166  0.4169
  233MOL    H8528389   0.314   7.323   6.048  0.5811  0.6663  0.3221
  233MOL    C8628390   0.490   7.245   5.946 -0.2873  0.7185  0.9309
  233MOL    C8728391   0.401   7.188   5.835  0.0054 -0.4621 -0.1344
  233MOL    H8828392   0.536   7.342   5.930 -0.9416  1.1752  1.7825
  233MOL    H8928393   0.577   7.179   5.950 -0.2915  0.5851 -0.8670
  233MOL    H9028394   0.367   7.087   5.854  4.1292 -1.8284  0.4048
  233MOL    H9128395   0.312   7.251   5.835  0.5916  0.3803  0.1544
  233MOL    C9228396   0.468   7.202   5.697 -0.2616  0.3525  0.1448
  233MOL    C9328397   0.393   7.122   5.588 -0.2845  0.1083 -0.2854
  233MOL    H9428398   0.484   7.307   5.672 -1.1036  0.2241 -0.9460
  233MOL    H9528399   0.564   7.152   5.706 -0.7754 -0.2913  2.4393
  233MOL    H9628400   0.365   7.028   5.635 -1.8633  0.6971 -0.0148
  233MOL    H9728401   0.301   7.177   5.571 -0.2914  0.1725 -0.0425
  233MOL    C9828402   0.476   7.100   5.462 -0.7607 -0.3507 -0.0809
  233MOL    C9928403   0.397   7.038   5.346 -0.5152  0.1177 -0.1885
  233MOL   H10028404   0.515   7.197   5.432  1.4626 -0.1235  3.3173
  233MOL   H10128405   0.568   7.049   5.492 -1.1911 -0.7108  0.6254
  233MOL   H10228406   0.341   6.948   5.374 -0.5618 -0.0458 -0.8036
  233MOL   H10328407   0.324   7.110   5.311 -1.0247 -1.5060 -2.5955
  233MOL   C10428408   0.482   7.022   5.220 -0.1268 -0.3520  0.2762
  233MOL   C10528409   0.407   6.952   5.112  0.8846  0.1999 -0.7741
  233MOL   H10628410   0.517   7.118   5.182 -1.0789  0.1041  0.5331
  233MOL   H10728411   0.562   6.951   5.243 -1.0665 -1.4662  0.2020
  233MOL   H10828412   0.386   6.858   5.163  4.4854  0.6675  1.7468
  233MOL   H10928413   0.309   6.999   5.103  0.9218  0.4516  0.1253
  233MOL   C11028414   0.485   6.943   4.977  0.5178 -0.2820  0.4956
  233MOL   C11128415   0.407   6.888   4.858 -0.1607  0.1349 -0.1722
  233MOL   H11228416   0.517   7.046   4.956 -4.7766  1.5183  0.4915
  233MOL   H11328417   0.577   6.887   4.995 -0.4293 -2.4703 -1.3283
  233MOL   H11428418   0.365   6.791   4.886 -1.2182  0.6116 -0.0664
  233MOL   H11528419   0.322   6.950   4.831  1.2488  1.1972 -2.3001
  233MOL   C11628420   0.507   6.868   4.743  0.8342  0.0860 -0.7887
  233MOL   C11728421   0.449   6.779   4.637 -0.0229 -0.9761  0.2776
  233MOL   H11828422   0.547   6.966   4.716  0.9798  0.7933  1.8388
  233MOL   H11928423   0.600   6.823   4.779  0.7014 -0.0840 -0.6588
  233MOL   H12028424   0.407   6.695   4.693 -0.1627 -0.3836  1.0527
  233MOL   H12128425   0.367   6.830   4.586 -1.0153 -1.6451  1.1772
  233MOL   H12228426   0.523   6.742   4.565  0.6425  2.7918 -1.0637
  234MOL     C128427   1.295   0.902   6.719  0.5917  0.2960 -0.0102
  234MOL     C228428   1.226   0.785   6.640 -0.3290  0.0069  0.7326
  234MOL     H328429   1.398   0.874   6.744  1.8637  2.9193 -2.0176
  234MOL     H428430   1.245   0.935   6.809  2.0251  1.3358  0.4295
  234MOL     H528431   1.138   0.825   6.588  0.8362  0.6889 -0.7439
  234MOL     H628432   1.291   0.748   6.561 -0.2846 -0.4136  0.9659
  234MOL     H728433   1.315   0.990   6.658  0.4207 -0.5644 -1.3417
  234MOL     C828434   1.193   0.660   6.728 -0.7171 -0.4825  0.0581
  234MOL     C928435   1.125   0.544   6.649 -0.4037 -0.2938 -0.2949
  234MOL    H1028436   1.273   0.610   6.784 -0.8288 -0.8534 -0.1146
  234MOL    H1128437   1.132   0.694   6.812 -0.5914 -0.4984  0.1572
  234MOL    H1228438   1.097   0.467   6.721  0.1304  1.5194  1.9095
  234MOL    H1328439   1.035   0.573   6.596 -0.0476 -0.8026 -1.1942
  234MOL    C1428440   1.220   0.473   6.548  0.4040 -0.2268 -0.4428
  234MOL    C1528441   1.174   0.331   6.505  0.6505  0.9202 -0.2793
  234MOL    H1628442   1.240   0.541   6.465  3.4563  0.2073  0.5810
  234MOL    H1728443   1.313   0.461   6.604 -1.6254 -0.5100  3.0348
  234MOL    H1828444   1.118   0.283   6.585  1.8825 -0.4741 -0.2274
  234MOL    H1928445   1.087   0.338   6.440  1.0605 -1.7931 -1.1818
  234MOL    C2028446   1.285   0.243   6.441  0.3789  0.0937  0.0214
  234MOL    C2128447   1.242   0.094   6.433 -0.7056  0.0838 -0.5823
  234MOL    H2228448   1.311   0.289   6.346  0.4947 -1.1986 -0.5820
  234MOL    H2328449   1.378   0.248   6.499  0.4547 -2.1657  0.1422
  234MOL    H2428450   1.180   0.060   6.516 -1.5352 -3.3279 -2.5091
  234MOL    H2528451   1.168   0.088   6.353 -1.2786 -0.9721  0.0116
  234MOL    C2628452   1.362   7.685   6.421 -0.1543  0.2607  0.3708
  234MOL    C2728453   1.309   7.539   6.409 -0.8457 -0.9222  0.6153
  234MOL    H2828454   1.423   0.014   6.333  0.6746  0.9775  1.0926
  234MOL    H2928455   1.420   7.686   6.514 -0.4389 -1.6668  0.5850
  234MOL    H3028456   1.248   7.514   6.496 -0.2898 -1.2186  0.9222
  234MOL    H3128457   1.232   7.542   6.331 -0.2621 -0.4461  0.0533
  234MOL    C3228458   1.414   7.421   6.395  0.2885 -0.6307  0.4823
  234MOL    C3328459   1.473   7.413   6.255 -0.6275 -0.0750 -0.6178
  234MOL    H3428460   1.484   7.445   6.474  0.0338 -0.6758  0.7234
  234MOL    H3528461   1.357   7.334   6.426  0.3154 -0.8201  0.0123
  234MOL    H3628462   1.399   7.427   6.176 -2.2977 -2.4718  0.4716
  234MOL    H3728463   1.543   7.497   6.256 -0.5123 -0.1749 -0.1864
  234MOL    C3828464   1.545   7.275   6.232 -0.0531 -0.7334  0.1190
  234MOL    C3928465   1.618   7.279   6.093 -0.2188  0.3014  0.0913
  234MOL    H4028466   1.624   7.268   6.307  1.5450  3.0178 -1.0994
  234MOL    H4128467   1.474   7.193   6.223  0.3583 -1.1224  0.3695
  234MOL    H4228468   1.666   7.375   6.071  1.7787 -0.1993  2.0593
  234MOL    H4328469   1.692   7.199   6.090 -0.1520  0.2450  2.3036
  234MOL    C4428470   1.514   7.258   5.988  0.7777 -0.5271  0.6945
  234MOL    C4528471   1.571   7.241   5.852 -0.0454 -0.2847  0.1525
  234MOL    H4628472   1.465   7.165   6.016 -2.8269  1.4430  1.1870
  234MOL    H4728473   1.433   7.330   5.992  0.4385 -0.8624 -0.0379
  234MOL    H4828474   1.652   7.169   5.851 -0.2378 -0.5081  0.5044
  234MOL    H4928475   1.485   7.203   5.797 -0.6979  1.0186  0.2606
  234MOL    C5028476   1.639   7.369   5.799  0.0451 -0.0938  0.4060
  234MOL    C5128477   1.691   7.356   5.657 -0.6865 -0.4800 -0.3761
  234MOL    H5228478   1.568   7.452   5.800 -0.6091 -0.6474 -0.2051
  234MOL    H5328479   1.724   7.410   5.853  1.5994 -2.5006 -0.1269
  234MOL    H5428480   1.794   7.320   5.658 -0.6249 -0.2835  0.1458
  234MOL    H5528481   1.624   7.298   5.593  0.0015  0.7936 -2.3039
  234MOL    C5628482   1.699   7.494   5.592 -0.6499  0.0819 -1.1313
  234MOL    C5728483   1.824   7.574   5.631  0.3630 -0.5578  0.1538
  234MOL    H5828484   1.701   7.474   5.484 -0.0431  0.1217 -1.1304
  234MOL    H5928485   1.600   7.539   5.599 -0.3702  1.0519 -3.1831
  234MOL    H6028486   1.836   7.593   5.738 -1.3723  0.6174  0.1515
  234MOL    H6128487   1.910   7.514   5.602 -1.2863 -3.5457  1.2735
  234MOL    C6228488   1.818   0.022   5.567  0.1672 -0.8086  0.9299
  234MOL    C6328489   1.930   0.126   5.593  0.0667  0.4442  0.1627
  234MOL    H6428490   1.813   7.690   5.461 -0.7310  2.9153  0.0687
  234MOL    H6528491   1.719   0.066   5.580  0.0092 -0.4814 -1.1704
  234MOL    H6628492   1.918   0.162   5.696 -0.0784  4.1228 -1.0612
  234MOL    H6728493   2.025   0.077   5.572 -0.7780 -0.7579 -0.9645
  234MOL    C6828494   1.926   0.250   5.505  0.5254 -0.0381 -0.5920
  234MOL    C6928495   2.019   0.362   5.556  0.5355 -0.5400  0.7644
  234MOL    H7028496   1.951   0.225   5.402  1.3054  1.7893 -0.8710
  234MOL    H7128497   1.825   0.287   5.487  0.0979 -0.7886  0.2513
  234MOL    H7228498   1.976   0.400   5.649  3.8717  2.7204  1.0788
  234MOL    H7328499   2.122   0.331   5.578  1.2233  1.6310  0.7100
  234MOL    C7428500   2.047   0.483   5.468  0.3812 -0.6058 -0.2237
  234MOL    C7528501   2.124   0.589   5.538  0.1061  0.4551 -0.9034
  234MOL    H7628502   2.100   0.455   5.377  1.6133  1.3180 -0.1204
  234MOL    H7728503   1.949   0.522   5.442  1.5697  1.5928 -1.5826
  234MOL    H7828504   2.094   0.586   5.642  0.2263  1.6853 -0.8254
  234MOL    H7928505   2.232   0.575   5.533  0.3770  1.6705  1.0603
  234MOL    C8028506   2.097   0.725   5.481 -0.5306 -0.3588  0.1924
  234MOL    C8128507   2.166   0.831   5.564  0.0796 -0.1788 -0.2061
  234MOL    H8228508   2.140   0.730   5.381  0.5637 -2.7869  0.5161
  234MOL    H8328509   1.988   0.736   5.480 -0.8901 -3.1141  2.6253
  234MOL    H8428510   2.123   0.829   5.665  1.7907  2.1508  0.6093
  234MOL    H8528511   2.273   0.813   5.570 -0.1073 -1.3399 -0.1142
  234MOL    C8628512   2.145   0.969   5.508  0.3059  1.0034  0.1751
  234MOL    C8728513   2.189   1.087   5.601  0.5765  0.1846 -0.0906
  234MOL    H8828514   2.179   0.966   5.404 -0.5016 -0.3577 -0.0550
  234MOL    H8928515   2.036   0.978   5.508  0.2034 -0.0550  1.8532
  234MOL    H9028516   2.124   1.081   5.689  0.1651 -2.1820 -0.5135
  234MOL    H9128517   2.290   1.079   5.640  0.0264 -1.0765  1.1250
  234MOL    C9228518   2.180   1.233   5.543 -0.4888 -0.1767 -0.0198
  234MOL    C9328519   2.309   1.292   5.479  0.5507  0.0167 -0.0751
  234MOL    H9428520   2.098   1.237   5.471 -1.4613 -1.1003  1.0158
  234MOL    H9528521   2.158   1.304   5.623  2.8717  2.0275 -0.9434
  234MOL    H9628522   2.385   1.272   5.554 -1.8701 -1.2640  2.1075
  234MOL    H9728523   2.331   1.228   5.393  1.1568 -1.3527  1.0831
  234MOL    C9828524   2.297   1.436   5.431  0.6528  0.1608  0.5932
  234MOL    C9928525   2.436   1.496   5.394  0.1037 -0.5838 -0.3878
  234MOL   H10028526   2.225   1.441   5.348  1.8938 -0.9568 -0.5678
  234MOL   H10128527   2.261   1.500   5.512 -1.8629  0.2643 -0.5316
  234MOL   H10228528   2.426   1.604   5.379 -1.2036 -0.3848  1.7269
  234MOL   H10328529   2.489   1.485   5.489  0.7106 -1.7930 -0.8648
  234MOL   C10428530   2.504   1.420   5.272  0.0745 -0.0044 -0.0669
  234MOL   C10528531   2.647   1.466   5.251 -0.0027 -0.1248  0.4457
  234MOL   H10628532   2.515   1.317   5.306  1.4836 -0.3135 -1.4412
  234MOL   H10728533   2.439   1.420   5.185  0.2764  2.1183 -0.2450
  234MOL   H10828534   2.712   1.469   5.339  1.3821 -0.9335 -0.5347
  234MOL   H10928535   2.688   1.396   5.179 -1.0075  1.5019 -1.7660
  234MOL   C11028536   2.658   1.601   5.176  0.6922 -0.1261 -1.1764
  234MOL   C11128537   2.803   1.650   5.171  0.8464  0.3479  0.7232
  234MOL   H11228538   2.609   1.602   5.078 -1.6420 -1.3779 -0.0653
  234MOL   H11328539   2.604   1.676   5.234 -0.2481  0.0968 -2.2972
  234MOL   H11428540   2.848   1.647   5.270 -1.8459 -0.0524  1.9699
  234MOL   H11528541   2.859   1.592   5.098  0.7050  2.2166 -0.9063
  234MOL   C11628542   2.814   1.792   5.108 -0.0010 -0.2077  0.3657
  234MOL   C11728543   2.962   1.835   5.108 -0.1388  0.0812 -0.0492
  234MOL   H11828544   2.777   1.789   5.005  0.2024  1.6282  0.2215
  234MOL   H11928545   2.754   1.863   5.165 -1.6612 -2.5948  1.6814
  234MOL   H12028546   2.976   1.937   5.072  1.5899 -1.1089 -2.9257
  234MOL   H12128547   2.999   1.824   5.210  1.4706  1.8377 -0.4022
  234MOL   H12228548   3.020   1.763   5.050 -0.9482 -0.0678 -0.6709
  235MOL     C128549   3.167   2.356   5.872  0.4576 -0.2317 -0.3268
  235MOL     C228550   3.071   2.241   5.868 -0.4263  0.4239  0.6014
  235MOL     H328551   3.124   2.428   5.803  2.0445 -1.9987 -3.2758
  235MOL     H428552   3.266   2.335   5.833  0.5952  0.3052 -0.2685
  235MOL     H528553   2.965   2.262   5.884 -0.1661  3.0754 -0.9027
  235MOL     H628554   3.074   2.210   5.763 -5.0721  2.0727 -0.1205
  235MOL     H728555   3.182   2.396   5.973 -0.2363 -1.3391  0.2380
  235MOL     C828556   3.101   2.123   5.960  0.0066  0.7348 -0.1460
  235MOL     C928557   2.998   2.004   5.961  1.2041 -0.2829 -0.0917
  235MOL    H1028558   3.196   2.072   5.944 -0.2614  0.5949 -1.3090
  235MOL    H1128559   3.103   2.165   6.061  0.5161 -1.5365  0.8402
  235MOL    H1228560   2.896   2.037   5.942  1.0032 -0.8557 -0.0230
  235MOL    H1328561   3.018   1.933   5.881  2.7525  0.4424 -0.3687
  235MOL    C1428562   2.999   1.929   6.091  0.0669 -0.1440 -0.6131
  235MOL    C1528563   3.134   1.864   6.123 -0.6674 -1.0687 -0.4204
  235MOL    H1628564   2.978   1.999   6.172  1.7789  1.8457 -1.8410
  235MOL    H1728565   2.910   1.866   6.092 -1.3183  1.7725 -0.6565
  235MOL    H1828566   3.185   1.831   6.032 -0.2063  1.1475 -0.9861
  235MOL    H1928567   3.203   1.938   6.162 -2.6569  0.8891 -0.5543
  235MOL    C2028568   3.122   1.742   6.219 -0.1893 -0.0160 -0.3652
  235MOL    C2128569   3.250   1.679   6.262 -0.2779 -0.3992  0.4667
  235MOL    H2228570   3.081   1.768   6.317  0.6171 -1.2570  0.3160
  235MOL    H2328571   3.063   1.659   6.181  1.4303 -1.2026 -0.3362
  235MOL    H2428572   3.311   1.674   6.172 -0.4513  1.5355  0.2288
  235MOL    H2528573   3.303   1.744   6.331  0.8323 -0.2616 -0.4974
  235MOL    C2628574   3.238   1.529   6.311 -0.7897 -0.1423  0.0072
  235MOL    C2728575   3.251   1.513   6.469 -0.0393 -0.5170 -0.8030
  235MOL    H2828576   3.163   1.475   6.253 -1.3343  2.2417 -1.5946
  235MOL    H2928577   3.328   1.479   6.275 -0.7390  1.5956 -2.3730
  235MOL    H3028578   3.262   1.406   6.486 -0.9550 -0.7741 -1.7387
  235MOL    H3128579   3.338   1.570   6.502 -1.0641  0.6192 -0.0515
  235MOL    C3228580   3.124   1.563   6.544  0.7278  0.7105  1.0063
  235MOL    C3328581   3.136   1.559   6.695  0.0969  0.0134  0.2789
  235MOL    H3428582   3.102   1.666   6.517 -0.7916  1.0945  3.5272
  235MOL    H3528583   3.032   1.510   6.520  0.3294  1.7543  0.2326
  235MOL    H3628584   3.231   1.605   6.721  0.6654 -0.1643 -1.4204
  235MOL    H3728585   3.060   1.625   6.738  1.2371  1.0549  0.7030
  235MOL    C3828586   3.121   1.414   6.744 -0.4343  0.2758 -0.1852
  235MOL    C3928587   3.107   1.423   6.897 -0.1318 -0.4183  0.2054
  235MOL    H4028588   3.050   1.361   6.682  1.0993 -0.7991 -1.0565
  235MOL    H4128589   3.207   1.353   6.717 -2.5176 -1.3395 -3.3456
  235MOL    H4228590   3.197   1.474   6.932 -1.0872  1.8067 -0.4809
  235MOL    H4328591   3.024   1.485   6.928 -1.2562 -1.4104 -0.7824
  235MOL    C4428592   3.087   1.278   6.962  0.3662 -0.0392  0.5169
  235MOL    C4528593   3.097   1.281   7.111  0.2975  0.7926 -0.1640
  235MOL    H4628594   2.992   1.230   6.936  0.1455  0.9440 -0.5655
  235MOL    H4728595   3.155   1.206   6.918  0.6511  2.0167 -2.5720
  235MOL    H4828596   3.072   1.184   7.153 -0.9047  1.9588  1.9012
  235MOL    H4928597   3.193   1.322   7.143  0.4959  0.6128 -0.5319
  235MOL    C5028598   3.004   1.379   7.183 -0.5544  0.2234  0.4720
  235MOL    C5128599   2.858   1.355   7.154 -0.1701  0.2339  0.4935
  235MOL    H5228600   3.033   1.367   7.287  1.6140 -0.1396 -0.1633
  235MOL    H5328601   3.033   1.481   7.158 -2.5359  0.3023 -1.7595
  235MOL    H5428602   2.840   1.370   7.047 -1.2577 -0.7876  0.5183
  235MOL    H5528603   2.831   1.250   7.166 -0.1960  0.0756 -0.8435
  235MOL    C5628604   2.767   1.458   7.220  0.2973  0.9207 -0.2588
  235MOL    C5728605   2.620   1.438   7.197  0.0615  0.0950  0.2695
  235MOL    H5828606   2.785   1.444   7.327 -1.9455 -0.8221 -0.0681
  235MOL    H5928607   2.791   1.563   7.201  0.4177  0.9606  0.1065
  235MOL    H6028608   2.600   1.479   7.098 -2.4048  2.1232  1.5277
  235MOL    H6128609   2.601   1.331   7.210  0.4819 -0.0291 -0.1429
  235MOL    C6228610   2.534   1.510   7.308  0.0949  0.2012  0.5373
  235MOL    C6328611   2.383   1.489   7.294  0.1190 -0.1238 -1.0103
  235MOL    H6428612   2.575   1.471   7.401  2.9574  1.6290 -0.0652
  235MOL    H6528613   2.543   1.619   7.312  2.6082  0.2352 -2.9209
  235MOL    H6628614   2.351   1.460   7.194 -1.1539  2.6766 -1.4596
  235MOL    H6728615   2.364   1.397   7.349 -0.5742 -0.1443 -1.2794
  235MOL    C6828616   2.301   1.601   7.356  0.1374  0.1615  0.0711
  235MOL    C6928617   2.152   1.554   7.379  0.1638 -0.6291 -0.0670
  235MOL    H7028618   2.342   1.630   7.453  1.2992  0.1781 -0.4173
  235MOL    H7128619   2.303   1.686   7.288  0.7667  0.7865  0.8511
  235MOL    H7228620   2.108   1.513   7.288 -1.6299 -0.1734  0.5657
  235MOL    H7328621   2.139   1.472   7.449 -0.8365  0.4498  1.0155
  235MOL    C7428622   2.065   1.671   7.437 -0.0254 -0.1865  0.0438
  235MOL    C7528623   1.917   1.641   7.450 -0.1322  0.3755 -0.4597
  235MOL    H7628624   2.113   1.689   7.533 -2.2492  0.2355  1.1189
  235MOL    H7728625   2.079   1.769   7.391 -0.7230 -0.3167 -0.4510
  235MOL    H7828626   1.909   1.559   7.522 -0.9257  1.2702  0.4898
  235MOL    H7928627   1.876   1.728   7.502 -2.7935 -0.6913 -0.6759
  235MOL    C8028628   1.829   1.624   7.322  0.4686 -0.3806  0.4752
  235MOL    C8128629   1.679   1.632   7.348  0.2183 -0.2622  0.0298
  235MOL    H8228630   1.849   1.713   7.262  1.7977 -0.5869  0.5979
  235MOL    H8328631   1.856   1.539   7.260  0.6784  0.3326 -0.4256
  235MOL    H8428632   1.654   1.538   7.398  0.3627 -1.0071 -1.2667
  235MOL    H8528633   1.656   1.724   7.401  1.9099  0.4326 -0.3891
  235MOL    C8628634   1.593   1.631   7.229  0.0880  0.2500  0.2015
  235MOL    C8728635   1.441   1.643   7.258 -0.4260  0.3401 -0.0655
  235MOL    H8828636   1.627   1.716   7.169  0.8025  0.6559  1.1509
  235MOL    H8928637   1.604   1.537   7.175 -0.4986  0.9254 -1.1190
  235MOL    H9028638   1.406   1.559   7.317  2.0004 -0.7568 -0.1573
  235MOL    H9128639   1.421   1.727   7.324  1.7724 -0.4232  1.6184
  235MOL    C9228640   1.365   1.645   7.125  0.6093 -0.1139  0.1460
  235MOL    C9328641   1.212   1.639   7.143 -0.1361 -0.2196 -0.5531
  235MOL    H9428642   1.383   1.745   7.086  1.2215 -1.0508 -2.0269
  235MOL    H9528643   1.402   1.583   7.044 -0.5754 -0.0641 -0.4491
  235MOL    H9628644   1.178   1.540   7.176 -1.9329  0.0645 -1.4945
  235MOL    H9728645   1.182   1.710   7.220 -0.3022 -1.1799  0.2796
  235MOL    C9828646   1.131   1.669   7.011  0.2778  0.0861 -0.3694
  235MOL    C9928647   0.986   1.611   7.018 -0.4474 -0.3035 -0.0611
  235MOL   H10028648   1.140   1.777   6.994  0.8778 -0.2244 -2.1356
  235MOL   H10128649   1.191   1.630   6.929  3.8664 -1.2732  2.7567
  235MOL   H10228650   0.981   1.502   7.021 -2.8137 -0.2688 -1.3985
  235MOL   H10328651   0.931   1.636   7.109 -1.2158 -2.5932  0.1408
  235MOL   C10428652   0.893   1.652   6.905  0.0836  0.6660 -0.1582
  235MOL   C10528653   0.766   1.569   6.906  0.3717 -0.2895  0.8028
  235MOL   H10628654   0.861   1.755   6.920 -0.4625  0.7042 -1.4809
  235MOL   H10728655   0.939   1.647   6.806 -0.3560  1.7472 -0.4217
  235MOL   H10828656   0.789   1.463   6.917  0.1402 -0.3691  0.5257
  235MOL   H10928657   0.706   1.587   6.996  0.6351 -2.5346  1.4737
  235MOL   C11028658   0.689   1.588   6.761  0.5347  0.4874  0.8576
  235MOL   C11128659   0.739   1.500   6.646  0.5052  0.4284 -0.9240
  235MOL   H11228660   0.581   1.579   6.772  0.5873 -0.4407  0.6654
  235MOL   H11328661   0.709   1.691   6.733 -1.0752  0.6978  0.4214
  235MOL   H11428662   0.713   1.544   6.550  3.3050 -1.3104 -2.5458
  235MOL   H11528663   0.847   1.506   6.635  0.6277  1.0882  0.5314
  235MOL   C11628664   0.667   1.362   6.654  0.5654 -0.4992 -0.2910
  235MOL   C11728665   0.667   1.311   6.509  0.2137 -0.6499 -0.3212
  235MOL   H11828666   0.721   1.300   6.726  0.3599  1.2037  1.3760
  235MOL   H11928667   0.567   1.364   6.696  0.0351  0.2314 -1.5538
  235MOL   H12028668   0.765   1.297   6.465  1.2089  0.6520  1.4344
  235MOL   H12128669   0.625   1.210   6.512  0.9110 -0.9662 -1.2303
  235MOL   H12228670   0.608   1.373   6.441  1.7266 -1.6548 -2.5943
  236MOL     C128671   1.474   2.424   7.610 -0.2106  0.5590  0.9482
  236MOL     C228672   1.357   2.435   7.519 -0.5698 -0.2997 -0.1101
  236MOL     H328673   1.562   2.404   7.550 -0.6089 -0.2707  0.6326
  236MOL     H428674   1.470   2.341   7.681 -2.5999 -1.2006 -1.1607
  236MOL     H528675   1.361   2.515   7.444 -0.0309  0.5485  0.8094
  236MOL     H628676   1.367   2.353   7.447  0.0950  0.0691 -0.4497
  236MOL     H728677   1.485   2.503   7.684 -0.7606  0.6626  0.9221
  236MOL     C828678   1.220   2.419   7.581  0.2841  0.3537 -0.3418
  236MOL     C928679   1.108   2.401   7.479  0.0919 -0.3972 -0.3592
  236MOL    H1028680   1.229   2.332   7.646 -1.8672 -0.0803 -0.5845
  236MOL    H1128681   1.211   2.504   7.648  3.6109  2.3909 -2.3534
  236MOL    H1228682   1.120   2.450   7.383 -1.0809 -1.3116 -0.9812
  236MOL    H1328683   1.118   2.295   7.457  1.0339 -0.3919  0.0241
  236MOL    C1428684   0.969   2.426   7.540  0.0138  0.5525 -0.6777
  236MOL    C1528685   0.838   2.412   7.458  0.1848 -0.2474  0.0746
  236MOL    H1628686   0.955   2.376   7.636  0.4730  0.4428 -0.6674
  236MOL    H1728687   0.981   2.532   7.564  0.0299  0.6854 -1.2686
  236MOL    H1828688   0.759   2.475   7.498  0.4040  0.1837 -0.1631
  236MOL    H1928689   0.870   2.446   7.359  0.6550 -2.0850 -0.4308
  236MOL    C2028690   0.798   2.268   7.460 -0.3343 -0.2815 -0.3675
  236MOL    C2128691   0.663   2.256   7.379 -0.2751  0.4556 -0.1259
  236MOL    H2228692   0.879   2.225   7.401  1.0095  0.3969  0.9565
  236MOL    H2328693   0.799   2.222   7.558 -0.4142  2.1684  0.8213
  236MOL    H2428694   0.582   2.301   7.436 -1.1401 -0.6666 -0.4605
  236MOL    H2528695   0.667   2.314   7.287  2.0630  2.8078  1.3482
  236MOL    C2628696   0.613   2.121   7.337 -0.4619 -0.2862 -0.3282
  236MOL    C2728697   0.702   2.069   7.224  0.0431  0.2292 -0.7247
  236MOL    H2828698   0.606   2.049   7.419  0.6182  0.9023  0.8234
  236MOL    H2928699   0.510   2.128   7.304 -1.5038 -1.2964  2.5970
  236MOL    H3028700   0.799   2.116   7.236  0.0490  0.5320 -1.9050
  236MOL    H3128701   0.719   1.961   7.224 -0.1890  0.1884 -1.1783
  236MOL    C3228702   0.671   2.107   7.074  0.3697 -0.4005 -0.2583
  236MOL    C3328703   0.779   2.078   6.973  0.4745  0.5611  1.0635
  236MOL    H3428704   0.583   2.049   7.047  0.1660  0.6970 -1.9932
  236MOL    H3528705   0.643   2.212   7.066  0.0849 -0.6791 -3.3333
  236MOL    H3628706   0.864   2.145   6.983  0.9955  0.1083 -0.2035
  236MOL    H3728707   0.825   1.981   6.990 -1.1092 -0.3596  0.2633
  236MOL    C3828708   0.723   2.086   6.822  0.8812 -0.2049 -0.1954
  236MOL    C3928709   0.842   2.105   6.718 -0.0392  0.1850 -0.7196
  236MOL    H4028710   0.671   1.993   6.801  0.8468  0.0086 -1.0930
  236MOL    H4128711   0.647   2.163   6.804  0.2178 -1.0167 -0.9047
  236MOL    H4228712   0.806   2.097   6.615 -1.8385 -2.0369  0.0266
  236MOL    H4328713   0.886   2.201   6.747 -0.3006 -0.0677  0.5717
  236MOL    C4428714   0.951   2.000   6.744 -0.8063  0.5009  0.1039
  236MOL    C4528715   1.053   1.994   6.631  0.4224  0.1596  0.4399
  236MOL    H4628716   1.010   2.014   6.834 -1.0186  3.8631 -0.2255
  236MOL    H4728717   0.903   1.902   6.756  0.0655  0.0909  0.2446
  236MOL    H4828718   1.003   1.952   6.545  0.0573 -0.6621  1.0507
  236MOL    H4928719   1.076   2.100   6.614 -0.8200 -0.0956 -3.2494
  236MOL    C5028720   1.186   1.927   6.659  0.2439  0.4317 -0.4608
  236MOL    C5128721   1.269   1.922   6.528  0.3051 -0.4624 -0.0425
  236MOL    H5228722   1.236   1.986   6.736  3.1977  1.0790 -2.7866
  236MOL    H5328723   1.164   1.829   6.702 -0.8493  0.7368 -0.2993
  236MOL    H5428724   1.213   1.912   6.435  0.9369 -2.4735 -0.2418
  236MOL    H5528725   1.332   2.011   6.528  1.5396 -1.3011  1.9369
  236MOL    C5628726   1.364   1.803   6.532 -0.1333 -0.0310 -0.2019
  236MOL    C5728727   1.460   1.783   6.412  0.2349  0.9539  0.3174
  236MOL    H5828728   1.425   1.799   6.622  1.7327 -0.7506 -1.4715
  236MOL    H5928729   1.301   1.715   6.550  0.9115 -0.1966  3.0224
  236MOL    H6028730   1.507   1.686   6.430 -0.3527  0.7596  0.8113
  236MOL    H6128731   1.406   1.772   6.317 -2.9518 -1.2641  2.2634
  236MOL    C6228732   1.580   1.894   6.397  0.2135  0.7120  0.5115
  236MOL    C6328733   1.636   1.884   6.253  0.3750  0.2508  0.0256
  236MOL    H6428734   1.543   1.995   6.414 -0.6571  0.9301 -2.3575
  236MOL    H6528735   1.667   1.875   6.460  0.5882 -0.0212 -0.2080
  236MOL    H6628736   1.646   1.776   6.239 -0.0768  0.6091 -3.7004
  236MOL    H6728737   1.561   1.913   6.179 -1.8873 -0.7425  1.8555
  236MOL    C6828738   1.770   1.954   6.226  0.0298 -0.3143  0.9057
  236MOL    C6928739   1.794   1.994   6.078 -0.0725  0.0630 -0.3419
  236MOL    H7028740   1.778   2.042   6.290 -0.6895 -0.0134  0.5894
  236MOL    H7128741   1.849   1.892   6.267  1.6739 -2.7213 -5.3630
  236MOL    H7228742   1.792   1.905   6.015 -1.7562  0.2781 -0.6231
  236MOL    H7328743   1.715   2.056   6.035  1.1208  2.5269  0.8905
  236MOL    C7428744   1.925   2.065   6.062 -0.2200  0.0296 -0.2889
  236MOL    C7528745   1.975   2.101   5.922  0.0162 -0.6414 -0.1879
  236MOL    H7628746   1.924   2.154   6.126 -2.9095 -0.3893  0.3196
  236MOL    H7728747   2.006   2.007   6.106  0.2400  0.7177 -0.2164
  236MOL    H7828748   1.969   2.015   5.855  1.9938 -1.7579  1.0360
  236MOL    H7928749   1.902   2.175   5.889 -2.2735 -2.9709 -0.5429
  236MOL    C8028750   2.115   2.168   5.933  0.0020  0.9467  0.4065
  236MOL    C8128751   2.178   2.195   5.797 -0.7561 -0.1199  0.3201
  236MOL    H8228752   2.093   2.266   5.977 -2.0998  1.4092 -1.5854
  236MOL    H8328753   2.174   2.111   6.005 -1.8041  0.8340  1.8322
  236MOL    H8428754   2.188   2.110   5.731 -0.8908 -1.6363  2.2114
  236MOL    H8528755   2.117   2.272   5.750  0.9113  0.9336 -0.1534
  236MOL    C8628756   2.325   2.251   5.820  0.8995  0.1233  0.1976
  236MOL    C8728757   2.398   2.302   5.693 -0.3792  0.1303  0.1581
  236MOL    H8828758   2.318   2.327   5.897 -1.2209 -0.8374  0.9789
  236MOL    H8928759   2.394   2.176   5.858 -0.3518 -0.8604  0.5828
  236MOL    H9028760   2.408   2.226   5.616  2.6875  1.8876 -1.3225
  236MOL    H9128761   2.337   2.381   5.651  2.9142  1.4837 -2.3131
  236MOL    C9228762   2.528   2.374   5.718 -0.3264 -0.1234 -0.3683
  236MOL    C9328763   2.569   2.453   5.589 -0.3020 -0.6346 -0.2408
  236MOL    H9428764   2.505   2.441   5.801 -0.3129 -0.7072  0.1053
  236MOL    H9528765   2.605   2.308   5.759 -2.1450 -2.3014 -0.3934
  236MOL    H9628766   2.581   2.381   5.509  2.2324 -0.9821  0.3880
  236MOL    H9728767   2.495   2.523   5.551 -0.3235 -0.2538  0.4841
  236MOL    C9828768   2.702   2.535   5.617  0.0729 -0.2947 -0.1995
  236MOL    C9928769   2.749   2.625   5.504  0.4068 -0.5064  0.2331
  236MOL   H10028770   2.675   2.593   5.705 -1.6884 -2.6233  0.8671
  236MOL   H10128771   2.788   2.473   5.644  3.1662  2.8757 -2.4654
  236MOL   H10228772   2.760   2.573   5.409 -3.5057 -0.8250 -0.1573
  236MOL   H10328773   2.663   2.688   5.480 -0.5342 -1.7253  0.3447
  236MOL   C10428774   2.872   2.714   5.544 -0.1453 -0.2425 -0.2083
  236MOL   C10528775   2.918   2.816   5.434  0.0397 -0.0711 -0.2463
  236MOL   H10628776   2.867   2.757   5.644 -0.6465 -1.4970  0.3142
  236MOL   H10728777   2.960   2.653   5.565 -0.9548 -1.0378  0.9193
  236MOL   H10828778   2.943   2.758   5.345 -1.2920 -0.7401 -0.1993
  236MOL   H10928779   2.839   2.884   5.403 -1.8434 -1.3217  1.6709
  236MOL   C11028780   3.041   2.897   5.480 -0.8393 -0.0143  0.4031
  236MOL   C11128781   3.096   2.991   5.371  0.5859  0.1160 -0.1857
  236MOL   H11228782   3.031   2.941   5.579 -1.9278 -0.0434  0.3094
  236MOL   H11328783   3.122   2.826   5.495 -0.0054  1.0396  0.9755
  236MOL   H11428784   3.018   3.021   5.301  0.2364 -1.1268 -0.3385
  236MOL   H11528785   3.115   3.089   5.416  2.6783 -1.5352  2.7322
  236MOL   C11628786   3.224   2.943   5.297 -0.0383  0.0337  0.3605
  236MOL   C11728787   3.287   3.051   5.202 -0.0323 -0.1865 -0.6343
  236MOL   H11828788   3.296   2.928   5.376  1.6120  3.0279 -0.4990
  236MOL   H11928789   3.205   2.846   5.251 -0.4567 -0.7873  2.2233
  236MOL   H12028790   3.365   3.013   5.136  1.1509 -1.9721  1.7186
  236MOL   H12128791   3.209   3.087   5.134 -1.1113  1.7228  1.5647
  236MOL   H12228792   3.328   3.137   5.254 -0.2590  0.7837 -2.0240
  237MOL     C128793   3.638   4.458   3.342  0.4907  0.0437  0.2503
  237MOL     C228794   3.649   4.537   3.473  0.5207 -0.2247  0.5293
  237MOL     H328795   3.547   4.490   3.291 -0.1575  0.8974  1.8937
  237MOL     H428796   3.632   4.349   3.348 -1.3253  0.0985 -0.1490
  237MOL     H528797   3.568   4.501   3.537 -2.0434 -0.5078 -2.7741
  237MOL     H628798   3.748   4.519   3.516 -0.4705 -0.8789  2.6149
  237MOL     H728799   3.722   4.465   3.274  0.0474 -1.1632 -0.4310
  237MOL     C828800   3.627   4.689   3.452 -0.9801 -0.2925  0.3990
  237MOL     C928801   3.596   4.771   3.573  0.0370 -0.8428  0.6314
  237MOL    H1028802   3.728   4.720   3.424 -1.7910  0.9991 -1.1995
  237MOL    H1128803   3.555   4.722   3.378 -1.9418  0.2375  1.5494
  237MOL    H1228804   3.490   4.752   3.591 -1.1700  3.2420 -1.2999
  237MOL    H1328805   3.658   4.741   3.657  0.1083 -1.6729  0.2801
  237MOL    C1428806   3.599   4.925   3.538  0.0337  0.0982  0.2154
  237MOL    C1528807   3.542   5.007   3.663 -0.3919  0.0239 -0.1236
  237MOL    H1628808   3.700   4.962   3.519 -0.6080  2.1347  0.6571
  237MOL    H1728809   3.541   4.952   3.450 -0.0176 -0.9777 -0.0897
  237MOL    H1828810   3.435   4.994   3.677 -0.5896 -0.1040 -1.6669
  237MOL    H1928811   3.579   4.976   3.760 -0.8732  1.1321  0.4249
  237MOL    C2028812   3.554   5.162   3.642 -0.8136  0.4359 -0.1201
  237MOL    C2128813   3.486   5.243   3.759 -0.2048  0.0126  0.1575
  237MOL    H2228814   3.657   5.194   3.631 -0.5090 -0.9843 -1.5565
  237MOL    H2328815   3.505   5.184   3.547  0.4041  1.0418 -0.6157
  237MOL    H2428816   3.380   5.219   3.755 -0.0668 -0.6317  0.2339
  237MOL    H2528817   3.525   5.206   3.855 -0.5866  1.7719  1.0022
  237MOL    C2628818   3.495   5.399   3.751 -0.3692 -0.0002  0.6818
  237MOL    C2728819   3.438   5.471   3.873  0.2262 -0.0135 -0.1543
  237MOL    H2828820   3.601   5.421   3.737  0.1366 -2.5927  0.1134
  237MOL    H2928821   3.446   5.423   3.657  0.6061 -0.3249  0.0797
  237MOL    H3028822   3.335   5.438   3.858  0.5305 -0.4442 -1.3630
  237MOL    H3128823   3.466   5.424   3.967  1.7772  0.3806 -0.4087
  237MOL    C3228824   3.435   5.624   3.869 -0.6001 -0.5812 -0.7477
  237MOL    C3328825   3.369   5.676   4.002 -0.2185 -0.4120 -0.2045
  237MOL    H3428826   3.540   5.655   3.872 -0.6166 -0.7035  2.4069
  237MOL    H3528827   3.390   5.662   3.777 -0.3859  1.6824  0.0533
  237MOL    H3628828   3.264   5.646   4.002 -0.2939 -0.4888  4.5929
  237MOL    H3728829   3.401   5.624   4.092 -0.6956 -1.1705 -0.4611
  237MOL    C3828830   3.380   5.836   4.014 -0.3098 -0.4564  0.0579
  237MOL    C3928831   3.285   5.900   4.119 -0.4895  0.4723 -0.2322
  237MOL    H4028832   3.481   5.866   4.040  0.1840 -0.6688 -1.5471
  237MOL    H4128833   3.350   5.875   3.917  0.7352  0.4624  0.1024
  237MOL    H4228834   3.186   5.879   4.078 -2.2936 -1.4751  4.7292
  237MOL    H4328835   3.298   5.850   4.215 -1.6599  0.6867  0.0474
  237MOL    C4428836   3.308   6.045   4.127 -0.1305  0.5938 -0.3220
  237MOL    C4528837   3.230   6.102   4.247  0.2808  0.6698 -0.1967
  237MOL    H4628838   3.414   6.069   4.131  0.3573 -1.5275  0.0199
  237MOL    H4728839   3.280   6.102   4.039  1.6095  2.4952  0.3260
  237MOL    H4828840   3.123   6.104   4.225  0.3660 -1.3565 -0.9323
  237MOL    H4928841   3.239   6.033   4.331 -1.0035  0.9195  0.1585
  237MOL    C5028842   3.262   6.246   4.280  0.8612 -0.3021 -0.1449
  237MOL    C5128843   3.161   6.319   4.373  0.6283  0.3913 -0.1615
  237MOL    H5228844   3.365   6.257   4.314  0.4204 -0.0692  1.1671
  237MOL    H5328845   3.250   6.295   4.183 -0.0220  1.1699  0.6766
  237MOL    H5428846   3.062   6.314   4.328  0.9960 -0.1947 -0.9221
  237MOL    H5528847   3.146   6.259   4.462 -2.0009 -0.8312 -1.3668
  237MOL    C5628848   3.196   6.467   4.394 -0.8162 -0.4669 -0.3993
  237MOL    C5728849   3.095   6.533   4.488 -0.2506 -0.1407 -0.2949
  237MOL    H5828850   3.297   6.471   4.436 -0.8052 -1.9928 -0.2544
  237MOL    H5928851   3.209   6.513   4.295 -3.0127  0.0474 -0.4716
  237MOL    H6028852   2.995   6.534   4.445  0.0724  0.9866 -1.0480
  237MOL    H6128853   3.082   6.475   4.579 -2.6115 -0.6232 -0.9167
  237MOL    C6228854   3.141   6.663   4.544 -0.4695 -0.6500  0.3071
  237MOL    C6328855   3.041   6.724   4.642 -0.1581  0.5419 -0.4350
  237MOL    H6428856   3.238   6.649   4.591  0.6637 -0.7135 -1.9410
  237MOL    H6528857   3.163   6.728   4.459  1.7456 -1.3802  0.2913
  237MOL    H6628858   2.954   6.741   4.577  2.2495  0.2735 -3.8645
  237MOL    H6728859   3.008   6.657   4.721  2.6491  0.7420  0.9428
  237MOL    C6828860   3.079   6.853   4.718 -0.7110 -0.5444 -0.6205
  237MOL    C6928861   3.123   6.971   4.622 -0.8083 -1.1252 -0.3946
  237MOL    H7028862   2.991   6.878   4.776 -0.9910  0.1388 -1.3252
  237MOL    H7128863   3.158   6.833   4.791  0.9577 -0.1896 -2.2765
  237MOL    H7228864   3.206   6.941   4.558 -0.5324 -0.0871 -0.5362
  237MOL    H7328865   3.038   7.003   4.560 -0.8754  1.5109  0.9900
  237MOL    C7428866   3.158   7.102   4.710 -0.4710  0.9383 -0.2120
  237MOL    C7528867   3.213   7.217   4.628 -0.0485 -0.4117 -1.0596
  237MOL    H7628868   3.069   7.132   4.764  0.6868 -1.0571  2.9566
  237MOL    H7728869   3.218   7.076   4.797 -2.1897 -0.7270  0.5178
  237MOL    H7828870   3.313   7.191   4.595  0.4056 -1.0315  0.7349
  237MOL    H7928871   3.156   7.225   4.536 -0.0480  2.6663 -0.8356
  237MOL    C8028872   3.244   7.346   4.712  0.2530 -0.5879  0.6401
  237MOL    C8128873   3.317   7.456   4.640  0.2572 -0.2533  0.7826
  237MOL    H8228874   3.157   7.395   4.757  0.5302  0.8568 -0.3824
  237MOL    H8328875   3.296   7.291   4.791 -1.0390  0.3697  2.2051
  237MOL    H8428876   3.374   7.519   4.709  1.6768  0.4147 -0.9451
  237MOL    H8528877   3.392   7.408   4.577 -0.8180 -0.5307 -0.3056
  237MOL    C8628878   3.239   7.558   4.556 -0.0432 -0.6593  0.0973
  237MOL    C8728879   3.204   7.503   4.414  0.6140  0.5632 -0.3059
  237MOL    H8828880   3.154   7.596   4.613 -2.4813 -1.6207 -2.7514
  237MOL    H8928881   3.298   7.649   4.543 -0.1982 -0.3191  1.7025
  237MOL    H9028882   3.291   7.454   4.369  0.4980  1.2385 -1.2605
  237MOL    H9128883   3.126   7.427   4.420  0.4691  0.6288 -1.3312
  237MOL    C9228884   3.140   7.612   4.323 -0.0307  0.4029 -0.7146
  237MOL    C9328885   3.108   7.560   4.180 -0.0040 -0.1512 -0.3527
  237MOL    H9428886   3.051   7.655   4.368 -0.6693 -0.1835 -1.3980
  237MOL    H9528887   3.220   7.685   4.326  0.2463  0.0799 -0.1112
  237MOL    H9628888   3.198   7.542   4.121 -0.4005  0.9124 -1.3024
  237MOL    H9728889   3.055   7.465   4.190 -1.7096  0.9234  1.2715
  237MOL    C9828890   3.011   7.653   4.104 -0.0983  0.1659 -0.1963
  237MOL    C9928891   2.970   7.593   3.971  0.6368 -0.2198 -0.4813
  237MOL   H10028892   2.926   7.690   4.162 -0.6049  0.5666 -1.1751
  237MOL   H10128893   3.074   0.044   4.072  0.5860 -0.6031 -0.8625
  237MOL   H10228894   3.055   7.553   3.916  2.2638  1.6228  0.6565
  237MOL   H10328895   2.912   7.503   3.994  0.0370  0.3421  0.2597
  237MOL   C10428896   2.878   0.000   3.898 -0.4080 -0.1810  0.4797
  237MOL   C10528897   2.824   7.639   3.755 -0.4862  0.4903 -0.0767
  237MOL   H10628898   2.793   0.016   3.964 -0.2897  2.7198  0.0093
  237MOL   H10728899   2.937   0.092   3.895 -0.9217  0.0988 -2.4938
  237MOL   H10828900   2.894   7.672   3.678  0.3249  2.8655  1.6240
  237MOL   H10928901   2.824   7.530   3.751 -3.1680  0.4292  0.6858
  237MOL   C11028902   2.681   7.690   3.724  0.7667  0.0128  0.4762
  237MOL   C11128903   2.636   7.645   3.583 -0.1352  0.5766  0.1894
  237MOL   H11228904   2.616   7.656   3.804  1.6603 -0.9414  0.8076
  237MOL   H11328905   2.696   0.107   3.727  2.6218 -0.2694  3.6903
  237MOL   H11428906   2.709   7.690   3.515  0.2782  1.0146  0.9076
  237MOL   H11528907   2.644   7.537   3.572  1.9043  0.6740  0.5375
  237MOL   C11628908   2.491   7.682   3.548 -0.2928  0.3656 -0.2936
  237MOL   C11728909   2.457   0.136   3.577  0.5452 -0.1093 -0.0830
  237MOL   H11828910   2.472   7.660   3.443  0.2716 -2.0343  0.0849
  237MOL   H11928911   2.426   7.617   3.607 -0.4719  0.0602 -0.8208
  237MOL   H12028912   2.359   0.169   3.542  0.6811  0.0756 -0.2962
  237MOL   H12128913   2.467   0.175   3.678  1.7813  1.5307 -0.8099
  237MOL   H12228914   2.536   0.190   3.525  0.3612  0.1138 -0.1327
  238MOL     C128915   6.524   5.425   1.366  0.5810  0.3756  0.5055
  238MOL     C228916   6.464   5.517   1.263 -0.0350  0.1147 -0.0429
  238MOL     H328917   6.488   5.322   1.364 -0.3840  0.7171 -0.2692
  238MOL     H428918   6.505   5.452   1.469 -1.5316 -0.6502  0.4078
  238MOL     H528919   6.356   5.498   1.266  0.4311 -2.9484 -0.3832
  238MOL     H628920   6.487   5.618   1.296 -0.3111  1.0127 -2.4987
  238MOL     H728921   6.631   5.429   1.344  0.3497  2.7218 -0.3575
  238MOL     C828922   6.520   5.481   1.123 -0.2110 -0.7431 -0.0248
  238MOL     C928923   6.483   5.573   1.011 -0.6810 -0.7913 -0.0461
  238MOL    H1028924   6.629   5.483   1.116 -0.1971 -1.9868 -0.3368
  238MOL    H1128925   6.504   5.376   1.097  4.0530 -1.6268  0.4766
  238MOL    H1228926   6.375   5.571   0.999 -0.9860 -0.6210  2.4026
  238MOL    H1328927   6.511   5.673   1.044 -0.2255 -0.1590 -2.2805
  238MOL    C1428928   6.561   5.559   0.873  0.2795 -0.4155 -0.7661
  238MOL    C1528929   6.521   5.671   0.773 -0.6816 -0.1592  0.4983
  238MOL    H1628930   6.665   5.576   0.899 -0.2384 -0.1073  1.1934
  238MOL    H1728931   6.537   5.463   0.828  1.7164 -1.5018  0.7359
  238MOL    H1828932   6.417   5.656   0.742 -0.2207 -0.7406 -0.8073
  238MOL    H1928933   6.521   5.770   0.819 -3.4754  1.1700 -2.1374
  238MOL    C2028934   6.620   5.677   0.653  0.4121 -0.0430 -0.2716
  238MOL    C2128935   6.610   5.798   0.560 -0.2395  0.4098  0.0198
  238MOL    H2228936   6.720   5.679   0.697  1.2152  1.6692 -2.0790
  238MOL    H2328937   6.611   5.587   0.593  2.9051 -1.9898  2.0966
  238MOL    H2428938   6.684   5.791   0.480  1.9887  1.2186  1.9573
  238MOL    H2528939   6.512   5.800   0.513 -0.4640 -0.6742  0.4536
  238MOL    C2628940   6.631   5.938   0.622 -0.0482  0.1451 -0.6338
  238MOL    C2728941   6.655   6.053   0.523 -0.4379 -0.0759  0.4612
  238MOL    H2828942   6.542   5.981   0.669  0.0348 -0.1947 -0.1513
  238MOL    H2928943   6.709   5.923   0.697  0.8639  1.8681 -1.2138
  238MOL    H3028944   6.668   6.016   0.421  0.6291 -0.4264  0.7212
  238MOL    H3128945   6.565   6.115   0.521 -1.4362 -1.5116 -0.0226
  238MOL    C3228946   6.777   6.148   0.563 -0.3092 -0.2124  0.4923
  238MOL    C3328947   6.911   6.080   0.532  0.4301  0.2241  0.0902
  238MOL    H3428948   6.777   6.233   0.495  0.4526  0.4276  1.2823
  238MOL    H3528949   6.766   6.178   0.667 -1.7568  1.1694 -0.0299
  238MOL    H3628950   6.902   5.972   0.547  1.3350  0.7509  5.5469
  238MOL    H3728951   6.938   6.106   0.430 -1.7320  1.1386 -0.2881
  238MOL    C3828952   7.019   6.128   0.625  0.1654 -0.2339 -0.6950
  238MOL    C3928953   7.062   6.279   0.608 -0.2348 -0.1862  0.3490
  238MOL    H4028954   6.996   6.111   0.730  1.9668  0.4233 -0.1698
  238MOL    H4128955   7.106   6.065   0.609  0.4352 -0.1099  0.2666
  238MOL    H4228956   7.098   6.295   0.507 -1.4365  0.9100  0.0717
  238MOL    H4328957   6.970   6.337   0.621 -1.7636 -2.2103 -1.1280
  238MOL    C4428958   7.183   6.307   0.702 -0.2177 -0.0267  0.2256
  238MOL    C4528959   7.264   6.429   0.683  0.5787  0.5863 -0.5503
  238MOL    H4628960   7.153   6.301   0.806  1.2288  2.1368  0.7907
  238MOL    H4728961   7.251   6.224   0.680 -1.6782 -0.7191 -1.8003
  238MOL    H4828962   7.294   6.437   0.578 -1.1792  0.8579 -1.0620
  238MOL    H4928963   7.201   6.510   0.719 -1.0927 -1.0248  0.2470
  238MOL    C5028964   7.392   6.424   0.761  0.5663  0.3538 -1.1804
  238MOL    C5128965   7.444   6.569   0.798  0.0577  0.5528  0.1698
  238MOL    H5228966   7.372   6.377   0.857  0.7815 -0.1606 -1.3853
  238MOL    H5328967   7.461   6.353   0.716 -0.3967 -0.1232 -1.9099
  238MOL    H5428968   7.448   6.630   0.707 -0.8080  1.1675  0.5286
  238MOL    H5528969   7.367   6.620   0.857 -0.4502  0.0323 -0.0360
  238MOL    C5628970   7.582   6.572   0.866 -0.5425 -0.0807 -0.9440
  238MOL    C5728971   7.643   6.709   0.906  0.3513  0.3445 -0.3542
  238MOL    H5828972   7.566   6.528   0.965  2.5873  0.2673 -0.2583
  238MOL    H5928973   7.646   6.513   0.801 -0.2446  0.5219 -1.1997
  238MOL    H6028974   7.653   6.763   0.811  1.5876  0.8293  0.0376
  238MOL    H6128975   7.570   6.766   0.964 -1.2278 -0.5912 -1.4074
  238MOL    C6228976   0.090   6.695   0.966  0.2702 -0.1285 -0.1909
  238MOL    C6328977   0.139   6.840   0.985  0.0173 -0.5464 -0.0754
  238MOL    H6428978   0.092   6.624   1.048  0.9421 -1.4297 -1.3186
  238MOL    H6528979   0.139   6.648   0.881  1.6454  0.8583  0.0543
  238MOL    H6628980   0.104   6.900   0.901 -1.7889 -1.3823  0.0647
  238MOL    H6728981   0.085   6.884   1.069  2.5732 -0.8985  1.8199
  238MOL    C6828982   0.290   6.846   0.999 -0.3484  0.1593  0.2463
  238MOL    C6928983   0.350   6.975   1.037  0.6850 -0.9662 -0.5166
  238MOL    H7028984   0.327   6.765   1.061  2.6146 -1.3459 -3.3128
  238MOL    H7128985   0.336   6.804   0.909  1.2854 -2.3192  2.1862
  238MOL    H7228986   0.458   6.960   1.036  0.7799 -0.3840  0.0725
  238MOL    H7328987   0.303   7.056   0.981 -0.5816 -0.2862  1.4445
  238MOL    C7428988   0.322   7.004   1.182  0.5121  0.0682  0.3915
  238MOL    C7528989   0.392   7.134   1.236 -0.0455 -0.4535  0.0378
  238MOL    H7628990   0.216   7.025   1.189  0.6167 -0.0631  2.8192
  238MOL    H7728991   0.339   6.912   1.239  0.6473 -1.5160 -2.1094
  238MOL    H7828992   0.492   7.137   1.193  0.0700  1.1814  0.3868
  238MOL    H7928993   0.345   7.219   1.188  1.5763  0.6056  0.2864
  238MOL    C8028994   0.381   7.152   1.388 -0.5076 -0.7453  0.4776
  238MOL    C8128995   0.487   7.083   1.466  0.1890  0.2625 -0.0900
  238MOL    H8228996   0.383   7.254   1.427 -1.2348  0.0439 -1.4720
  238MOL    H8328997   0.287   7.108   1.422  0.0967 -3.3321 -1.0780
  238MOL    H8428998   0.507   6.982   1.428 -2.0479 -0.1286 -0.2912
  238MOL    H8528999   0.569   7.148   1.435  0.2338 -0.8957 -2.4806
  238MOL    C8629000   0.463   7.089   1.619 -0.4701 -0.4623 -0.0414
  238MOL    C8729001   0.576   7.034   1.704  0.6874  0.4865  0.1864
  238MOL    H8829002   0.444   7.191   1.652 -1.0509 -0.1587 -1.2898
  238MOL    H8929003   0.369   7.042   1.651 -0.4459 -0.1321  0.5224
  238MOL    H9029004   0.577   6.926   1.691 -0.4408 -0.0034  3.6721
  238MOL    H9129005   0.671   7.069   1.665  1.0022 -0.1991  0.3325
  238MOL    C9229006   0.560   7.076   1.848 -0.7571  0.0781  0.2763
  238MOL    C9329007   0.684   7.052   1.935 -0.3145 -0.6737  0.3709
  238MOL    H9429008   0.540   7.183   1.841 -3.3451 -0.4167 -0.3270
  238MOL    H9529009   0.474   7.026   1.891  0.2934 -1.0109  1.1691
  238MOL    H9629010   0.720   6.949   1.928  0.2814 -0.3776 -1.3016
  238MOL    H9729011   0.772   7.106   1.901 -1.2021  0.9022  0.5582
  238MOL    C9829012   0.661   7.098   2.075  0.5347 -0.8910 -0.0929
  238MOL    C9929013   0.770   7.051   2.174 -0.4617 -0.2595 -0.0719
  238MOL   H10029014   0.636   7.204   2.085  1.5816 -0.7360  1.0397
  238MOL   H10129015   0.572   7.051   2.117 -0.3564  0.4915 -0.3811
  238MOL   H10229016   0.776   6.943   2.182 -0.8387 -0.3693 -1.1379
  238MOL   H10329017   0.864   7.092   2.137 -0.5542 -0.7416 -0.8608
  238MOL   C10429018   0.761   7.099   2.315 -0.2663 -0.3441  0.2170
  238MOL   C10529019   0.876   7.057   2.412 -0.0155  0.3588 -0.2756
  238MOL   H10629020   0.768   7.207   2.307  0.4907 -0.2601  1.7382
  238MOL   H10729021   0.666   7.080   2.365 -0.9067 -1.1328 -1.2663
  238MOL   H10829022   0.881   6.948   2.409 -0.4263  0.3812 -2.5454
  238MOL   H10929023   0.972   7.086   2.370  0.4466 -2.0739 -0.9844
  238MOL   C11029024   0.897   7.128   2.550  0.2620  0.2337  1.0963
  238MOL   C11129025   1.025   7.093   2.634  1.3480  0.5098 -0.0838
  238MOL   H11229026   0.904   7.235   2.533 -2.5135  0.1457 -1.0713
  238MOL   H11329027   0.812   7.114   2.617  0.2902 -1.3346  0.8358
  238MOL   H11429028   1.107   7.086   2.562  1.3358 -1.0980  0.0542
  238MOL   H11529029   1.044   7.170   2.710  0.0749  1.5359 -0.7768
  238MOL   C11629030   1.026   6.958   2.708 -0.0559 -0.8127 -0.2130
  238MOL   C11729031   1.157   6.927   2.780  0.3121  0.1670 -0.6143
  238MOL   H11829032   0.942   6.961   2.778 -1.9717 -0.4260 -2.4925
  238MOL   H11929033   0.994   6.886   2.633 -2.0116 -0.2389  0.0671
  238MOL   H12029034   1.192   6.998   2.854  0.3487 -2.0984  1.6234
  238MOL   H12129035   1.145   6.834   2.835  0.1480 -0.1656 -1.2019
  238MOL   H12229036   1.238   6.907   2.709 -0.3331  0.5066 -1.4602
  239MOL     C129037   7.375   1.019   3.516  0.3006 -1.1396 -0.9508
  239MOL     C229038   7.479   0.911   3.503 -0.5964  0.4275 -0.9071
  239MOL     H329039   7.417   1.119   3.508  0.2869 -1.1423 -1.0639
  239MOL     H429040   7.321   1.006   3.609  2.7735  1.1624  0.8613
  239MOL     H529041   7.414   0.824   3.504  0.5795 -0.4503  0.0565
  239MOL     H629042   7.529   0.904   3.407 -2.0351 -1.1881 -1.5774
  239MOL     H729043   7.301   1.003   3.436  0.4283 -0.2679 -1.2475
  239MOL     C829044   7.579   0.919   3.617 -0.2233  0.0251 -0.1230
  239MOL     C929045   7.666   0.789   3.622  0.2681 -0.2789 -0.9867
  239MOL    H1029046   7.630   1.015   3.602 -1.7191  0.8739  0.1542
  239MOL    H1129047   7.533   0.929   3.715 -0.1299 -1.9355  0.1377
  239MOL    H1229048   7.594   0.708   3.637 -0.6589  0.8367  0.8038
  239MOL    H1329049   0.017   0.786   3.522 -0.1592  1.9624 -1.2732
  239MOL    C1429050   0.078   0.790   3.736  0.4720 -0.2650 -0.5434
  239MOL    C1529051   0.169   0.664   3.752  0.2108  0.3325 -0.3674
  239MOL    H1629052   0.141   0.879   3.736  0.0891  0.0790  2.4374
  239MOL    H1729053   0.021   0.799   3.829  2.4169 -0.1366  0.6755
  239MOL    H1829054   0.097   0.585   3.735 -0.0664  0.6154 -0.5042
  239MOL    H1929055   0.240   0.651   3.670  1.2410 -1.0242  0.7154
  239MOL    C2029056   0.247   0.667   3.889  0.2183  0.9010  0.2498
  239MOL    C2129057   0.338   0.543   3.897 -0.3993 -0.1780  0.2337
  239MOL    H2229058   0.306   0.757   3.904  0.2500  0.7033  1.3286
  239MOL    H2329059   0.170   0.667   3.966  1.0226  1.8509  1.0568
  239MOL    H2429060   0.294   0.446   3.874  1.1114 -0.9235  0.4654
  239MOL    H2529061   0.412   0.565   3.820  0.0849 -0.0890  0.7259
  239MOL    C2629062   0.432   0.535   4.018  0.0881 -0.2587 -0.1754
  239MOL    C2729063   0.493   0.397   4.031 -0.3620 -0.3307  0.5250
  239MOL    H2829064   0.508   0.614   4.020  0.0885 -0.2586 -0.1949
  239MOL    H2929065   0.362   0.546   4.101 -0.1253 -0.5072 -0.3256
  239MOL    H3029066   0.423   0.320   3.999  0.9635 -0.9708 -0.9091
  239MOL    H3129067   0.581   0.381   3.967 -0.2529  0.7394  0.4069
  239MOL    C3229068   0.525   0.357   4.170 -0.0326  0.0143  0.1159
  239MOL    C3329069   0.639   0.444   4.237 -0.8760 -0.1437  0.0188
  239MOL    H3429070   0.431   0.356   4.226  0.1293 -1.5181  0.3755
  239MOL    H3529071   0.554   0.252   4.165 -0.1451 -0.0059 -0.1315
  239MOL    H3629072   0.732   0.425   4.183  0.0721 -1.7649  2.1509
  239MOL    H3729073   0.611   0.548   4.225 -2.0539 -0.7279 -2.9233
  239MOL    C3829074   0.651   0.409   4.383 -0.7785  0.5580  0.2767
  239MOL    C3929075   0.554   0.488   4.468  0.0988 -0.3061  0.0449
  239MOL    H4029076   0.646   0.302   4.400  1.0838  0.1087 -1.8239
  239MOL    H4129077   0.753   0.444   4.398 -0.2252 -0.8225 -0.3026
  239MOL    H4229078   0.591   0.589   4.487  0.0308  0.0260 -1.5787
  239MOL    H4329079   0.458   0.510   4.423  0.8036  0.4012 -1.1354
  239MOL    C4429080   0.519   0.431   4.611 -0.5143 -1.1104 -0.4083
  239MOL    C4529081   0.432   0.530   4.679 -0.0844 -0.4068 -0.0604
  239MOL    H4629082   0.470   0.334   4.607  0.0757 -1.5308  1.8992
  239MOL    H4729083   0.614   0.418   4.662 -0.5331  1.5070  0.3659
  239MOL    H4829084   0.496   0.618   4.690 -0.6367  0.1972 -1.4988
  239MOL    H4929085   0.346   0.550   4.615  1.1135 -0.2031 -1.6591
  239MOL    C5029086   0.386   0.485   4.821  0.0013  0.0558 -0.1415
  239MOL    C5129087   0.300   0.590   4.899  0.1551  0.6297 -0.6792
  239MOL    H5229088   0.328   0.393   4.810 -0.9997  0.5173  1.0721
  239MOL    H5329089   0.476   0.460   4.878  0.3076  2.3738  0.4487
  239MOL    H5429090   0.358   0.676   4.934  0.9315 -0.0864 -0.1965
  239MOL    H5529091   0.230   0.625   4.823 -1.0603 -1.2958 -0.4727
  239MOL    C5629092   0.215   0.536   5.015 -0.6021 -0.1619  0.2600
  239MOL    C5729093   0.127   0.636   5.087 -1.0231  0.0606  0.4681
  239MOL    H5829094   0.149   0.452   4.991 -0.0426 -0.2355 -1.0367
  239MOL    H5929095   0.274   0.485   5.092 -1.0523 -0.6132  0.3085
  239MOL    H6029096   0.192   0.710   5.134  1.5599 -2.6232  1.2282
  239MOL    H6129097   0.074   0.700   5.016  0.5222  0.4878 -0.3115
  239MOL    C6229098   0.039   0.565   5.192 -0.1140 -1.7926  0.2723
  239MOL    C6329099   7.614   0.647   5.253  0.4391 -0.8741 -0.5950
  239MOL    H6429100   7.684   0.479   5.145 -0.8816 -0.3003 -1.7985
  239MOL    H6529101   0.108   0.531   5.268  1.0565 -0.6194 -0.2436
  239MOL    H6629102   7.657   0.738   5.294 -0.5817 -0.3303 -0.7213
  239MOL    H6729103   7.556   0.693   5.173  0.1652  1.1258  0.7307
  239MOL    C6829104   7.520   0.580   5.357  0.2620  0.2934 -0.4345
  239MOL    C6929105   7.419   0.671   5.420  0.0490  0.0218  0.3091
  239MOL    H7029106   7.455   0.499   5.325  0.0427  0.7552 -1.1893
  239MOL    H7129107   7.585   0.551   5.439  0.9493 -1.3786 -1.5457
  239MOL    H7229108   7.461   0.767   5.451 -1.0332 -0.2677  2.8300
  239MOL    H7329109   7.343   0.695   5.347 -0.9410  0.9574  1.6144
  239MOL    C7429110   7.339   0.610   5.537 -0.2122  0.5979  0.4528
  239MOL    C7529111   7.257   0.719   5.600 -0.0627  0.1706 -0.2335
  239MOL    H7629112   7.271   0.533   5.499  0.2119 -1.3546  3.4938
  239MOL    H7729113   7.404   0.559   5.608 -1.1866 -2.0507 -0.4510
  239MOL    H7829114   7.334   0.787   5.638  0.2014 -0.7486  0.9111
  239MOL    H7929115   7.196   0.778   5.533  1.5149  1.0086 -0.9697
  239MOL    C8029116   7.179   0.677   5.733  0.0385 -0.9609  0.2683
  239MOL    C8129117   7.070   0.776   5.770  0.3932  0.2009  0.3666
  239MOL    H8229118   7.123   0.585   5.715  1.4398 -1.4756 -1.6137
  239MOL    H8329119   7.254   0.655   5.810 -0.6055 -1.7537  0.6751
  239MOL    H8429120   7.113   0.872   5.799  3.0880 -0.5103 -1.0532
  239MOL    H8529121   7.010   0.797   5.682 -1.8785 -1.4827  1.4728
  239MOL    C8629122   6.982   0.731   5.879 -0.2442  0.2998  0.1832
  239MOL    C8729123   6.895   0.847   5.943 -0.3286 -0.3920 -0.3560
  239MOL    H8829124   6.909   0.661   5.837  0.8860  0.0762 -1.4391
  239MOL    H8929125   7.053   0.691   5.951  0.8202  0.2787 -0.8632
  239MOL    H9029126   6.962   0.925   5.979 -0.6841  0.5194 -1.6379
  239MOL    H9129127   6.843   0.893   5.859 -0.8546 -0.6091 -0.1574
  239MOL    C9229128   6.806   0.793   6.052  0.9397  0.1515  0.6217
  239MOL    C9329129   6.726   0.909   6.105 -0.5290 -1.1815  0.2328
  239MOL    H9429130   6.729   0.729   6.009  2.9677 -2.1943  0.3881
  239MOL    H9529131   6.856   0.740   6.134  1.9292 -0.8216 -0.6029
  239MOL    H9629132   6.796   0.978   6.153 -0.0309 -1.2869 -0.3333
  239MOL    H9729133   6.689   0.971   6.024  0.3886 -0.9527 -0.0169
  239MOL    C9829134   6.629   0.864   6.210  0.0575 -0.4824 -0.5537
  239MOL    C9929135   6.559   0.967   6.292 -0.0029  0.3039 -0.4077
  239MOL   H10029136   6.558   0.805   6.153 -0.0459 -2.0087  1.1400
  239MOL   H10129137   6.683   0.797   6.277  0.9513 -0.5685 -1.3348
  239MOL   H10229138   6.516   1.043   6.225 -2.3250 -0.3159  0.3489
  239MOL   H10329139   6.480   0.910   6.338 -0.5151  2.1593  1.0715
  239MOL   C10429140   6.654   1.033   6.393 -0.7609 -0.3877  0.5315
  239MOL   C10529141   6.589   1.158   6.458 -0.2166 -0.2283  0.3613
  239MOL   H10629142   6.705   0.965   6.462  0.0754  0.6074  0.9065
  239MOL   H10729143   6.741   1.077   6.344 -0.5423  0.1395  1.3829
  239MOL   H10829144   6.594   1.240   6.387  0.9319 -0.3564  0.2970
  239MOL   H10929145   6.487   1.130   6.486 -0.5142 -1.9450 -2.1969
  239MOL   C11029146   6.657   1.221   6.578 -0.0961  0.2373  1.1560
  239MOL   C11129147   6.583   1.351   6.627 -0.5099  0.2340  0.2748
  239MOL   H11229148   6.662   1.134   6.644  1.8855 -1.0158 -0.5650
  239MOL   H11329149   6.765   1.225   6.559 -0.4956  2.5172 -0.8830
  239MOL   H11429150   6.558   1.413   6.541  2.3548  0.2680 -0.5698
  239MOL   H11529151   6.487   1.346   6.679 -0.1534  2.1036  1.1612
  239MOL   C11629152   6.679   1.437   6.708  0.2708  0.4433 -0.4508
  239MOL   C11729153   6.621   1.581   6.743  0.6931 -0.7308 -0.5676
  239MOL   H11829154   6.717   1.385   6.796 -0.5260 -0.3157 -0.5527
  239MOL   H11929155   6.775   1.443   6.657  1.0881  1.4421  1.1437
  239MOL   H12029156   6.655   1.646   6.662 -1.6306  0.0886 -0.9428
  239MOL   H12129157   6.514   1.582   6.766  0.8410  1.0730  0.1057
  239MOL   H12229158   6.675   1.613   6.832 -1.1646  0.6523  0.0922
  240MOL     C129159   4.492   7.160   2.880  0.6806  0.3995  0.2089
  240MOL     C229160   4.490   7.304   2.905  0.0476 -0.1375 -0.3781
  240MOL     H329161   4.508   7.092   2.963  0.0892 -1.0280 -0.8370
  240MOL     H429162   4.574   7.130   2.815 -0.4109 -0.7438 -0.6551
  240MOL     H529163   4.584   7.333   2.952 -0.7384 -1.6890  2.2451
  240MOL     H629164   4.495   7.368   2.817  0.3325 -0.8928 -0.9200
  240MOL     H729165   4.405   7.132   2.821 -0.8313  1.8045  1.7209
  240MOL     C829166   4.367   7.340   2.998 -0.1904  0.2715  0.6712
  240MOL     C929167   4.340   7.494   3.014 -0.3673  0.5742 -0.2504
  240MOL    H1029168   4.279   7.304   2.944 -1.1443  2.1964  0.9135
  240MOL    H1129169   4.365   7.282   3.091  1.0807 -0.3331  0.3378
  240MOL    H1229170   4.430   7.550   3.040  2.5157 -4.4234  1.3801
  240MOL    H1329171   4.327   7.537   2.915 -0.7062  1.8625  0.3482
  240MOL    C1429172   4.225   7.543   3.104 -0.1885  0.5120 -0.5090
  240MOL    C1529173   4.238   7.509   3.254  0.9283  0.0920  0.5459
  240MOL    H1629174   4.221   7.651   3.090  2.3177  0.9788  1.8565
  240MOL    H1729175   4.124   7.522   3.068 -0.3042  1.7568 -0.9075
  240MOL    H1829176   4.253   7.401   3.266 -0.3292 -0.1465  0.0253
  240MOL    H1929177   4.319   7.567   3.299 -1.3312  3.2604  0.6926
  240MOL    C2029178   4.110   7.551   3.323 -0.1656  0.1601 -1.1331
  240MOL    C2129179   4.105   7.524   3.474  0.4384  0.3705 -1.3205
  240MOL    H2229180   4.084   7.656   3.310  1.1766  0.4979 -1.1521
  240MOL    H2329181   4.030   7.486   3.288 -1.7102 -0.5707  3.5326
  240MOL    H2429182   4.108   7.415   3.474  0.7174  0.3760 -0.9000
  240MOL    H2529183   4.197   7.556   3.523  0.2419 -2.0522  0.7142
  240MOL    C2629184   3.982   7.597   3.539  0.3162  0.1055  0.2857
  240MOL    C2729185   3.960   7.506   3.664 -0.2026  0.2628  0.3853
  240MOL    H2829186   4.011   0.007   3.563 -1.3328  0.5852  0.3056
  240MOL    H2929187   3.898   7.601   3.470  1.8818  0.2337 -1.6509
  240MOL    H3029188   3.944   7.400   3.643 -1.1172  0.3966  0.4163
  240MOL    H3129189   4.051   7.513   3.724 -0.3697  0.2363  0.6448
  240MOL    C3229190   3.841   7.540   3.752  0.8440 -0.3703 -0.2279
  240MOL    C3329191   3.829   0.004   3.803  0.0903 -0.7779 -0.2587
  240MOL    H3429192   3.748   7.507   3.705 -0.6810  0.7975  1.8524
  240MOL    H3529193   3.843   7.472   3.837  0.4122  0.0945  0.1585
  240MOL    H3629194   3.846   0.075   3.722 -0.1556  0.0185  0.3854
  240MOL    H3729195   3.728   0.023   3.837  0.4732 -0.2508  0.6110
  240MOL    C3829196   3.934   0.035   3.914 -0.3210  0.1628  0.0140
  240MOL    C3929197   3.924   0.167   3.990 -0.6876 -0.5104 -0.3358
  240MOL    H4029198   3.937   7.644   3.985  2.5378  0.4361  0.2497
  240MOL    H4129199   4.030   0.027   3.863 -1.8626 -0.1164 -2.9455
  240MOL    H4229200   3.911   0.240   3.910 -0.1646 -1.1913 -1.0455
  240MOL    H4329201   3.832   0.169   4.050 -0.6140 -0.9072 -0.2130
  240MOL    C4429202   4.052   0.197   4.073  0.2682 -0.3723 -0.2286
  240MOL    C4529203   4.186   0.233   4.004  0.2712  0.4933 -0.0964
  240MOL    H4629204   4.019   0.281   4.135  0.7131 -0.5104  0.1954
  240MOL    H4729205   4.072   0.121   4.147 -0.9126 -1.0625 -0.6056
  240MOL    H4829206   4.212   0.151   3.938  2.3710  1.3316 -0.3417
  240MOL    H4929207   4.167   0.326   3.951 -1.7761  0.4672  0.5512
  240MOL    C5029208   4.301   0.260   4.109 -0.3318  0.0541  0.2638
  240MOL    C5129209   4.437   0.262   4.036 -0.9140  0.3716 -0.6390
  240MOL    H5229210   4.278   0.349   4.167 -1.4396 -1.0989  1.6331
  240MOL    H5329211   4.312   0.183   4.185 -1.6823  2.2008  2.7176
  240MOL    H5429212   4.447   0.344   3.965  0.2421  0.6881 -0.1078
  240MOL    H5529213   4.514   0.281   4.111  0.3398 -1.9609 -1.2846
  240MOL    C5629214   4.490   0.133   3.971  0.7778  0.6152 -0.2191
  240MOL    C5729215   4.505   0.000   4.050  0.0884  0.2934 -0.4237
  240MOL    H5829216   4.417   0.122   3.891 -0.0402 -1.2011  0.7534
  240MOL    H5929217   4.589   0.152   3.929  0.2498  1.4719 -1.1019
  240MOL    H6029218   4.563   0.019   4.140  0.5353 -2.8845  0.0023
  240MOL    H6129219   4.411   7.662   4.096  1.1031  0.0339  1.5293
  240MOL    C6229220   4.573   7.576   3.974 -0.0999 -0.2308  0.5281
  240MOL    C6329221   4.580   7.441   4.036 -0.0736  0.8641 -0.4887
  240MOL    H6429222   4.512   7.560   3.886  0.2657 -0.1748  0.2647
  240MOL    H6529223   4.670   7.609   3.938 -0.2946 -1.0863 -0.7845
  240MOL    H6629224   4.595   7.456   4.143  0.3583  0.5756 -0.5078
  240MOL    H6729225   4.484   7.390   4.033  0.7150 -0.5984 -1.3323
  240MOL    C6829226   4.678   7.358   3.949 -0.1321  0.0001  0.5952
  240MOL    C6929227   4.655   7.202   3.945 -0.3635  0.1565 -0.3908
  240MOL    H7029228   4.680   7.387   3.844 -0.0657 -0.9066  0.3392
  240MOL    H7129229   4.777   7.383   3.986 -0.7146  1.1174  1.4186
  240MOL    H7229230   4.686   7.155   4.039  0.0243 -0.3535 -0.7680
  240MOL    H7329231   4.549   7.180   3.933 -0.4725  0.0040  0.7611
  240MOL    C7429232   4.731   7.139   3.828  0.1149 -0.5235  0.0207
  240MOL    C7529233   4.693   6.993   3.796 -0.3693 -0.2502 -0.3044
  240MOL    H7629234   4.706   7.201   3.742  0.5668 -1.5290 -0.8442
  240MOL    H7729235   4.835   7.147   3.857  0.0367 -0.1895  0.2118
  240MOL    H7829236   4.685   6.953   3.898  0.2284  0.9312  0.2192
  240MOL    H7929237   4.600   6.987   3.740 -0.4716  3.3542 -0.6391
  240MOL    C8029238   4.809   6.924   3.720  0.5608  0.3036  0.9816
  240MOL    C8129239   4.771   6.778   3.689  0.1799 -0.0459 -0.0339
  240MOL    H8229240   4.836   6.982   3.631 -1.7590  1.0475  0.7206
  240MOL    H8329241   4.900   6.922   3.780  1.5334  0.0159 -0.4497
  240MOL    H8429242   4.734   6.722   3.775 -0.0394  0.4019  0.1639
  240MOL    H8529243   4.686   6.786   3.621  0.1795  1.2623  0.1080
  240MOL    C8629244   4.883   6.689   3.635  0.3712  0.1691 -0.5122
  240MOL    C8729245   4.816   6.567   3.560 -0.7274  0.2898  0.1268
  240MOL    H8829246   4.952   6.745   3.572 -0.7691  3.6282  1.2315
  240MOL    H8929247   4.946   6.650   3.715 -2.3263  0.3851  1.7791
  240MOL    H9029248   4.754   6.517   3.634  0.4224  0.5033  1.2492
  240MOL    H9129249   4.757   6.599   3.474  1.4781  0.9311 -1.1809
  240MOL    C9229250   4.913   6.456   3.507 -0.0674 -0.4458  0.5433
  240MOL    C9329251   4.838   6.330   3.465 -0.0839  0.3310 -0.3775
  240MOL    H9429252   4.964   6.492   3.418 -0.1086  2.7923  1.7791
  240MOL    H9529253   4.989   6.429   3.581  0.1341 -0.6340  0.2694
  240MOL    H9629254   4.788   6.281   3.549  0.5057  1.2714  0.5433
  240MOL    H9729255   4.758   6.357   3.396 -1.4890 -1.2107  0.5954
  240MOL    C9829256   4.934   6.228   3.392  0.1644 -0.5970  0.3892
  240MOL    C9929257   4.870   6.101   3.351  0.0496 -0.0073  0.4982
  240MOL   H10029258   4.983   6.278   3.308 -1.8489 -0.0315 -0.4881
  240MOL   H10129259   5.017   6.208   3.459  1.0088 -0.3152 -0.5531
  240MOL   H10229260   4.938   6.033   3.299 -1.5207  0.4419 -2.2285
  240MOL   H10329261   4.836   6.039   3.434 -2.6520  2.3856  1.2420
  240MOL   C10429262   4.749   6.118   3.261 -0.4101 -0.2394 -0.3271
  240MOL   C10529263   4.684   5.989   3.206 -0.0437 -0.0958 -0.3137
  240MOL   H10629264   4.676   6.180   3.314  0.6579  2.1208 -1.5538
  240MOL   H10729265   4.760   6.181   3.173 -0.9592 -0.2559 -0.4114
  240MOL   H10829266   4.689   5.926   3.295  0.3280  1.6136  0.9078
  240MOL   H10929267   4.581   6.014   3.180  0.5099  1.9158 -0.6647
  240MOL   C11029268   4.758   5.923   3.094  0.5051  0.5320 -0.3500
  240MOL   C11129269   4.703   5.787   3.046 -0.5730 -0.2996 -0.1101
  240MOL   H11229270   4.746   5.990   3.009 -0.3800  0.7206 -0.0901
  240MOL   H11329271   4.864   5.913   3.117 -0.1294 -3.6112  1.1894
  240MOL   H11429272   4.721   5.706   3.117  1.2314  0.4163  0.2789
  240MOL   H11529273   4.595   5.788   3.028 -0.9354  0.6370  1.9095
  240MOL   C11629274   4.763   5.743   2.913  0.3783  1.0308  0.3267
  240MOL   C11729275   4.683   5.626   2.846  0.6882  0.0238  0.4897
  240MOL   H11829276   4.763   5.824   2.839  0.5089  1.9714  1.3498
  240MOL   H11929277   4.866   5.709   2.915  1.2760  3.0198 -4.6452
  240MOL   H12029278   4.685   5.537   2.909 -0.1076 -0.1363  0.2910
  240MOL   H12129279   4.581   5.653   2.821  0.5027 -1.0765  0.0393
  240MOL   H12229280   4.726   5.591   2.752  2.2507  1.5039  0.6182
  241MOL     C129281   1.495   1.324   1.779  0.2556 -0.5718 -0.2767
  241MOL     C229282   1.640   1.324   1.833 -0.1462 -0.8076 -0.3099
  241MOL     H329283   1.438   1.233   1.799  2.0553 -1.6900 -0.1495
  241MOL     H429284   1.477   1.344   1.673  1.1113 -2.0900 -0.7185
  241MOL     H529285   1.664   1.422   1.874 -0.2435 -1.2018  0.7291
  241MOL     H629286   1.640   1.245   1.909 -0.6074 -1.6219 -1.1465
  241MOL     H729287   1.445   1.408   1.827  3.8163  0.7678  1.2723
  241MOL     C829288   1.733   1.289   1.709 -0.1693 -0.2283 -0.2576
  241MOL     C929289   1.708   1.145   1.653  0.1267 -0.3099  0.0498
  241MOL    H1029290   1.716   1.353   1.623 -3.2240 -1.8289 -0.9146
  241MOL    H1129291   1.837   1.291   1.741  0.5645  0.3760 -2.5892
  241MOL    H1229292   1.701   1.071   1.733 -0.0497  0.2824  0.5875
  241MOL    H1329293   1.610   1.141   1.606 -0.9441 -1.7039  2.3255
  241MOL    C1429294   1.818   1.102   1.556 -0.3547  0.2274 -0.2618
  241MOL    C1529295   1.788   0.981   1.457  0.4953  0.1928 -0.2697
  241MOL    H1629296   1.850   1.186   1.495 -1.6939  1.1106  0.2404
  241MOL    H1729297   1.903   1.083   1.622  0.9984 -0.8291 -2.2569
  241MOL    H1829298   1.769   0.887   1.510  0.0830 -0.4496 -1.5297
  241MOL    H1929299   1.692   1.004   1.411 -1.0632 -0.7031  2.3741
  241MOL    C2029300   1.877   0.972   1.336  0.5091 -0.0297 -0.0961
  241MOL    C2129301   2.036   0.958   1.367 -0.3748 -0.6472 -0.9451
  241MOL    H2229302   1.848   0.882   1.282 -0.4634  0.7328 -0.8675
  241MOL    H2329303   1.857   1.059   1.273  0.9146  0.2108  0.0983
  241MOL    H2429304   2.079   1.044   1.418 -1.4214 -1.2255  0.9606
  241MOL    H2529305   2.045   0.871   1.432  0.5528  0.7788  0.8734
  241MOL    C2629306   2.126   0.948   1.239 -0.7077  0.1412 -0.9506
  241MOL    C2729307   2.276   0.908   1.276 -0.1166  0.2393  0.5726
  241MOL    H2829308   2.096   0.876   1.162 -0.7568  0.4230 -1.1920
  241MOL    H2929309   2.127   1.047   1.195 -0.3601  0.4465 -0.2603
  241MOL    H3029310   2.314   0.992   1.334 -1.1431  0.8077  0.4262
  241MOL    H3129311   2.283   0.817   1.336 -4.1944 -1.0963 -0.7866
  241MOL    C3229312   2.368   0.903   1.154  0.3976 -0.6761 -0.3557
  241MOL    C3329313   2.513   0.915   1.194 -0.0098 -0.2256 -0.8524
  241MOL    H3429314   2.343   0.804   1.117 -1.4312 -0.4357  0.1999
  241MOL    H3529315   2.341   0.981   1.083  0.5665  0.4374  0.7736
  241MOL    H3629316   2.529   1.022   1.211 -0.9249  0.1336 -2.1386
  241MOL    H3729317   2.526   0.865   1.290 -3.5279  0.5785  0.1501
  241MOL    C3829318   2.599   0.852   1.082  0.0830 -0.2844  1.1479
  241MOL    C3929319   2.743   0.862   1.121 -0.7302  0.8352  0.4135
  241MOL    H4029320   2.576   0.747   1.061  1.3428  0.1584 -2.9544
  241MOL    H4129321   2.579   0.901   0.987 -1.3862 -2.8119  0.1079
  241MOL    H4229322   2.763   0.960   1.164 -1.0076  1.4216 -0.7763
  241MOL    H4329323   2.747   0.784   1.196 -0.4394  0.6275  0.1860
  241MOL    C4429324   2.837   0.838   1.001  0.4695 -0.0571 -0.5231
  241MOL    C4529325   2.975   0.811   1.044 -0.8706  0.0817 -0.2124
  241MOL    H4629326   2.816   0.750   0.940 -0.5170 -0.6070  0.6205
  241MOL    H4729327   2.833   0.919   0.928  2.0011  0.3698 -0.1666
  241MOL    H4829328   2.998   0.903   1.097 -1.0098 -0.7837  1.3853
  241MOL    H4929329   2.968   0.719   1.102  0.5360  1.3199  1.9418
  241MOL    C5029330   3.078   0.798   0.926  0.1339 -0.2096  0.4632
  241MOL    C5129331   3.224   0.759   0.968  0.0754  0.5167  0.1797
  241MOL    H5229332   3.028   0.746   0.844 -0.8924 -1.2893  1.7376
  241MOL    H5329333   3.068   0.900   0.889 -1.0229 -0.0995  1.0380
  241MOL    H5429334   3.240   0.790   1.071 -0.1319  0.0835  0.3426
  241MOL    H5529335   3.223   0.651   0.979 -0.8221  0.4746 -0.2923
  241MOL    C5629336   3.336   0.803   0.868 -0.4194 -0.4811 -0.4948
  241MOL    C5729337   3.485   0.758   0.905 -0.2075  0.1939  0.1885
  241MOL    H5829338   3.309   0.794   0.763 -0.5749 -1.2561 -0.3856
  241MOL    H5929339   3.330   0.912   0.868 -1.4035 -0.5132  1.2256
  241MOL    H6029340   3.524   0.816   0.988  0.9592  0.1129 -0.2940
  241MOL    H6129341   3.481   0.658   0.948  0.3841 -0.2565 -0.7914
  241MOL    C6229342   3.571   0.771   0.776 -0.3757 -0.0659 -0.9258
  241MOL    C6329343   3.715   0.728   0.808 -0.0299 -0.0052 -0.7862
  241MOL    H6429344   3.534   0.722   0.686 -1.9534 -0.1728 -0.2185
  241MOL    H6529345   3.580   0.871   0.733  0.0898 -0.5978 -2.1038
  241MOL    H6629346   3.764   0.792   0.881 -0.5125  0.6437 -1.0224
  241MOL    H6729347   3.708   0.625   0.843 -0.0416  0.1482 -0.3409
  241MOL    C6829348   3.805   0.718   0.686 -0.0235 -0.6429  0.2590
  241MOL    C6929349   3.941   0.664   0.733  0.3599  0.5571  0.4434
  241MOL    H7029350   3.750   0.649   0.622 -0.9399 -0.9446  1.3627
  241MOL    H7129351   3.817   0.815   0.638  0.2655 -0.7072  0.2029
  241MOL    H7229352   3.973   0.732   0.812 -1.3776 -0.1255  1.7774
  241MOL    H7329353   3.930   0.563   0.774  0.4905  0.1291 -0.5554
  241MOL    C7429354   4.041   0.648   0.617  1.0190 -0.7675 -0.2876
  241MOL    C7529355   4.156   0.556   0.662 -0.0651 -0.4013 -0.3239
  241MOL    H7629356   3.983   0.614   0.531 -0.9959 -0.8547  1.0771
  241MOL    H7729357   4.070   0.753   0.609  1.3217 -0.8468 -0.2429
  241MOL    H7829358   4.183   0.563   0.767 -0.4708 -2.3345 -0.0762
  241MOL    H7929359   4.137   0.449   0.656 -4.8640  0.2701  0.7970
  241MOL    C8029360   4.279   0.597   0.580  0.6599  0.0310 -0.4196
  241MOL    C8129361   4.414   0.517   0.618  0.1222  0.0982  0.1153
  241MOL    H8229362   4.258   0.586   0.474 -2.4512 -3.5975  0.4873
  241MOL    H8329363   4.309   0.700   0.597  0.2726  0.1749 -0.6257
  241MOL    H8429364   4.459   0.550   0.712 -1.1955  1.6918  0.2107
  241MOL    H8529365   4.393   0.412   0.637 -1.4266  0.4422  0.3958
  241MOL    C8629366   4.516   0.525   0.495  0.5465  0.5761 -0.2339
  241MOL    C8729367   4.643   0.448   0.530  0.2149  0.4525  0.1711
  241MOL    H8829368   4.476   0.484   0.403  1.0863  1.6199 -0.9449
  241MOL    H8929369   4.536   0.629   0.468 -0.8840  0.8888 -0.1430
  241MOL    H9029370   4.688   0.488   0.620  0.0298 -2.1303  1.4595
  241MOL    H9129371   4.625   0.345   0.559  2.5067 -0.6325 -2.0356
  241MOL    C9229372   4.765   0.459   0.429  0.3756  0.1428  1.0041
  241MOL    C9329373   4.752   0.384   0.290  0.0028  0.3996  0.3873
  241MOL    H9429374   4.780   0.565   0.410 -0.0950 -0.0251 -0.3316
  241MOL    H9529375   4.862   0.440   0.476  1.3857  0.6010 -0.8460
  241MOL    H9629376   4.728   0.278   0.302  0.7983  0.2656  0.7528
  241MOL    H9729377   4.669   0.426   0.232 -0.8190  0.3309  1.5017
  241MOL    C9829378   4.883   0.398   0.221 -0.2683  0.3119  0.4462
  241MOL    C9929379   4.895   0.322   0.091 -0.0870  0.0970 -0.1107
  241MOL   H10029380   4.898   0.502   0.193  1.5916 -0.3803 -1.2876
  241MOL   H10129381   4.970   0.360   0.275 -0.4484  0.3659  0.7705
  241MOL   H10229382   4.901   0.220   0.129 -0.5717  0.0330 -0.1982
  241MOL   H10329383   4.808   0.326   0.025  0.3396 -2.1942 -0.8720
  241MOL   C10429384   5.017   0.363   0.003  0.0719 -0.3993 -0.2271
  241MOL   C10529385   5.035   0.267   7.570 -0.2615 -0.0899 -0.2058
  241MOL   H10629386   4.992   0.466   7.670  0.6328 -0.6160 -1.7571
  241MOL   H10729387   5.106   0.357   0.066 -0.9185  0.8994  1.2926
  241MOL   H10829388   5.028   0.162   7.599  0.4746 -0.1153 -0.1131
  241MOL   H10929389   4.945   0.277   7.511  0.3846 -2.2329 -1.5978
  241MOL   C11029390   5.157   0.302   7.489 -0.6840  0.6553 -0.2898
  241MOL   C11129391   5.216   0.194   7.394  0.0505  0.2113  0.3687
  241MOL   H11229392   5.144   0.395   7.434  0.7864  0.2509 -1.3489
  241MOL   H11329393   5.241   0.320   7.556 -0.2699  0.0015 -0.6241
  241MOL   H11429394   5.242   0.099   7.442  0.0092 -0.2657 -0.5407
  241MOL   H11529395   5.143   0.161   7.320  1.5889  1.4003 -1.7313
  241MOL   C11629396   5.353   0.243   7.333 -0.1803 -0.4165 -0.4768
  241MOL   C11729397   5.420   0.143   7.236  0.0204  0.1071 -0.0133
  241MOL   H11829398   5.339   0.345   7.297  0.3157  0.7588  2.4630
  241MOL   H11929399   5.410   0.262   7.424 -3.5312  0.1208  1.6020
  241MOL   H12029400   5.369   0.126   7.141 -0.7460 -0.2286  0.4617
  241MOL   H12129401   5.523   0.173   7.216 -0.1685 -0.5565 -2.0926
  241MOL   H12229402   5.430   0.049   7.290  0.6066  1.6102  2.5881
  242MOL     C129403   4.475   6.459   3.476 -0.7502  0.4977  0.3441
  242MOL     C229404   4.366   6.556   3.435  0.1809  0.7734 -0.7822
  242MOL     H329405   4.441   6.358   3.452 -1.0042  0.9984 -1.4644
  242MOL     H429406   4.497   6.445   3.582 -0.8923 -0.5529  0.2349
  242MOL     H529407   4.374   6.545   3.327  1.0341 -2.1091 -0.4627
  242MOL     H629408   4.272   6.517   3.473  0.8176 -0.2332 -0.1923
  242MOL     H729409   4.573   6.479   3.433 -1.3729  0.8592 -0.9412
  242MOL     C829410   4.403   6.700   3.493 -0.1075  0.3185  0.2577
  242MOL     C929411   4.295   6.797   3.446  0.6160 -0.9345 -0.1498
  242MOL    H1029412   4.402   6.687   3.601 -1.7700 -1.1316  0.1089
  242MOL    H1129413   4.494   6.734   3.445 -1.0839  0.0490 -1.8818
  242MOL    H1229414   4.270   6.797   3.340 -0.9019 -1.7599  0.1982
  242MOL    H1329415   4.208   6.742   3.482 -0.2185  0.1539 -0.4896
  242MOL    C1429416   4.313   6.938   3.494 -0.8262 -0.8699 -0.5255
  242MOL    C1529417   4.186   7.030   3.472  0.1185  0.5842  0.1053
  242MOL    H1629418   4.352   6.939   3.596  0.9935 -2.8172 -1.1455
  242MOL    H1729419   4.395   6.974   3.431 -1.0534  0.9577  0.2277
  242MOL    H1829420   4.237   7.127   3.470 -1.0691  1.2242 -0.1184
  242MOL    H1929421   4.156   7.013   3.368  3.2110  0.0211 -0.7578
  242MOL    C2029422   4.076   7.014   3.579 -0.0289  0.2719 -0.3135
  242MOL    C2129423   3.953   7.099   3.545 -0.5998  0.2841 -0.3851
  242MOL    H2229424   4.046   6.913   3.607  0.4455  0.5491  1.2710
  242MOL    H2329425   4.115   7.059   3.671 -1.8686 -3.0279  2.1866
  242MOL    H2429426   3.985   7.203   3.535  0.5390  0.1137  1.2994
  242MOL    H2529427   3.901   7.063   3.456  0.3986 -0.5992 -0.6171
  242MOL    C2629428   3.855   7.101   3.662 -0.4497  0.9838  0.9308
  242MOL    C2729429   3.722   7.172   3.622  0.0587 -0.0700 -0.4781
  242MOL    H2829430   3.829   6.999   3.691  2.5126  0.1795  0.9410
  242MOL    H2929431   3.903   7.143   3.750  3.0279  3.3418 -1.9513
  242MOL    H3029432   3.759   7.263   3.575  0.5537 -0.3306 -0.5845
  242MOL    H3129433   3.677   7.115   3.541 -0.7128  0.5744 -0.5115
  242MOL    C3229434   3.606   7.189   3.727 -0.5181 -0.0212 -0.7100
  242MOL    C3329435   3.479   7.258   3.669 -0.1229 -0.2790 -0.0398
  242MOL    H3429436   3.572   7.090   3.759  2.7991 -0.3257  2.1239
  242MOL    H3529437   3.647   7.240   3.814  0.7865 -1.5080 -0.4327
  242MOL    H3629438   3.507   7.354   3.626 -1.3364 -0.5857 -1.5568
  242MOL    H3729439   3.443   7.205   3.581  0.1029 -1.7193  0.7180
  242MOL    C3829440   3.362   7.249   3.764 -0.7238  0.2583 -1.0002
  242MOL    C3929441   3.237   7.332   3.727  0.6785 -0.2697  0.1636
  242MOL    H4029442   3.337   7.148   3.795 -0.1520  0.0058 -1.3461
  242MOL    H4129443   3.402   7.299   3.853 -0.9179 -0.4126 -0.5396
  242MOL    H4229444   3.165   7.330   3.809 -0.0864  0.0927 -0.4926
  242MOL    H4329445   3.274   7.434   3.717 -1.0042  0.6902  3.0568
  242MOL    C4429446   3.170   7.298   3.597  0.4584 -0.8785  0.4076
  242MOL    C4529447   3.044   7.371   3.561  0.2036 -0.1782  0.2581
  242MOL    H4629448   3.233   7.299   3.508  1.9808 -1.3051  1.4574
  242MOL    H4729449   3.144   7.194   3.618  2.0594 -0.9809  2.0632
  242MOL    H4829450   2.976   7.375   3.646 -0.4283  0.4981 -0.2748
  242MOL    H4929451   3.070   7.476   3.546 -1.5442  0.4411  1.3860
  242MOL    C5029452   2.980   7.312   3.440 -0.4967 -0.0633 -0.3102
  242MOL    C5129453   2.882   7.412   3.374  0.2210  0.3490  0.0242
  242MOL    H5229454   3.058   7.277   3.372  1.2040  0.9173  1.0864
  242MOL    H5329455   2.924   7.224   3.473  0.5270 -0.5979  0.0180
  242MOL    H5429456   2.793   7.408   3.437  1.3074  0.5043  1.6106
  242MOL    H5529457   2.911   7.517   3.376 -0.5319  0.5399  1.1915
  242MOL    C5629458   2.836   7.372   3.239  0.2735  0.0648 -0.7900
  242MOL    C5729459   2.935   7.389   3.120 -0.1603 -0.1769 -0.0930
  242MOL    H5829460   2.815   7.265   3.244 -3.2470  0.7974  2.1043
  242MOL    H5929461   2.741   7.419   3.215 -1.8749 -2.4828  2.2554
  242MOL    H6029462   2.951   7.493   3.089  1.2573 -0.4687 -0.3365
  242MOL    H6129463   3.037   7.370   3.154  0.8929  3.7684 -0.7071
  242MOL    C6229464   2.893   7.319   2.992  0.3482 -0.0558  0.3244
  242MOL    C6329465   3.000   7.326   2.876  0.0109  0.3387  0.5699
  242MOL    H6429466   2.878   7.214   3.018  1.7968 -0.0202  1.3802
  242MOL    H6529467   2.798   7.366   2.965  0.9880  1.4043  0.5343
  242MOL    H6629468   3.036   7.427   2.856  0.3382  0.4395  1.6485
  242MOL    H6729469   3.090   7.279   2.915  0.0579 -0.7556 -0.8252
  242MOL    C6829470   2.945   7.248   2.755  0.1433 -0.4579 -0.6460
  242MOL    C6929471   2.991   7.283   2.611  0.2710  0.4058  0.8768
  242MOL    H7029472   2.947   7.142   2.777 -0.4259 -0.4819 -0.7222
  242MOL    H7129473   2.840   7.275   2.760  0.3138  0.0509  0.3373
  242MOL    H7229474   2.962   7.381   2.573  1.3719 -0.5735 -2.6631
  242MOL    H7329475   3.099   7.280   2.601  0.1585 -0.8987  0.0331
  242MOL    C7429476   2.937   7.180   2.511  0.1978  0.2296 -0.8545
  242MOL    C7529477   3.010   7.188   2.379  0.1645  0.1849  0.4760
  242MOL    H7629478   2.965   7.087   2.560 -0.2900 -0.2788 -1.5264
  242MOL    H7729479   2.829   7.193   2.510  0.3425  2.0528  1.7672
  242MOL    H7829480   2.968   7.267   2.318 -1.0960 -0.5728  0.3586
  242MOL    H7929481   3.114   7.218   2.396  0.3384 -0.4749  0.6151
  242MOL    C8029482   3.013   7.049   2.306 -0.8237 -0.2238 -0.2169
  242MOL    C8129483   3.108   7.035   2.194 -0.0001 -0.0286  0.4210
  242MOL    H8229484   3.057   6.987   2.384  0.4052  0.9786  0.0634
  242MOL    H8329485   2.916   7.002   2.287 -1.1917  0.9631 -1.3112
  242MOL    H8429486   3.065   7.076   2.102  1.2522 -0.8968 -0.5763
  242MOL    H8529487   3.192   7.101   2.213 -0.6063  1.3673 -1.5444
  242MOL    C8629488   3.149   6.890   2.165 -0.0161 -0.0148  0.4969
  242MOL    C8729489   3.260   6.874   2.058 -0.4656  0.1781  0.3420
  242MOL    H8829490   3.185   6.841   2.256  1.4738 -0.4508 -0.3003
  242MOL    H8929491   3.068   6.839   2.113  0.9216  0.6740 -1.6964
  242MOL    H9029492   3.235   6.935   1.971  1.1148  0.4115  0.0393
  242MOL    H9129493   3.354   6.918   2.091  0.6096  0.5456 -3.0968
  242MOL    C9229494   3.274   6.726   2.023  0.5713 -0.1645  0.0672
  242MOL    C9329495   3.393   6.688   1.936  0.6927  0.2450  0.2237
  242MOL    H9429496   3.268   6.660   2.110  0.7639 -1.0606 -0.5876
  242MOL    H9529497   3.181   6.684   1.985  1.1880 -1.2611 -0.2605
  242MOL    H9629498   3.402   6.744   1.843  0.8734  0.2385  0.2377
  242MOL    H9729499   3.483   6.706   1.994  0.0800 -1.3561  1.6987
  242MOL    C9829500   3.392   6.542   1.883  0.1263 -0.1491 -0.0674
  242MOL    C9929501   3.495   6.495   1.781 -0.3051 -0.2285  0.0430
  242MOL   H10029502   3.400   6.483   1.974 -0.8755  0.2450  0.2784
  242MOL   H10129503   3.293   6.515   1.848 -0.9403  1.2521  1.7878
  242MOL   H10229504   3.468   6.548   1.689 -1.6380 -0.4293  0.3048
  242MOL   H10329505   3.592   6.525   1.819  0.6940 -0.3250 -2.3274
  242MOL   C10429506   3.499   6.347   1.743 -0.4835 -0.2200  0.3458
  242MOL   C10529507   3.618   6.325   1.655 -0.1210  0.0787  0.7804
  242MOL   H10629508   3.491   6.270   1.821 -2.2373 -2.0241 -1.5501
  242MOL   H10729509   3.414   6.322   1.680 -0.5975 -2.1794  1.2303
  242MOL   H10829510   3.619   6.391   1.568 -1.0848 -1.5328 -0.4788
  242MOL   H10929511   3.700   6.351   1.722  0.2211 -1.3466  0.9284
  242MOL   C11029512   3.636   6.173   1.612 -0.1228 -0.2208 -0.0135
  242MOL   C11129513   3.745   6.171   1.505 -0.3653 -0.1082 -0.3280
  242MOL   H11229514   3.665   6.111   1.697  2.0845  1.4574  0.5114
  242MOL   H11329515   3.544   6.126   1.578 -0.2541  0.4354 -0.5584
  242MOL   H11429516   3.731   6.254   1.436  1.6025 -0.4374 -1.1652
  242MOL   H11529517   3.836   6.186   1.564  0.1022 -1.1301 -0.7870
  242MOL   C11629518   3.755   6.042   1.426  0.3045  0.4926  0.1125
  242MOL   C11729519   3.785   5.917   1.508 -0.8241  0.1049 -0.0810
  242MOL   H11829520   3.666   6.021   1.366  0.4116 -0.2180  0.2005
  242MOL   H11929521   3.835   6.049   1.352  1.4370  4.8023  1.5763
  242MOL   H12029522   3.879   5.936   1.560 -1.4275  1.8550  0.4091
  242MOL   H12129523   3.700   5.880   1.564 -0.7269 -0.6931 -0.4566
  242MOL   H12229524   3.800   5.830   1.445  1.1682 -0.1563  0.6966
  243MOL     C129525   2.650   3.414   3.560  0.0404  0.7780  0.3964
  243MOL     C229526   2.657   3.538   3.650 -0.5442 -0.2393 -0.3111
  243MOL     H329527   2.550   3.398   3.519  0.2952  1.3845 -0.4816
  243MOL     H429528   2.689   3.325   3.610  0.0948 -0.3832 -1.6413
  243MOL     H529529   2.593   3.525   3.738  1.7714 -1.0915  1.2720
  243MOL     H629530   2.760   3.546   3.683 -0.9981 -1.5023  1.4678
  243MOL     H729531   2.709   3.436   3.471  0.2581  0.6153  0.5012
  243MOL     C829532   2.606   3.668   3.585 -0.8992  0.9666  0.7367
  243MOL     C929533   2.611   3.788   3.684 -0.2304 -0.6111  0.4160
  243MOL    H1029534   2.657   3.694   3.493  1.2948  2.0290  2.2223
  243MOL    H1129535   2.500   3.650   3.565 -0.8833  2.9110 -1.1451
  243MOL    H1229536   2.575   3.753   3.780 -1.3146 -0.2105  0.1670
  243MOL    H1329537   2.712   3.826   3.695  0.6253 -2.4764 -0.6610
  243MOL    C1429538   2.524   3.903   3.631 -0.2885 -0.5529  0.0168
  243MOL    C1529539   2.582   4.042   3.658  0.1261  0.0953 -0.1856
  243MOL    H1629540   2.509   3.895   3.523  1.5390 -0.0398 -0.2766
  243MOL    H1729541   2.432   3.895   3.690 -0.0372 -0.1319  0.4672
  243MOL    H1829542   2.632   4.054   3.754  1.7301  0.6845 -1.0695
  243MOL    H1929543   2.662   4.053   3.585  1.1112 -1.7853  0.5746
  243MOL    C2029544   2.481   4.161   3.633 -0.3908  0.1315  0.6059
  243MOL    C2129545   2.539   4.293   3.656 -0.5730  0.2431 -0.7589
  243MOL    H2229546   2.447   4.159   3.529 -1.3379  0.0376  0.9151
  243MOL    H2329547   2.390   4.138   3.688 -0.0001 -1.1536  0.7248
  243MOL    H2429548   2.563   4.305   3.762  0.5550 -0.4283 -0.9167
  243MOL    H2529549   2.634   4.310   3.605 -0.4736 -0.3994 -0.7971
  243MOL    C2629550   2.451   4.406   3.616  0.1594 -0.6986 -0.9107
  243MOL    C2729551   2.501   4.546   3.657 -0.4430  0.6400  1.1449
  243MOL    H2829552   2.434   4.400   3.508 -1.2724 -0.7997 -0.6871
  243MOL    H2929553   2.357   4.393   3.670  2.1124 -0.4192  2.6647
  243MOL    H3029554   2.489   4.552   3.765  1.2052  0.0586  1.3700
  243MOL    H3129555   2.606   4.536   3.629 -0.7487 -1.8688  0.8141
  243MOL    C3229556   2.443   4.672   3.579 -0.5985  1.1347 -0.1611
  243MOL    C3329557   2.484   4.800   3.636 -0.8377 -0.2319 -0.4078
  243MOL    H3429558   2.469   4.658   3.475 -1.1827  0.1137 -0.1768
  243MOL    H3529559   2.334   4.679   3.580 -0.4655  3.9907 -2.0447
  243MOL    H3629560   2.461   4.800   3.743  1.6451  0.6984  0.1658
  243MOL    H3729561   2.593   4.803   3.635 -0.7911 -1.3452 -3.6129
  243MOL    C3829562   2.427   4.928   3.575 -0.2497 -0.0726 -1.1146
  243MOL    C3929563   2.472   5.069   3.629  0.6342  0.6000  0.3644
  243MOL    H4029564   2.427   4.924   3.466 -0.0828 -1.5062 -1.0789
  243MOL    H4129565   2.319   4.928   3.587 -0.5235  1.9323 -3.4111
  243MOL    H4229566   2.472   5.077   3.738 -1.2098  0.5301  0.3904
  243MOL    H4329567   2.575   5.093   3.602 -0.1048  2.7917 -0.6324
  243MOL    C4429568   2.396   5.185   3.572 -0.4659  0.1653 -0.4558
  243MOL    C4529569   2.457   5.315   3.624 -0.1056 -0.0494 -0.0266
  243MOL    H4629570   2.376   5.184   3.465 -1.7139  0.9571 -0.2373
  243MOL    H4729571   2.295   5.180   3.613 -0.4433 -1.3615 -0.5653
  243MOL    H4829572   2.454   5.314   3.733 -0.1855 -0.8218 -0.0326
  243MOL    H4929573   2.564   5.315   3.601  0.0957  0.6659  0.8838
  243MOL    C5029574   2.393   5.443   3.568 -0.0428 -0.3504 -0.7964
  243MOL    C5129575   2.463   5.573   3.616 -0.1385 -0.5464  0.3273
  243MOL    H5229576   2.380   5.441   3.460  0.8824 -0.7715 -0.9029
  243MOL    H5329577   2.293   5.437   3.610  0.4391 -0.7615  0.3096
  243MOL    H5429578   2.395   5.658   3.608  0.7651  0.0259 -1.5927
  243MOL    H5529579   2.484   5.550   3.720  0.3883 -2.0993 -0.1025
  243MOL    C5629580   2.587   5.607   3.523  0.1671  0.3274 -0.0969
  243MOL    C5729581   2.657   5.750   3.550 -0.7752 -0.2198  0.0942
  243MOL    H5829582   2.660   5.529   3.541  1.4108  0.7222 -3.1114
  243MOL    H5929583   2.560   5.590   3.419 -1.9611 -2.8743  0.9144
  243MOL    H6029584   2.673   5.764   3.657 -0.4835 -1.3447  0.2071
  243MOL    H6129585   2.754   5.761   3.502 -0.0767 -0.7666  1.3488
  243MOL    C6229586   2.572   5.872   3.499 -0.0878 -0.6956 -0.6579
  243MOL    C6329587   2.598   6.005   3.564 -0.3715  0.3665 -0.0762
  243MOL    H6429588   2.565   5.861   3.390 -1.0230  1.4209 -0.8335
  243MOL    H6529589   2.467   5.853   3.524 -0.1783  0.2924 -0.2649
  243MOL    H6629590   2.579   6.008   3.671  1.5446  0.7516  0.2715
  243MOL    H6729591   2.701   6.033   3.544  0.5357 -2.2572  0.7104
  243MOL    C6829592   2.518   6.111   3.492 -0.4225 -0.4412 -0.1826
  243MOL    C6929593   2.549   6.255   3.550 -0.6149  0.5024 -0.3454
  243MOL    H7029594   2.538   6.104   3.385 -1.7495  1.2359 -0.5696
  243MOL    H7129595   2.411   6.092   3.503 -0.0130 -1.6911  2.0580
  243MOL    H7229596   2.525   6.240   3.655  1.7295 -1.7723 -0.0822
  243MOL    H7329597   2.656   6.269   3.531 -0.7289  1.0837 -0.5709
  243MOL    C7429598   2.481   6.367   3.467 -0.1168 -0.0530 -0.8450
  243MOL    C7529599   2.503   6.503   3.536 -0.1607  0.9726  0.4022
  243MOL    H7629600   2.527   6.367   3.368 -0.3420 -0.9137 -0.9515
  243MOL    H7729601   2.375   6.347   3.452 -0.4755  1.6235 -0.6955
  243MOL    H7829602   2.452   6.502   3.632  1.1629 -1.8646  1.1516
  243MOL    H7929603   2.606   6.512   3.573  0.7405  0.8739 -1.9827
  243MOL    C8029604   2.471   6.621   3.445 -0.0641 -0.4637 -1.1386
  243MOL    C8129605   2.526   6.744   3.513  0.1289  0.3183  0.1850
  243MOL    H8229606   2.526   6.600   3.354  0.1244  1.7125 -1.5495
  243MOL    H8329607   2.364   6.630   3.425 -0.4587 -1.8190  0.2196
  243MOL    H8429608   2.490   6.740   3.615 -1.5859 -2.2050 -0.4905
  243MOL    H8529609   2.634   6.734   3.526  0.2523 -0.6765 -1.4342
  243MOL    C8629610   2.504   6.872   3.436 -0.0370 -0.5200 -0.6046
  243MOL    C8729611   2.544   6.999   3.528 -0.2954  0.4504 -0.7624
  243MOL    H8829612   2.551   6.869   3.338  0.8745 -0.1677 -0.1764
  243MOL    H8929613   2.396   6.876   3.416  0.0637  0.6974 -0.9496
  243MOL    H9029614   2.486   7.006   3.620 -1.9049 -2.3184 -1.5162
  243MOL    H9129615   2.644   6.984   3.568 -0.8151  2.8416  1.5508
  243MOL    C9229616   2.552   7.133   3.446 -0.6549  0.3629 -0.3326
  243MOL    C9329617   2.413   7.186   3.430 -0.3016  0.2474 -0.0932
  243MOL    H9429618   2.621   7.196   3.500 -0.1309  0.7453 -1.4275
  243MOL    H9529619   2.594   7.115   3.347 -1.0572 -0.1247 -0.4180
  243MOL    H9629620   2.415   7.253   3.344  0.2340 -1.1100 -1.1395
  243MOL    H9729621   2.337   7.111   3.409 -1.6482  1.4073  0.5244
  243MOL    C9829622   2.363   7.266   3.550 -0.3860 -0.3837 -0.2314
  243MOL    C9929623   2.252   7.366   3.521  0.3198 -0.3528 -0.1626
  243MOL   H10029624   2.323   7.188   3.614 -0.3954 -1.0176 -1.0016
  243MOL   H10129625   2.454   7.312   3.591 -0.3940  0.3074 -0.9622
  243MOL   H10229626   2.277   7.433   3.438  0.0552 -2.1289 -1.7259
  243MOL   H10329627   2.164   7.311   3.486 -0.3532 -0.4761  1.6980
  243MOL   C10429628   2.203   7.448   3.639  0.2938  0.0634  0.0837
  243MOL   C10529629   2.119   7.370   3.733 -0.7435 -0.6042 -0.7587
  243MOL   H10629630   2.292   7.497   3.678  0.5508  0.6516 -1.2002
  243MOL   H10729631   2.134   7.514   3.587  0.8828  1.2729  0.8238
  243MOL   H10829632   2.023   7.340   3.693 -1.9445 -1.5357  2.6328
  243MOL   H10929633   2.171   7.277   3.758  0.5047  0.5077  0.9698
  243MOL   C11029634   2.085   7.447   3.860  0.2989  0.2250 -0.0589
  243MOL   C11129635   1.976   7.370   3.947 -0.3247 -0.9144  0.1718
  243MOL   H11229636   2.181   7.469   3.907  0.1596 -0.1071  0.3949
  243MOL   H11329637   2.032   7.539   3.836 -0.0759 -0.3098 -1.3167
  243MOL   H11429638   1.894   7.338   3.884 -0.8040  0.0472  0.2990
  243MOL   H11529639   2.020   7.274   3.975  1.9738 -0.1675 -0.6901
  243MOL   C11629640   1.931   7.442   4.077 -0.4276  0.0081  0.4281
  243MOL   C11729641   1.846   7.361   4.173 -0.2284  0.2740  0.2800
  243MOL   H11829642   2.012   7.485   4.137  0.1068 -0.4735  0.0571
  243MOL   H11929643   1.872   7.532   4.056 -0.0866 -0.1903 -1.4469
  243MOL   H12029644   1.817   7.420   4.259 -2.0550 -0.7229  0.3812
  243MOL   H12129645   1.752   7.334   4.124 -1.0187  0.0316  1.9163
  243MOL   H12229646   1.889   7.271   4.217  0.9994  0.7560  0.0817
  244MOL     C129647   1.327   5.755   1.244 -0.0847 -0.6417  0.3949
  244MOL     C229648   1.259   5.722   1.111  0.0898 -0.0753  0.6450
  244MOL     H329649   1.386   5.666   1.267 -0.7129 -1.5947 -1.5971
  244MOL     H429650   1.245   5.764   1.316 -0.6977 -1.6261 -0.1701
  244MOL     H529651   1.208   5.805   1.063  0.0086 -0.4535  0.0708
  244MOL     H629652   1.336   5.701   1.037  0.9894  0.4047  1.4225
  244MOL     H729653   1.388   5.845   1.249  0.3951 -1.0604  3.1607
  244MOL     C829654   1.176   5.593   1.124 -0.1233  0.2215 -0.3369
  244MOL     C929655   1.106   5.565   0.989 -1.2676 -0.3950 -0.0106
  244MOL    H1029656   1.242   5.507   1.135  0.3393  0.6445  0.2632
  244MOL    H1129657   1.114   5.593   1.214  0.3506  1.2665 -0.0076
  244MOL    H1229658   1.065   5.658   0.950  0.1346  1.7289  3.3281
  244MOL    H1329659   1.180   5.533   0.915  0.1100 -2.8865  2.3553
  244MOL    C1429660   0.993   5.462   1.010  0.7595 -0.1212  0.3983
  244MOL    C1529661   0.933   5.428   0.872 -0.0243  0.5068 -0.3522
  244MOL    H1629662   1.030   5.374   1.062  1.4937 -0.7878 -1.2158
  244MOL    H1729663   0.911   5.482   1.078  1.9421 -2.5048  2.5866
  244MOL    H1829664   0.868   5.506   0.834 -0.6169  0.2185  0.0800
  244MOL    H1929665   1.008   5.414   0.793 -0.4818 -1.0224 -0.5381
  244MOL    C2029666   0.858   5.300   0.882  0.3127 -0.0750 -0.0892
  244MOL    C2129667   0.811   5.268   0.735 -0.5135  0.1945 -0.1454
  244MOL    H2229668   0.923   5.224   0.926  1.1466  0.6392 -0.0678
  244MOL    H2329669   0.773   5.299   0.950 -0.3727 -5.5685 -0.7913
  244MOL    H2429670   0.738   5.342   0.703 -1.5780 -1.0348 -0.5893
  244MOL    H2529671   0.899   5.266   0.670  0.9512  1.2155  1.7444
  244MOL    C2629672   0.743   5.127   0.724 -0.1540  0.0155 -0.3478
  244MOL    C2729673   0.683   5.119   0.585 -0.3021  0.2080 -0.2787
  244MOL    H2829674   0.815   5.047   0.745 -0.0392  0.6817  2.0075
  244MOL    H2929675   0.666   5.115   0.800 -0.6029  1.7684 -0.5280
  244MOL    H3029676   0.630   5.209   0.555  0.2775  0.1036 -1.6547
  244MOL    H3129677   0.762   5.116   0.510  1.0389 -0.7759  1.1306
  244MOL    C3229678   0.601   4.995   0.570  0.2374 -0.6084 -0.0829
  244MOL    C3329679   0.535   4.989   0.429 -0.4344  0.1172 -0.4027
  244MOL    H3429680   0.665   4.907   0.579 -0.0006 -0.7920 -0.1953
  244MOL    H3529681   0.522   4.986   0.644 -0.6590 -0.1766 -0.9646
  244MOL    H3629682   0.509   5.088   0.392 -0.0800  0.1709 -0.5128
  244MOL    H3729683   0.618   4.968   0.361  1.3912  0.3612  1.7006
  244MOL    C3829684   0.425   4.882   0.424  0.1038  0.3768  0.6873
  244MOL    C3929685   0.368   4.862   0.284  0.3013 -0.2097  0.0702
  244MOL    H4029686   0.461   4.788   0.465 -0.0520  1.0417  2.4170
  244MOL    H4129687   0.349   4.912   0.497  0.9771  0.6706  1.4936
  244MOL    H4229688   0.325   4.957   0.254  0.8429  0.9796  2.8641
  244MOL    H4329689   0.454   4.825   0.229  0.8276 -0.1204  0.8244
  244MOL    C4429690   0.251   4.769   0.286  0.1977  0.1614 -0.5235
  244MOL    C4529691   0.200   4.755   0.144 -0.3297  0.0849 -0.1576
  244MOL    H4629692   0.281   4.670   0.320  2.6392  0.5419 -1.4476
  244MOL    H4729693   0.170   4.806   0.349  0.2315  0.9529 -0.9466
  244MOL    H4829694   0.116   4.686   0.155 -0.8072  0.7011  0.0639
  244MOL    H4929695   0.165   4.847   0.097  0.4471 -0.2206 -1.3491
  244MOL    C5029696   0.301   4.674   0.058 -0.5983  0.3387  0.3843
  244MOL    C5129697   0.243   4.606   7.621  0.2007 -0.0244 -0.3392
  244MOL    H5229698   0.377   4.749   0.037 -0.7279  0.6697  1.0688
  244MOL    H5329699   0.355   4.597   0.114 -2.0957 -0.8976  0.1558
  244MOL    H5429700   0.157   4.550   7.660  0.8190 -0.7653 -0.0245
  244MOL    H5529701   0.207   4.689   7.559  1.4770  1.1294  0.4601
  244MOL    C5629702   0.343   4.517   7.549  0.3430 -0.3641 -0.3325
  244MOL    C5729703   0.293   4.377   7.495  0.1198  0.5578 -0.1975
  244MOL    H5829704   0.396   4.572   7.471  1.1205 -0.6022  0.0210
  244MOL    H5929705   0.423   4.484   7.615 -0.2198 -1.8129 -0.3510
  244MOL    H6029706   0.381   4.314   7.478 -2.9000 -3.5248 -1.6240
  244MOL    H6129707   0.235   4.330   7.575  0.0143  0.7059 -0.1861
  244MOL    C6229708   0.206   4.389   7.370  0.1745 -0.6068  0.2152
  244MOL    C6329709   0.147   4.260   7.327  0.3580  0.2038 -0.1074
  244MOL    H6429710   0.135   4.470   7.383  1.0469  0.3168 -0.6512
  244MOL    H6529711   0.264   4.432   7.288  2.1844  0.6189  2.2315
  244MOL    H6629712   0.223   4.182   7.322  0.8936  0.6592  0.7960
  244MOL    H6729713   0.085   4.238   7.415 -1.2277  3.7313 -0.2634
  244MOL    C6829714   0.068   4.269   7.199 -1.0642  0.1607  0.0741
  244MOL    C6929715   0.002   4.132   7.172 -0.1151 -0.4452 -0.3725
  244MOL    H7029716   7.683   4.345   7.212  0.7411  1.9937  0.5014
  244MOL    H7129717   0.129   4.309   7.118  0.5047 -1.6917  0.3005
  244MOL    H7229718   0.067   4.049   7.145  1.7011  1.6083 -2.5091
  244MOL    H7329719   7.645   4.096   7.263  0.7680 -0.0263  0.2753
  244MOL    C7429720   7.589   4.135   7.055  0.3938 -0.6177  1.2617
  244MOL    C7529721   7.540   3.995   7.022 -0.0065 -0.3707 -0.0012
  244MOL    H7629722   7.515   4.208   7.088  0.3002 -0.2380  0.2315
  244MOL    H7729723   7.634   4.176   6.965 -0.6601  1.0953  1.4781
  244MOL    H7829724   7.600   3.952   6.943 -1.4914 -0.6615 -0.9996
  244MOL    H7929725   7.542   3.925   7.106  4.0074 -2.3425 -1.6381
  244MOL    C8029726   7.405   4.012   6.962 -0.2445 -0.4611 -0.3488
  244MOL    C8129727   7.401   4.079   6.819 -0.1299 -0.3104  0.0969
  244MOL    H8229728   7.353   3.918   6.949 -0.8007 -0.3610  1.0871
  244MOL    H8329729   7.343   4.066   7.033 -0.8494 -0.5125 -0.8367
  244MOL    H8429730   7.432   4.183   6.816  3.4751 -1.3256 -1.1616
  244MOL    H8529731   7.479   4.033   6.758 -0.9609  1.2877 -2.2493
  244MOL    C8629732   7.271   4.051   6.736 -0.1858 -0.1754 -0.0176
  244MOL    C8729733   7.262   4.138   6.614 -0.1684 -0.7664 -0.1266
  244MOL    H8829734   7.269   3.946   6.707 -1.7628 -0.3661  0.6966
  244MOL    H8929735   7.188   4.077   6.802  0.2978 -0.0751  0.5621
  244MOL    H9029736   7.288   4.240   6.641  1.5449 -1.8636  2.6174
  244MOL    H9129737   7.343   4.113   6.546 -0.5301 -1.9435 -0.1324
  244MOL    C9229738   7.127   4.147   6.543  0.1712  0.2367 -0.0231
  244MOL    C9329739   7.147   4.217   6.403 -0.5322 -0.5979  0.6728
  244MOL    H9429740   7.097   4.044   6.530  0.4974  0.1950 -0.4823
  244MOL    H9529741   7.054   4.194   6.609 -2.7774 -0.6166 -2.5958
  244MOL    H9629742   7.193   4.316   6.411 -0.8751 -0.4658  1.0399
  244MOL    H9729743   7.208   4.146   6.347 -2.0312 -0.1357 -1.5910
  244MOL    C9829744   7.019   4.235   6.307  0.3649 -0.8309 -0.7317
  244MOL    C9929745   6.924   4.324   6.376 -0.9029  0.4002 -0.0202
  244MOL   H10029746   7.041   4.261   6.204  0.6267 -0.1278 -0.5002
  244MOL   H10129747   6.971   4.137   6.301  1.5951 -1.5516  0.7178
  244MOL   H10229748   6.891   4.288   6.473  0.8735  0.9897  0.8132
  244MOL   H10329749   6.964   4.424   6.386  0.1458  0.1696 -1.6290
  244MOL   C10429750   6.793   4.339   6.303 -0.5956 -0.6590  0.1348
  244MOL   C10529751   6.694   4.443   6.350  0.3195 -0.1709 -0.1507
  244MOL   H10629752   6.812   4.354   6.196 -3.2950  0.3753 -0.2447
  244MOL   H10729753   6.745   4.242   6.311  0.4282 -1.1908 -0.1090
  244MOL   H10829754   6.695   4.448   6.459  0.3878 -1.2648 -0.0969
  244MOL   H10929755   6.721   4.540   6.309  0.9933 -0.5687 -0.6548
  244MOL   C11029756   6.548   4.418   6.306  0.0185 -0.3433 -0.6657
  244MOL   C11129757   6.453   4.532   6.348  0.1633 -0.4194 -0.3527
  244MOL   H11229758   6.551   4.409   6.198 -0.0355  2.2631 -0.9181
  244MOL   H11329759   6.523   4.322   6.353  1.9757 -1.4991 -1.9138
  244MOL   H11429760   6.424   4.547   6.452  2.1771  2.0084 -0.0893
  244MOL   H11529761   6.499   4.626   6.317 -0.4363  0.6293  1.7942
  244MOL   C11629762   6.322   4.517   6.272  0.1800  0.1896 -0.9686
  244MOL   C11729763   6.219   4.626   6.282  0.2498  0.1094  0.6124
  244MOL   H11829764   6.335   4.502   6.165 -1.4270  0.2535 -1.1834
  244MOL   H11929765   6.272   4.427   6.307  0.7165 -0.3829 -1.6601
  244MOL   H12029766   6.214   4.696   6.198 -1.4546  0.2047  0.7721
  244MOL   H12129767   6.120   4.582   6.270  1.3955 -1.7770 -2.6404
  244MOL   H12229768   6.207   4.684   6.374  0.9123  3.2204 -1.1824
  245MOL     C129769   1.688   3.650   7.437  0.0146  0.0272  0.3416
  245MOL     C229770   1.704   3.500   7.429  0.0552  0.6032 -0.1215
  245MOL     H329771   1.616   3.703   7.375 -0.5261 -0.5380  0.4902
  245MOL     H429772   1.779   3.708   7.422  1.4257 -2.0394  0.6927
  245MOL     H529773   1.635   3.432   7.478  2.8295 -1.3696  1.2172
  245MOL     H629774   1.697   3.472   7.324  0.0622  2.0648 -0.5174
  245MOL     H729775   1.648   3.673   7.536 -1.1645  1.8091 -0.5232
  245MOL     C829776   1.843   3.455   7.477  0.3390 -0.4141  1.1034
  245MOL     C929777   1.876   3.306   7.470  0.4725  0.3318  0.8455
  245MOL    H1029778   1.914   3.504   7.410 -2.1633 -0.1600 -1.4280
  245MOL    H1129779   1.862   3.503   7.573 -0.5834  0.4382  0.8569
  245MOL    H1229780   1.812   3.257   7.543 -0.4460 -0.5935 -0.5528
  245MOL    H1329781   1.847   3.264   7.374  1.3779  1.2354  0.1654
  245MOL    C1429782   2.023   3.276   7.497 -0.1343  0.2902 -0.3553
  245MOL    C1529783   2.075   3.318   7.640 -0.0489 -0.3121  0.3940
  245MOL    H1629784   2.046   3.175   7.461 -1.7926  0.2513 -1.3892
  245MOL    H1729785   2.077   3.349   7.437 -1.7885  2.6486  0.9204
  245MOL    H1829786   2.061   3.425   7.656 -0.4318 -0.3084  0.0426
  245MOL    H1929787   2.004   3.272   0.017 -1.4860  3.0539  1.2545
  245MOL    C2029788   2.225   3.287   7.655  0.3783  0.6028 -0.1249
  245MOL    C2129789   2.286   3.357   0.082 -0.0888  0.4785 -0.0795
  245MOL    H2229790   2.242   3.180   7.658 -2.6509  0.0734  0.3752
  245MOL    H2329791   2.276   3.319   7.564  1.8436 -1.5391 -0.0734
  245MOL    H2429792   2.262   3.463   0.084 -2.1121  0.0620 -0.6482
  245MOL    H2529793   2.236   3.316   0.170  0.5159 -2.0964 -0.8978
  245MOL    C2629794   2.433   3.339   0.100  0.3051 -0.1560  0.2802
  245MOL    C2729795   2.474   3.360   0.247  0.9295 -0.8451 -0.5663
  245MOL    H2829796   2.471   3.239   0.079 -0.1757 -0.7951  2.3515
  245MOL    H2929797   2.498   3.400   0.038 -0.2045  1.2484  1.1215
  245MOL    H3029798   2.433   3.450   0.293  1.8622 -0.6377 -0.1358
  245MOL    H3129799   2.432   3.281   0.311  0.6565 -0.3957 -0.1882
  245MOL    C3229800   2.622   3.365   0.259  0.3906 -0.1752 -0.5964
  245MOL    C3329801   2.666   3.390   0.402  0.0259  0.4501  0.5955
  245MOL    H3429802   2.671   3.268   0.248 -0.8517 -0.8249 -0.5572
  245MOL    H3529803   2.666   3.431   0.185 -1.4160  1.5187 -0.2142
  245MOL    H3629804   2.625   3.485   0.438 -2.4390 -0.8201  1.2599
  245MOL    H3729805   2.634   3.312   0.471 -1.0226  0.9772  0.7186
  245MOL    C3829806   2.820   3.402   0.406  0.2216  0.6043 -0.3600
  245MOL    C3929807   2.868   3.414   0.554 -0.2107  0.1669  0.2257
  245MOL    H4029808   2.852   3.302   0.373  2.1596  0.6734  1.2407
  245MOL    H4129809   2.857   3.478   0.337 -0.3748  1.4074  0.2090
  245MOL    H4229810   2.832   3.507   0.597 -0.1918  1.2645 -2.0495
  245MOL    H4329811   2.839   3.330   0.617  1.4771  0.0839  0.9082
  245MOL    C4429812   3.022   3.415   0.549 -0.3103  0.6268 -0.4994
  245MOL    C4529813   3.088   3.476   0.673 -0.1686 -0.0334 -0.1754
  245MOL    H4629814   3.051   3.311   0.535  0.8437  0.6929  1.1943
  245MOL    H4729815   3.050   3.477   0.464 -0.1660  1.9785  0.5065
  245MOL    H4829816   3.042   3.571   0.700 -1.4888 -0.0066 -2.3325
  245MOL    H4929817   3.081   3.418   0.765  0.9390  1.7185  1.0413
  245MOL    C5029818   3.239   3.495   0.658 -0.2705  0.2795  0.0384
  245MOL    C5129819   3.307   3.588   0.758  0.1967 -0.5997 -0.2097
  245MOL    H5229820   3.274   3.394   0.677 -2.1527 -0.1644  1.2031
  245MOL    H5329821   3.275   3.507   0.555  0.9385  2.6144  0.6990
  245MOL    H5429822   3.281   3.692   0.738 -3.0395 -1.4609 -0.8243
  245MOL    H5529823   3.294   3.563   0.863 -1.9653  0.6796 -0.1599
  245MOL    C5629824   3.461   3.570   0.752  0.1577  0.0273  0.4612
  245MOL    C5729825   3.550   3.642   0.858  0.0634 -0.2992  0.6782
  245MOL    H5829826   3.488   3.466   0.770  0.5172 -0.0001 -0.2589
  245MOL    H5929827   3.497   3.587   0.651  0.8652  3.6143  1.2436
  245MOL    H6029828   3.517   3.619   0.959 -2.2046  2.8870  0.7448
  245MOL    H6129829   3.655   3.613   0.846  0.8062  1.9333  1.4022
  245MOL    C6229830   3.531   3.799   0.850  0.2901 -0.5815 -0.6158
  245MOL    C6329831   3.562   3.863   0.717 -0.0293  0.2536  0.5495
  245MOL    H6429832   3.438   3.833   0.897  0.7070  0.6785 -0.6719
  245MOL    H6529833   3.601   3.844   0.921  0.5657  0.3810 -1.4949
  245MOL    H6629834   3.483   3.853   0.643  1.6215  1.8904 -1.4829
  245MOL    H6729835   3.546   3.970   0.729  1.3905  0.4383  0.8481
  245MOL    C6829836   3.701   3.831   0.667 -0.6666  1.2598 -0.4453
  245MOL    C6929837   3.732   3.869   0.519  0.3575  0.1068  0.7298
  245MOL    H7029838   3.772   3.890   0.726  1.9327 -1.6452 -0.5523
  245MOL    H7129839   3.733   3.727   0.676  1.0049  1.6385 -1.7044
  245MOL    H7229840   3.658   3.820   0.456  0.6342  0.5811  0.0262
  245MOL    H7329841   3.712   3.974   0.497  1.6333  0.0677 -0.7262
  245MOL    C7429842   3.875   3.835   0.470 -0.2588 -0.1449  0.4472
  245MOL    C7529843   3.891   3.872   0.322  0.2530 -0.7889 -0.1177
  245MOL    H7629844   3.945   3.894   0.531  0.5749 -2.7049  2.0339
  245MOL    H7729845   3.904   3.734   0.497 -0.3767 -0.0558  0.9154
  245MOL    H7829846   3.835   3.963   0.300  1.8697  0.6308  1.5186
  245MOL    H7929847   3.994   3.902   0.308 -0.4548  1.7077 -0.2202
  245MOL    C8029848   3.845   3.766   0.220  0.0178 -0.1505 -0.4351
  245MOL    C8129849   3.825   3.844   0.087  0.2289  0.3586  0.0093
  245MOL    H8229850   3.915   3.683   0.212 -0.9341 -0.9191 -0.7860
  245MOL    H8329851   3.747   3.727   0.248  0.3087 -0.8739 -0.4206
  245MOL    H8429852   3.752   3.925   0.090  0.0707  0.2682 -1.3327
  245MOL    H8529853   3.919   3.882   0.045  0.9864 -2.1247 -0.6220
  245MOL    C8629854   3.772   3.742   7.673  0.0375 -0.3828  0.0430
  245MOL    C8729855   3.712   3.808   7.551 -0.0731  0.2633  0.7138
  245MOL    H8829856   3.849   3.670   7.648 -0.4852 -0.9777  0.1361
  245MOL    H8929857   3.697   3.681   0.033  1.8411 -1.0518  1.9060
  245MOL    H9029858   3.625   3.864   7.586  0.1877 -0.2918  2.2957
  245MOL    H9129859   3.787   3.879   7.516  0.1879 -1.0713 -1.4587
  245MOL    C9229860   3.672   3.717   7.438 -0.1420 -0.5867  0.2828
  245MOL    C9329861   3.633   3.800   7.312 -0.4286 -0.5006 -0.1291
  245MOL    H9429862   3.762   3.660   7.412  0.6375  0.9136 -0.3566
  245MOL    H9529863   3.590   3.652   7.468 -1.8916  2.6692  2.7943
  245MOL    H9629864   3.553   3.871   7.334 -0.3003 -0.0001 -1.2496
  245MOL    H9729865   3.718   3.861   7.280 -0.4697 -0.4363 -0.1168
  245MOL    C9829866   3.599   3.710   7.200 -0.2906  0.6594 -0.0871
  245MOL    C9929867   3.586   3.776   7.062 -0.2517 -0.0388 -0.7509
  245MOL   H10029868   3.668   3.626   7.197  0.7993  1.5291  0.3134
  245MOL   H10129869   3.507   3.654   7.217  0.8783 -0.4378  2.9511
  245MOL   H10229870   3.530   3.869   7.071  0.0592 -0.0927  2.2833
  245MOL   H10329871   3.684   3.801   7.022  0.5909  1.1865  1.9565
  245MOL   C10429872   3.519   3.680   6.955 -0.1740  0.3496 -0.4774
  245MOL   C10529873   3.491   3.758   6.827 -0.3142  0.0537  0.1930
  245MOL   H10629874   3.560   3.584   6.924 -0.5226  0.1746 -0.4051
  245MOL   H10729875   3.422   3.663   7.002 -0.0541  1.7176  0.2995
  245MOL   H10829876   3.430   3.843   6.857  1.1192  1.1788  0.0198
  245MOL   H10929877   3.583   3.803   6.789  0.1262 -2.1745 -1.5015
  245MOL   C11029878   3.431   3.670   6.709  0.0991  0.0468  0.7797
  245MOL   C11129879   3.504   3.549   6.677  0.1320  0.3932 -0.2993
  245MOL   H11229880   3.327   3.647   6.731 -0.1465 -3.2620 -3.0922
  245MOL   H11329881   3.446   3.740   6.627 -1.3394  0.3639  0.7765
  245MOL   H11429882   3.605   3.579   6.704 -0.5114  1.1619  1.3151
  245MOL   H11529883   3.466   3.461   6.730 -0.5128 -0.2136 -1.7341
  245MOL   C11629884   3.496   3.512   6.530  0.2585  0.9051 -0.8214
  245MOL   C11729885   3.561   3.374   6.490  0.6714 -0.6100  0.1228
  245MOL   H11829886   3.391   3.508   6.502  0.4134 -1.6333 -1.1009
  245MOL   H11929887   3.543   3.599   6.484 -0.6131  0.7350 -2.0617
  245MOL   H12029888   3.669   3.365   6.506  0.8543 -0.2466 -0.8596
  245MOL   H12129889   3.501   3.300   6.541 -0.8697  1.5415  1.5243
  245MOL   H12229890   3.545   3.358   6.384 -3.4609 -0.6072  0.6649
  246MOL     C129891   2.556   1.285   6.778 -0.0608  0.2518  0.3827
  246MOL     C229892   2.664   1.358   6.699  0.7684 -0.0961 -0.1124
  246MOL     H329893   2.565   1.279   6.886 -0.8764  1.1086  0.5071
  246MOL     H429894   2.544   1.182   6.743  0.9925 -0.0982  1.0316
  246MOL     H529895   2.749   1.293   6.677  2.1552  1.3198  0.9922
  246MOL     H629896   2.623   1.391   6.604 -3.3514  0.7952  1.8497
  246MOL     H729897   2.459   1.334   6.766 -0.1089 -0.5067 -2.8359
  246MOL     C829898   2.726   1.480   6.775 -0.6020  0.5043  0.0318
  246MOL     C929899   2.668   1.619   6.746  0.2810  0.2574 -0.5952
  246MOL    H1029900   2.731   1.456   6.881 -0.0064 -1.3039 -0.3882
  246MOL    H1129901   2.831   1.496   6.751 -0.2457 -2.1672 -0.2711
  246MOL    H1229902   2.667   1.647   6.641 -0.7337 -1.9029 -1.1899
  246MOL    H1329903   2.561   1.608   6.760 -0.0942  0.3804 -3.2000
  246MOL    C1429904   2.724   1.732   6.827 -0.2505  0.3036 -0.3664
  246MOL    C1529905   2.691   1.727   6.980  0.2359 -0.0727 -0.0313
  246MOL    H1629906   2.833   1.730   6.834 -0.2555  0.0150 -0.3440
  246MOL    H1729907   2.689   1.829   6.793 -0.1550  0.2049 -0.7614
  246MOL    H1829908   2.585   1.708   7.000  0.1666 -0.9412 -1.1975
  246MOL    H1929909   2.731   1.630   7.010 -0.4015 -0.2855  0.1460
  246MOL    C2029910   2.741   1.836   7.069  0.5829  0.7203  0.3942
  246MOL    C2129911   2.877   1.897   7.039 -0.1586 -1.1793 -0.1486
  246MOL    H2229912   2.665   1.913   7.081  0.8381  1.0256  0.0719
  246MOL    H2329913   2.741   1.787   7.167  1.1745  1.7588  0.9147
  246MOL    H2429914   2.887   1.929   6.936 -1.8212 -0.6107 -0.1392
  246MOL    H2529915   2.892   1.981   7.106  0.1447 -0.3195 -1.2836
  246MOL    C2629916   2.991   1.805   7.077  0.4710  0.1817 -0.1066
  246MOL    C2729917   3.127   1.872   7.055  0.5177  0.0915  0.2916
  246MOL    H2829918   2.984   1.793   7.185  0.1178  0.4224 -0.1026
  246MOL    H2929919   2.987   1.704   7.035 -0.1903  0.1699 -0.0316
  246MOL    H3029920   3.138   1.965   7.111  1.8123  1.8847 -2.8099
  246MOL    H3129921   3.206   1.815   7.105  0.4887  1.5553  2.0822
  246MOL    C3229922   3.175   1.885   6.909 -0.8307 -0.4846 -0.6465
  246MOL    C3329923   3.333   1.896   6.901 -0.2953  0.4727  0.2386
  246MOL    H3429924   3.148   1.806   6.838 -1.4921  0.6549 -1.6896
  246MOL    H3529925   3.121   1.972   6.873 -0.4858  0.0836  0.2141
  246MOL    H3629926   3.371   1.994   6.931 -0.8870  1.4051 -1.9372
  246MOL    H3729927   3.387   1.819   6.956 -0.0347 -2.3010 -3.7194
  246MOL    C3829928   3.384   1.884   6.756  0.7096 -0.0300 -0.1858
  246MOL    C3929929   3.315   1.980   6.656  0.1479 -0.1388  0.5825
  246MOL    H4029930   3.493   1.884   6.756  0.7210 -1.0407 -0.4572
  246MOL    H4129931   3.358   1.786   6.715  0.4786 -0.1338  0.2111
  246MOL    H4229932   3.207   1.965   6.651 -0.1783  2.1663 -0.2307
  246MOL    H4329933   3.323   2.083   6.692 -3.0891  0.3958 -0.0563
  246MOL    C4429934   3.393   1.964   6.516 -0.0412  0.7597 -0.5205
  246MOL    C4529935   3.355   2.080   6.418 -0.4311  0.1155 -0.2802
  246MOL    H4629936   3.499   1.937   6.522 -0.4013 -0.3802  1.3058
  246MOL    H4729937   3.348   1.871   6.480  0.1675  0.8856 -1.1026
  246MOL    H4829938   3.248   2.078   6.396 -0.2641 -2.1555 -0.9581
  246MOL    H4929939   3.365   2.176   6.470  1.6008  0.9779 -2.1678
  246MOL    C5029940   3.447   2.106   6.298  0.8654  0.1947  0.1732
  246MOL    C5129941   3.496   1.984   6.210 -0.2429  0.0351 -0.5562
  246MOL    H5229942   3.412   2.189   6.236 -2.4546 -0.1963  1.4110
  246MOL    H5329943   3.540   2.150   6.336  1.2350 -0.1585 -0.3240
  246MOL    H5429944   3.561   1.916   6.265 -1.0343 -1.3883 -1.3475
  246MOL    H5529945   3.407   1.926   6.181 -0.4889  0.0715  0.1040
  246MOL    C5629946   3.581   2.017   6.087 -0.3844  0.3554  0.2572
  246MOL    C5729947   3.627   1.899   6.003  0.1552  0.0929  0.2371
  246MOL    H5829948   3.516   2.076   6.022  0.7131 -1.1098 -2.2336
  246MOL    H5929949   3.664   2.082   6.115  0.6581 -1.9055  2.4689
  246MOL    H6029950   3.668   1.821   6.067  1.9797  0.6258 -0.2696
  246MOL    H6129951   3.532   1.857   5.969 -0.9277  0.6766  2.4852
  246MOL    C6229952   3.727   1.921   5.891 -0.6236 -0.2456  0.2248
  246MOL    C6329953   3.759   1.792   5.806 -0.1641  0.6714  0.5051
  246MOL    H6429954   3.681   1.994   5.825  0.6119 -0.6782 -1.1345
  246MOL    H6529955   3.808   1.958   5.952 -2.5540  0.6346  2.3223
  246MOL    H6629956   3.792   1.713   5.873  1.2788  1.3250  0.5980
  246MOL    H6729957   3.663   1.755   5.769  0.2642  0.0908 -0.0447
  246MOL    C6829958   3.856   1.820   5.688 -0.3152  0.0649  0.1754
  246MOL    C6929959   3.893   1.688   5.616  0.3349 -0.4455 -0.4115
  246MOL    H7029960   3.820   1.901   5.623  0.7024  1.4869  1.3486
  246MOL    H7129961   3.945   1.853   5.741 -1.7829  1.0385  2.1018
  246MOL    H7229962   3.896   1.611   5.693 -1.1258 -1.7493 -1.6205
  246MOL    H7329963   3.812   1.658   5.549  0.7826  0.0681 -1.1808
  246MOL    C7429964   4.021   1.714   5.537 -0.7862 -0.0552 -0.1399
  246MOL    C7529965   4.076   1.579   5.486  0.7339 -0.4771  0.2322
  246MOL    H7629966   4.004   1.789   5.459  1.2837  1.9222  1.2416
  246MOL    H7729967   4.102   1.759   5.595 -0.9743 -1.1974  1.0194
  246MOL    H7829968   4.067   1.502   5.563 -1.0457  0.2353  0.7526
  246MOL    H7929969   4.018   1.556   5.396  0.0981 -0.7285  0.7083
  246MOL    C8029970   4.225   1.583   5.445  1.1091  0.8658  0.2485
  246MOL    C8129971   4.259   1.442   5.386 -0.3535 -0.6715 -0.0864
  246MOL    H8229972   4.242   1.666   5.376 -2.4159  0.6187 -1.0747
  246MOL    H8329973   4.282   1.595   5.536  0.3387  2.2169  0.5664
  246MOL    H8429974   4.219   1.370   5.457  0.8610 -0.0151  1.2731
  246MOL    H8529975   4.214   1.419   5.289  1.2024  1.3200 -1.3229
  246MOL    C8629976   4.413   1.411   5.382 -0.1188 -0.2636 -0.2612
  246MOL    C8729977   4.444   1.280   5.316 -0.7163  0.6630 -0.8968
  246MOL    H8829978   4.461   1.491   5.325  2.1347 -0.4657  1.3106
  246MOL    H8929979   4.457   1.424   5.481 -0.1910  1.4347 -0.4280
  246MOL    H9029980   4.409   1.191   5.368 -2.6734  1.2612 -1.1528
  246MOL    H9129981   4.391   1.267   5.222 -1.9969 -1.0439  0.0407
  246MOL    C9229982   4.593   1.277   5.300 -0.2013  0.5620 -0.0876
  246MOL    C9329983   4.644   1.142   5.243  0.0363  1.0372  0.3403
  246MOL    H9429984   4.625   1.357   5.234 -1.1591  0.2631 -0.9213
  246MOL    H9529985   4.646   1.302   5.391  2.3546 -1.9396 -0.8019
  246MOL    H9629986   4.603   1.066   5.309  1.9302  0.9530  1.4726
  246MOL    H9729987   4.620   1.119   5.140 -0.1321  1.7658  0.2160
  246MOL    C9829988   4.796   1.127   5.250 -0.0574 -0.3362  0.3029
  246MOL    C9929989   4.839   0.991   5.215 -0.3093  0.4235  0.2512
  246MOL   H10029990   4.840   1.200   5.182 -0.9139 -2.0233 -2.1147
  246MOL   H10129991   4.827   1.156   5.351 -0.5682 -0.1180  0.4017
  246MOL   H10229992   4.794   0.917   5.280  0.1913 -1.9150 -1.9998
  246MOL   H10329993   4.792   0.979   5.117  1.1712 -3.1940 -0.0913
  246MOL   C10429994   4.991   0.972   5.226  0.4562 -0.3687 -0.0758
  246MOL   C10529995   5.029   0.834   5.159 -0.2381  0.6012 -0.3889
  246MOL   H10629996   5.038   1.050   5.167  1.3141  0.0379  1.1286
  246MOL   H10729997   5.023   0.973   5.330 -1.3483 -0.9641  0.5070
  246MOL   H10829998   4.967   0.755   5.203  0.8015 -0.2676 -0.4604
  246MOL   H10929999   5.009   0.839   5.052 -0.0314  1.1631 -0.4010
  246MOL   C11030000   5.181   0.791   5.178  0.2349  0.0512 -1.3210
  246MOL   C11130001   5.234   0.685   5.079 -0.0562 -0.3336  0.1307
  246MOL   H11230002   5.253   0.872   5.165  0.2304 -0.0045 -1.6961
  246MOL   H11330003   5.191   0.756   5.280 -0.4076 -0.8214 -1.5523
  246MOL   H11430004   5.222   0.717   4.975  0.3587 -0.7543 -0.0522
  246MOL   H11530005   5.340   0.665   5.099  0.0218  1.2743  1.4592
  246MOL   C11630006   5.167   0.550   5.109 -0.2575 -0.4675  0.2333
  246MOL   C11730007   5.223   0.486   5.236  0.0556 -0.8151  0.6737
  246MOL   H11830008   5.059   0.558   5.101 -0.2487  0.1030  0.6054
  246MOL   H11930009   5.192   0.493   5.020  0.2493  1.3771 -0.8422
  246MOL   H12030010   5.331   0.483   5.251  0.3368  2.3169 -0.3340
  246MOL   H12130011   5.178   0.537   5.321  0.8017 -0.0757  0.6394
  246MOL   H12230012   5.185   0.384   5.240 -1.8407 -0.0973  1.5371
  247MOL     C130013   2.887   4.408   0.915  0.7650 -0.6271  0.2954
  247MOL     C230014   3.010   4.436   0.825  0.7217 -0.2295 -0.5940
  247MOL     H330015   2.916   4.355   1.005  0.1105 -0.9010  0.3483
  247MOL     H430016   2.816   4.347   0.858 -0.1605  1.0222 -0.3788
  247MOL     H530017   3.038   4.340   0.781  0.4468 -0.5536 -0.0664
  247MOL     H630018   2.981   4.507   0.748 -2.6104  2.0931  2.5998
  247MOL     H730019   2.829   4.495   0.946  1.2615 -0.9724  2.2413
  247MOL     C830020   3.125   4.486   0.910 -0.8794 -0.8684 -0.4746
  247MOL     C930021   3.207   4.574   0.810 -0.1828 -0.3203 -0.0962
  247MOL    H1030022   3.077   4.551   0.984  0.4007  0.1299 -0.5144
  247MOL    H1130023   3.198   4.416   0.950 -0.5483 -1.5381 -2.2002
  247MOL    H1230024   3.211   4.529   0.710 -1.7323 -0.9284  0.0944
  247MOL    H1330025   3.154   4.668   0.795 -1.1834 -0.9049 -0.2849
  247MOL    C1430026   3.344   4.618   0.865  0.2333 -0.0767  0.1248
  247MOL    C1530027   3.428   4.686   0.759 -0.4000  0.0002 -0.3289
  247MOL    H1630028   3.334   4.680   0.954 -3.6720 -0.0527 -0.2353
  247MOL    H1730029   3.396   4.531   0.905 -1.3167 -0.7228  0.7854
  247MOL    H1830030   3.462   4.626   0.675 -1.0976 -0.3752 -0.3433
  247MOL    H1930031   3.375   4.756   0.694 -0.2372  0.0027 -0.4604
  247MOL    C2030032   3.545   4.757   0.823  0.0465 -0.5728  0.2775
  247MOL    C2130033   3.662   4.661   0.836  1.1659  0.3128  0.4221
  247MOL    H2230034   3.573   4.832   0.749  0.1992 -0.1990  0.7096
  247MOL    H2330035   3.508   4.813   0.909  2.5204  1.7060 -0.0849
  247MOL    H2430036   3.641   4.577   0.903 -3.4506  0.3579 -0.8041
  247MOL    H2530037   3.672   4.602   0.745 -2.0486  1.2411 -0.5971
  247MOL    C2630038   3.786   4.732   0.870 -0.9505 -0.3228 -0.8801
  247MOL    C2730039   3.905   4.651   0.847 -0.4919 -0.0868 -0.9705
  247MOL    H2830040   3.798   4.817   0.803 -0.6426 -2.3832 -3.5046
  247MOL    H2930041   3.771   4.762   0.974  2.0741 -0.1864 -0.4236
  247MOL    H3030042   3.896   4.558   0.903 -3.1488  0.2274 -0.8081
  247MOL    H3130043   3.892   4.622   0.743  0.1721 -1.2930 -0.7334
  247MOL    C3230044   4.038   4.721   0.873  0.3586  0.0628  0.0828
  247MOL    C3330045   4.158   4.649   0.814  0.2388 -0.0409  0.5644
  247MOL    H3430046   4.038   4.813   0.815  1.2464 -0.8924 -1.4520
  247MOL    H3530047   4.054   4.739   0.979 -2.1420  2.5914  0.0839
  247MOL    H3630048   4.155   4.543   0.837 -2.0355 -0.3425 -0.9965
  247MOL    H3730049   4.156   4.646   0.705  0.3182 -1.6329  0.5976
  247MOL    C3830050   4.288   4.708   0.854  0.5441 -0.1348 -0.1422
  247MOL    C3930051   4.404   4.657   0.775 -0.4669 -0.7014 -0.1159
  247MOL    H4030052   4.284   4.816   0.845  0.6877 -0.2373 -1.5576
  247MOL    H4130053   4.299   4.690   0.961 -0.0303  1.2407  0.1532
  247MOL    H4230054   4.387   4.556   0.735 -0.3490 -0.5684 -0.5006
  247MOL    H4330055   4.437   4.724   0.696 -2.3384 -1.1159 -1.3060
  247MOL    C4430056   4.529   4.647   0.864 -0.1108  1.1619  0.5516
  247MOL    C4530057   4.662   4.617   0.800 -0.3127 -0.2700 -0.3861
  247MOL    H4630058   4.531   4.744   0.914  0.3100  1.0855  0.6885
  247MOL    H4730059   4.511   4.579   0.947  0.3552  2.2141  1.5261
  247MOL    H4830060   4.686   4.511   0.806  0.3295 -0.1118  0.0219
  247MOL    H4930061   4.666   4.633   0.693  1.9003  1.1461 -0.1441
  247MOL    C5030062   4.788   4.691   0.854 -0.1957 -0.3139  0.0928
  247MOL    C5130063   4.911   4.648   0.769  0.4570  0.7379  0.4088
  247MOL    H5230064   4.782   4.800   0.847 -1.6706 -0.3903 -0.0303
  247MOL    H5330065   4.803   4.665   0.959  1.6511  0.0551 -0.0505
  247MOL    H5430066   5.000   4.672   0.827 -0.9712  0.0923  2.9605
  247MOL    H5530067   4.897   4.540   0.755 -0.7540  1.1164 -1.4603
  247MOL    C5630068   4.919   4.708   0.632  0.8072  0.4112  0.2177
  247MOL    C5730069   5.038   4.651   0.558  0.8598 -0.0609  0.1589
  247MOL    H5830070   4.829   4.686   0.574  1.6174 -0.3975 -0.7499
  247MOL    H5930071   4.933   4.816   0.627  1.9234  0.3300  1.3040
  247MOL    H6030072   5.135   4.681   0.596  1.4421  1.1078 -2.2109
  247MOL    H6130073   5.035   4.543   0.565  0.1473 -0.0725 -0.2467
  247MOL    C6230074   5.034   4.687   0.410 -0.1580 -0.5482 -0.6409
  247MOL    C6330075   5.147   4.612   0.330  0.3003  0.4427  0.7859
  247MOL    H6430076   4.937   4.646   0.384 -1.4026  1.1202  1.1702
  247MOL    H6530077   5.038   4.795   0.395  0.1433 -0.5031 -0.2570
  247MOL    H6630078   5.239   4.670   0.338  0.4826  0.6015 -1.9565
  247MOL    H6730079   5.165   4.517   0.381 -0.3360  0.6655  1.4310
  247MOL    C6830080   5.107   4.600   0.181 -0.1593  0.2459  0.2070
  247MOL    C6930081   5.214   4.519   0.100  0.2688 -0.1091 -0.2123
  247MOL    H7030082   5.017   4.539   0.177  0.2292 -0.3439  0.5124
  247MOL    H7130083   5.078   4.696   0.137  1.9669  1.4922  1.4718
  247MOL    H7230084   5.303   4.580   0.086  1.0811 -1.0368  0.7784
  247MOL    H7330085   5.239   4.429   0.156 -1.3039 -1.1211 -1.0884
  247MOL    C7430086   5.188   4.484   7.645 -0.4274 -0.2595  0.6919
  247MOL    C7530087   5.080   4.375   7.626 -1.0258 -0.0136  0.1519
  247MOL    H7630088   5.167   4.576   7.590 -0.0795  0.1517  1.2384
  247MOL    H7730089   5.289   4.453   7.617 -0.5371  0.2109 -0.2559
  247MOL    H7830090   5.125   4.288   7.673  2.2525  1.3888 -0.2940
  247MOL    H7930091   4.990   4.399   7.682 -0.6841  0.9767  0.2820
  247MOL    C8030092   5.071   4.342   7.474 -0.6766  0.1363  0.1673
  247MOL    C8130093   4.981   4.217   7.451 -0.3646  0.3516  0.2547
  247MOL    H8230094   5.024   4.420   7.415  1.2413  0.6182 -0.7737
  247MOL    H8330095   5.166   4.338   7.420 -1.6911 -1.0807 -1.5607
  247MOL    H8430096   5.027   4.126   7.490  2.1564  0.9105 -1.3010
  247MOL    H8530097   4.893   4.242   7.511  0.0711  3.0308 -0.1922
  247MOL    C8630098   4.949   4.184   7.304 -1.2241 -0.4834 -0.3433
  247MOL    C8730099   4.862   4.057   7.290  0.0505 -0.4246  0.1607
  247MOL    H8830100   4.903   4.268   7.252  2.3936  0.1600 -2.6919
  247MOL    H8930101   5.046   4.169   7.258  0.4457  4.3123  1.3487
  247MOL    H9030102   4.772   4.067   7.349  0.4284  0.3286  0.6173
  247MOL    H9130103   4.833   4.055   7.185  1.6875 -0.9519 -0.3010
  247MOL    C9230104   4.923   3.924   7.322  0.4070 -0.1492 -0.5311
  247MOL    C9330105   4.820   3.807   7.333 -0.0408 -0.1185  0.0261
  247MOL    H9430106   4.993   3.894   7.244 -0.0878 -1.8008 -0.3621
  247MOL    H9530107   4.971   3.925   7.419  0.1243 -1.0621 -0.3739
  247MOL    H9630108   4.730   3.835   7.388 -2.8247 -0.3001 -4.2380
  247MOL    H9730109   4.784   3.778   7.235 -0.6013  3.5353 -0.9356
  247MOL    C9830110   4.880   3.681   7.396  0.5250  0.2217  0.0087
  247MOL    C9930111   4.778   3.567   7.419  0.0489  0.0394 -0.3716
  247MOL   H10030112   4.954   3.638   7.328  0.5083  1.1459 -0.6021
  247MOL   H10130113   4.917   3.712   7.494  0.7942 -0.7666  0.2255
  247MOL   H10230114   4.743   3.522   7.326  2.3018 -0.6630 -0.9026
  247MOL   H10330115   4.817   3.478   7.469 -0.5834 -0.5211 -0.8571
  247MOL   C10430116   4.657   3.616   7.501 -0.4301 -0.5783  0.1074
  247MOL   C10530117   4.568   3.518   7.564 -0.1924  0.4366 -0.7328
  247MOL   H10630118   4.696   3.669   7.588  0.4772  1.4736 -1.5189
  247MOL   H10730119   4.592   3.690   7.455 -1.1666 -0.0236  1.9863
  247MOL   H10830120   4.633   3.451   7.620  0.4999  0.5676 -1.3642
  247MOL   H10930121   4.498   3.557   7.637 -0.4701 -2.0319  0.3716
  247MOL   C11030122   4.483   3.430   7.466 -0.2722 -0.2097 -0.0731
  247MOL   C11130123   4.382   3.337   7.532  0.2444  1.2948 -0.2465
  247MOL   H11230124   4.439   3.498   7.393  0.2377 -0.0553 -0.2399
  247MOL   H11330125   4.555   3.373   7.407  0.2428  0.7925 -0.4165
  247MOL   H11430126   4.390   3.349   7.640 -1.9304 -0.1214  0.1015
  247MOL   H11530127   4.282   3.374   7.509 -1.3751 -2.1352  1.0771
  247MOL   C11630128   4.395   3.183   7.498 -0.2035 -0.1095  0.0742
  247MOL   C11730129   4.313   3.092   7.575  0.1589  0.4920  0.0479
  247MOL   H11830130   4.381   3.154   7.394  1.4426 -2.7822  0.5477
  247MOL   H11930131   4.498   3.158   7.523  0.0433  0.4451 -0.3874
  247MOL   H12030132   4.346   2.992   7.547 -0.8381 -0.0041  0.6056
  247MOL   H12130133   4.322   3.102   7.683 -1.0889 -0.6900  0.2819
  247MOL   H12230134   4.208   3.098   7.547 -0.7006 -1.0098  2.7245
  248MOL     C130135   4.674   0.019   1.249  0.5821 -0.4793 -1.1604
  248MOL     C230136   4.785   7.617   1.209  0.5100  0.2150 -0.2716
  248MOL     H330137   4.666   0.007   1.357 -0.6004  0.9873 -1.0606
  248MOL     H430138   4.583   7.682   1.197  1.2790 -0.3318 -2.4688
  248MOL     H530139   4.807   7.641   1.105 -0.2452  0.8552 -0.2972
  248MOL     H630140   4.880   7.638   1.258  1.1345  0.2481 -1.4963
  248MOL     H730141   4.701   0.121   1.223  2.1873 -0.0765  1.8746
  248MOL     C830142   4.752   7.462   1.221 -0.4084  0.3283 -0.1692
  248MOL     C930143   4.876   7.367   1.204 -0.3525  0.1626 -0.1487
  248MOL    H1030144   4.690   7.438   1.307 -0.2792 -2.9111 -0.8931
  248MOL    H1130145   4.694   7.440   1.131 -1.2523  1.1770  0.1706
  248MOL    H1230146   4.823   7.273   1.187 -0.2021 -0.0916  0.7484
  248MOL    H1330147   4.936   7.391   1.116 -1.5755 -0.9848 -1.3220
  248MOL    C1430148   4.964   7.356   1.331 -0.5006 -0.4055  0.2829
  248MOL    C1530149   4.880   7.316   1.454 -0.1403  0.2773 -0.6331
  248MOL    H1630150   5.028   7.272   1.303 -0.0904 -0.2745  0.8353
  248MOL    H1730151   5.034   7.439   1.336 -1.0079  0.2505 -2.7355
  248MOL    H1830152   4.818   7.399   1.489  0.4166  0.1309  0.7280
  248MOL    H1930153   4.819   7.231   1.421 -0.3278 -0.8215  2.4124
  248MOL    C2030154   4.978   7.276   1.571  0.2195 -0.3945  0.3150
  248MOL    C2130155   4.897   7.241   1.698 -0.4878 -0.3402 -0.6536
  248MOL    H2230156   5.037   7.190   1.539 -1.6583 -1.3357 -0.7238
  248MOL    H2330157   5.048   7.356   1.593 -0.4230  0.3398 -0.2787
  248MOL    H2430158   4.864   7.335   1.742  1.0059 -0.3718  0.5228
  248MOL    H2530159   4.805   7.183   1.681 -0.2800 -1.3725  1.6314
  248MOL    C2630160   4.988   7.186   1.809 -0.1555 -0.0635  0.3014
  248MOL    C2730161   4.905   7.158   1.932 -0.3198  0.2092  0.1018
  248MOL    H2830162   5.045   7.100   1.774 -0.1583  0.1586 -0.2513
  248MOL    H2930163   5.055   7.270   1.826 -0.5159  0.2556  0.1614
  248MOL    H3030164   4.833   7.237   1.949 -1.0805 -0.5063  0.2264
  248MOL    H3130165   4.847   7.069   1.909  1.1176 -0.0788 -2.6042
  248MOL    C3230166   4.990   7.130   2.054  0.4580  0.0800  0.3636
  248MOL    C3330167   4.916   7.066   2.179 -0.5593 -0.1949  0.6903
  248MOL    H3430168   5.078   7.073   2.023 -0.4316 -0.5355 -1.0664
  248MOL    H3530169   5.029   7.223   2.097 -1.4785  0.4111  1.4247
  248MOL    H3630170   4.829   7.125   2.208  0.4145  2.0494 -0.8676
  248MOL    H3730171   4.885   6.962   2.163  0.2137  0.0592 -2.6952
  248MOL    C3830172   5.009   7.053   2.301 -0.0215 -0.7094  1.0366
  248MOL    C3930173   5.142   6.990   2.264 -0.2249 -0.4251 -0.5586
  248MOL    H4030174   5.024   7.152   2.345  2.1108 -0.2535 -0.6731
  248MOL    H4130175   4.941   6.998   2.367 -0.9638 -0.4273  0.3148
  248MOL    H4230176   5.134   6.897   2.208 -0.5571 -1.8352  1.7434
  248MOL    H4330177   5.203   7.063   2.213 -1.6010  0.5964 -0.7637
  248MOL    C4430178   5.229   6.962   2.392  0.2052 -0.6825  0.3097
  248MOL    C4530179   5.379   6.920   2.362  0.5713  0.7427  0.4125
  248MOL    H4630180   5.233   7.053   2.452 -0.6761  1.2516 -2.4682
  248MOL    H4730181   5.193   6.887   2.463 -0.7438  1.2524  1.9226
  248MOL    H4830182   5.399   6.981   2.274  0.4234 -0.1830 -0.2745
  248MOL    H4930183   5.427   6.944   2.457 -1.4919  1.0687  1.4186
  248MOL    C5030184   5.396   6.763   2.336  0.6294 -1.2059 -0.1172
  248MOL    C5130185   5.549   6.753   2.292 -0.0264 -0.0662 -0.7138
  248MOL    H5230186   5.380   6.696   2.421 -0.1770 -1.5699 -0.5588
  248MOL    H5330187   5.331   6.726   2.257 -0.7940 -0.0242  0.4934
  248MOL    H5430188   5.551   6.781   2.187 -1.8754  0.9119 -0.5122
  248MOL    H5530189   5.605   6.829   2.347 -0.9527  0.6285 -0.7034
  248MOL    C5630190   5.607   6.615   2.310 -0.1069  0.3700  0.9436
  248MOL    C5730191   5.764   6.617   2.293  0.6966  0.0660  0.0835
  248MOL    H5830192   5.570   6.567   2.401 -0.7522 -2.3650 -0.7457
  248MOL    H5930193   5.565   6.542   2.241  0.3937 -0.2302  1.2698
  248MOL    H6030194   5.793   6.649   2.193 -0.5572 -0.2013 -0.3753
  248MOL    H6130195   5.799   6.697   2.359 -0.2587 -0.9392  1.8425
  248MOL    C6230196   5.828   6.477   2.307 -0.5464 -1.2256 -0.3648
  248MOL    C6330197   5.980   6.478   2.297 -0.7589  0.2993  0.4208
  248MOL    H6430198   5.790   6.431   2.399 -1.6052 -0.4290 -0.3980
  248MOL    H6530199   5.794   6.410   2.229 -2.5335 -1.2772  0.5250
  248MOL    H6630200   6.007   6.530   2.205  3.0791 -1.4260  0.4580
  248MOL    H6730201   6.020   6.530   2.385 -3.7168  0.6755  1.5898
  248MOL    C6830202   6.043   6.339   2.292 -0.6417 -0.4405 -0.2812
  248MOL    C6930203   6.182   6.344   2.233 -1.0385 -0.3247 -0.4400
  248MOL    H7030204   6.048   6.290   2.389 -0.5118  0.0506 -0.0406
  248MOL    H7130205   5.994   6.268   2.225 -0.0138 -0.0508 -1.1623
  248MOL    H7230206   6.185   6.397   2.138  0.1220  1.9485  0.8226
  248MOL    H7330207   6.238   6.420   2.287 -1.1783  0.6418 -1.6268
  248MOL    C7430208   6.256   6.215   2.223  0.1271 -0.3928  0.0901
  248MOL    C7530209   6.397   6.231   2.172  0.7654  0.2933 -0.1096
  248MOL    H7630210   6.258   6.177   2.325  0.4555  1.2710  0.7154
  248MOL    H7730211   6.208   6.143   2.156 -2.3345  0.5287  0.8197
  248MOL    H7830212   6.393   6.299   2.086 -0.2245  0.4159  0.0364
  248MOL    H7930213   6.464   6.274   2.247 -0.4291 -1.1085  1.7926
  248MOL    C8030214   6.464   6.100   2.128  0.3525 -0.1246 -0.4507
  248MOL    C8130215   6.616   6.103   2.138  0.4722  0.3822 -0.5400
  248MOL    H8230216   6.425   6.018   2.189 -1.6944  2.3727  1.7220
  248MOL    H8330217   6.441   6.088   2.022  2.0345 -0.9286 -0.7306
  248MOL    H8430218   6.649   6.199   2.098 -0.4033  0.1287 -1.9020
  248MOL    H8530219   6.654   6.105   2.240  0.4077  0.6455 -0.5201
  248MOL    C8630220   6.693   5.996   2.054 -0.3712 -0.3970 -1.0251
  248MOL    C8730221   6.848   6.012   2.055 -0.1760  0.2797  0.6259
  248MOL    H8830222   6.678   5.898   2.097  0.0950  0.0874  0.2577
  248MOL    H8930223   6.657   5.994   1.951  1.7052  2.6861 -1.8999
  248MOL    H9030224   6.869   6.090   1.982 -2.0213  0.2854  0.0636
  248MOL    H9130225   6.885   6.033   2.156  1.5406 -0.7142  0.2136
  248MOL    C9230226   6.917   5.882   2.006 -0.3185 -0.4616  0.5064
  248MOL    C9330227   7.060   5.917   1.962  0.1748  0.6638  0.3262
  248MOL    H9430228   6.909   5.811   2.088 -2.0593 -0.8263  0.0387
  248MOL    H9530229   6.870   5.835   1.920 -0.5460 -0.5849  0.6985
  248MOL    H9630230   7.048   5.991   1.883  1.1344  0.7126  0.2183
  248MOL    H9730231   7.114   5.953   2.049 -0.0799 -1.4728  1.4006
  248MOL    C9830232   7.138   5.802   1.912  0.4824 -0.9589 -0.1499
  248MOL    C9930233   7.106   5.751   1.774 -0.3137 -0.0683  0.1089
  248MOL   H10030234   7.243   5.830   1.907  0.0397  0.8454  0.0811
  248MOL   H10130235   7.115   5.720   1.980  0.0662 -2.8102 -2.4395
  248MOL   H10230236   7.002   5.722   1.759 -0.1098  0.1534 -1.8538
  248MOL   H10330237   7.140   5.824   1.701 -0.9597  1.4514  1.3032
  248MOL   C10430238   7.194   5.627   1.742  0.6508  0.2785 -1.5535
  248MOL   C10530239   7.167   5.564   1.603  0.1593 -0.3678 -0.7578
  248MOL   H10630240   7.302   5.642   1.753  0.6806 -0.9723  0.1632
  248MOL   H10730241   7.161   5.551   1.813  1.7058 -0.1756 -1.5453
  248MOL   H10830242   7.226   5.472   1.596  1.0959  0.1318  0.5103
  248MOL   H10930243   7.067   5.522   1.593  0.0283  0.0899 -1.4307
  248MOL   C11030244   7.213   5.649   1.478  0.6583 -0.2676 -0.5959
  248MOL   C11130245   7.195   5.586   1.341  0.5523 -0.6662 -0.0671
  248MOL   H11230246   7.164   5.745   1.491  0.9725 -0.2511  0.4476
  248MOL   H11330247   7.318   5.661   1.504  0.0565  0.4600  1.5760
  248MOL   H11430248   7.091   5.554   1.333 -0.1856  1.7240 -0.7236
  248MOL   H11530249   7.214   5.660   1.262  1.4388  0.0024  0.7600
  248MOL   C11630250   7.294   5.462   1.326  0.0917 -0.1757  0.4825
  248MOL   C11730251   7.262   5.386   1.200  0.0166 -0.8173  0.0827
  248MOL   H11830252   7.397   5.497   1.320 -0.6949  1.9155 -1.4254
  248MOL   H11930253   7.292   5.394   1.411  1.4445  1.4678  1.8686
  248MOL   H12030254   7.154   5.369   1.199  0.1168 -1.4171 -2.1746
  248MOL   H12130255   7.295   5.432   1.107 -1.6146 -2.8111 -1.5492
  248MOL   H12230256   7.311   5.289   1.195  2.3436  0.3690 -0.8436
  249MOL     C130257   3.853   4.152   5.282 -0.0149 -0.1159 -0.9877
  249MOL     C230258   3.883   4.280   5.357  0.0092  0.2841 -0.2133
  249MOL     H330259   3.770   4.094   5.322  0.6670  0.2265  0.9941
  249MOL     H430260   3.943   4.092   5.289 -0.1491 -0.4833 -2.2249
  249MOL     H530261   3.961   4.331   5.300 -0.5953  0.0855 -1.2360
  249MOL     H630262   3.794   4.340   5.337 -0.5119 -0.9130 -1.6135
  249MOL     H730263   3.824   4.173   5.179  0.6206  0.9482 -0.9597
  249MOL     C830264   3.917   4.255   5.509 -0.2024  0.7934  0.1019
  249MOL     C930265   3.947   4.390   5.580  0.1659  0.1174 -0.3208
  249MOL    H1030266   3.825   4.210   5.545  0.6515 -1.9785 -1.0815
  249MOL    H1130267   4.004   4.189   5.511 -0.3149  0.5890 -1.2213
  249MOL    H1230268   4.034   4.438   5.533 -0.2293 -0.2945 -1.4994
  249MOL    H1330269   3.862   4.457   5.569 -1.3278 -1.9519 -2.0123
  249MOL    C1430270   3.992   4.367   5.729 -0.2018  0.4257  0.5465
  249MOL    C1530271   3.985   4.502   5.804  0.0706  0.1424 -0.0215
  249MOL    H1630272   3.933   4.286   5.771  0.3842  1.4473  3.4443
  249MOL    H1730273   4.095   4.332   5.736 -0.6773 -0.6404  2.6616
  249MOL    H1830274   4.054   4.567   5.749  0.3270  0.4955  0.7013
  249MOL    H1930275   3.884   4.541   5.803 -0.1227 -0.3695 -1.0884
  249MOL    C2030276   4.037   4.494   5.949  0.2780 -0.1811 -0.5968
  249MOL    C2130277   4.041   4.632   6.018 -0.6122  0.4642  0.4194
  249MOL    H2230278   3.960   4.441   6.005  0.8316 -0.4893 -0.1192
  249MOL    H2330279   4.126   4.435   5.973 -0.0931  0.5276  2.8012
  249MOL    H2430280   4.119   4.683   5.962  0.2976 -0.0768  1.1819
  249MOL    H2530281   3.952   4.688   5.989  0.1594  2.0802  1.1062
  249MOL    C2630282   4.080   4.635   6.166  0.1420  0.2808 -0.2961
  249MOL    C2730283   4.079   4.780   6.225 -0.3336 -1.2679 -0.2831
  249MOL    H2830284   4.013   4.562   6.213  1.7659 -1.5792 -0.7956
  249MOL    H2930285   4.179   4.594   6.183  1.1764  2.9881  0.3994
  249MOL    H3030286   4.150   4.834   6.163  1.1484 -2.4100  0.3890
  249MOL    H3130287   3.981   4.827   6.217  0.4268  0.8009  2.0794
  249MOL    C3230288   4.135   4.793   6.369 -0.2144  0.2786 -0.1002
  249MOL    C3330289   4.148   4.940   6.412  0.4016 -0.2378  0.4059
  249MOL    H3430290   4.063   4.745   6.435 -1.1919 -0.5001 -1.7156
  249MOL    H3530291   4.230   4.741   6.383 -0.9010 -1.4425 -1.7321
  249MOL    H3630292   4.233   4.985   6.361 -0.2071 -0.9428 -1.2681
  249MOL    H3730293   4.057   4.987   6.373 -0.7014 -0.3778  2.6880
  249MOL    C3830294   4.151   4.960   6.564 -0.1860 -0.5570  0.1159
  249MOL    C3930295   4.136   5.102   6.616 -0.1602  0.2457  0.6131
  249MOL    H4030296   4.087   4.892   6.621  0.0026  0.3827  1.4674
  249MOL    H4130297   4.251   4.937   6.600 -0.2846  2.9563  2.9198
  249MOL    H4230298   4.158   5.112   6.722  0.8116 -2.0458  0.6486
  249MOL    H4330299   4.214   5.164   6.570 -0.4560 -0.4643 -0.8845
  249MOL    C4430300   4.009   5.174   6.579  0.7182  0.5440 -0.5284
  249MOL    C4530301   3.875   5.109   6.629  0.3114 -0.0071 -0.8162
  249MOL    H4630302   4.017   5.275   6.619  0.2881  0.2689  0.2756
  249MOL    H4730303   3.999   5.190   6.472  4.0288 -0.7331 -1.0740
  249MOL    H4830304   3.875   5.004   6.601 -0.1041 -0.6499  1.5294
  249MOL    H4930305   3.878   5.106   6.738  1.1880  0.5102 -0.8223
  249MOL    C5030306   3.750   5.171   6.560 -0.3347  0.0501  0.4459
  249MOL    C5130307   3.630   5.078   6.556 -0.1985  0.2134 -0.3490
  249MOL    H5230308   3.721   5.256   6.621 -0.3214  0.9186 -0.7407
  249MOL    H5330309   3.766   5.208   6.459  0.6356 -0.5338  0.3753
  249MOL    H5430310   3.656   4.986   6.504  0.1949 -0.0071  0.2305
  249MOL    H5530311   3.601   5.055   6.659 -0.5628  1.2131 -0.2243
  249MOL    C5630312   3.507   5.152   6.492  0.4240  0.3254  0.3645
  249MOL    C5730313   3.386   5.058   6.478 -0.3952 -0.1274 -1.0009
  249MOL    H5830314   3.486   5.237   6.557 -0.1985  1.5274 -1.3907
  249MOL    H5930315   3.540   5.186   6.394  0.4480  1.2187  0.6799
  249MOL    H6030316   3.384   5.010   6.576  3.1224  0.0481 -0.7552
  249MOL    H6130317   3.299   5.122   6.475 -1.3492 -1.4349 -1.6660
  249MOL    C6230318   3.379   4.967   6.357 -0.0241 -0.1181 -0.3393
  249MOL    C6330319   3.262   4.870   6.370 -0.5741  0.7910  0.3606
  249MOL    H6430320   3.360   5.022   6.265 -0.9308 -0.3923 -0.3209
  249MOL    H6530321   3.477   4.920   6.346 -0.1238 -1.4497  3.7087
  249MOL    H6630322   3.174   4.933   6.355 -0.3226  0.6020 -2.1517
  249MOL    H6730323   3.263   4.805   6.282  0.1838 -0.7030  1.4643
  249MOL    C6830324   3.227   4.800   6.501  0.0424  0.2589  0.8827
  249MOL    C6930325   3.312   4.668   6.527 -0.0271  0.1390 -0.2410
  249MOL    H7030326   3.231   4.864   6.589 -0.5644  1.0527  0.3339
  249MOL    H7130327   3.122   4.772   6.492  0.7012 -2.1519  0.2686
  249MOL    H7230328   3.312   4.600   6.442  0.2415  2.0426 -1.7995
  249MOL    H7330329   3.416   4.697   6.540 -0.2412  0.4888  0.6990
  249MOL    C7430330   3.261   4.587   6.648  0.3607 -0.0641 -0.5038
  249MOL    C7530331   3.331   4.609   6.779 -0.0624 -0.1504  0.8271
  249MOL    H7630332   3.153   4.591   6.661 -0.0712 -2.4168 -2.8644
  249MOL    H7730333   3.256   4.482   6.622  0.3256 -0.4423  0.9857
  249MOL    H7830334   3.431   4.567   6.770 -0.0510  0.2382 -1.1393
  249MOL    H7930335   3.351   4.716   6.789  1.5798 -0.3775  0.1388
  249MOL    C8030336   3.257   4.542   6.903  0.3454 -0.3762 -0.2314
  249MOL    C8130337   3.315   4.606   7.032 -0.5933  0.2347 -0.2920
  249MOL    H8230338   3.152   4.569   6.892  0.3836  0.7887  1.9841
  249MOL    H8330339   3.267   4.434   6.902  0.6139 -0.3510 -0.2111
  249MOL    H8430340   3.421   4.587   7.044  0.2279  2.4408 -3.4138
  249MOL    H8530341   3.302   4.714   7.024  0.0409  0.2588 -1.0110
  249MOL    C8630342   3.247   4.569   7.164  0.5805  0.1920 -0.2702
  249MOL    C8730343   3.306   4.631   7.292  0.2980  0.0111  0.4793
  249MOL    H8830344   3.140   4.586   7.158  0.2120 -0.4104  3.2349
  249MOL    H8930345   3.253   4.460   7.169  2.3590  0.2559 -0.6706
  249MOL    H9030346   3.413   4.611   7.300  1.4224  3.9937 -2.8417
  249MOL    H9130347   3.308   4.739   7.276 -4.0779  0.0245 -0.5270
  249MOL    C9230348   3.251   4.594   7.428  0.2056  0.6996 -0.2478
  249MOL    C9330349   3.334   4.654   7.539 -0.2637 -0.3829  0.4788
  249MOL    H9430350   3.153   4.640   7.440 -0.3327 -0.1300 -1.3580
  249MOL    H9530351   3.247   4.487   7.447  0.5102  0.5597 -0.9316
  249MOL    H9630352   3.439   4.640   7.514 -0.1532  0.1611  0.6364
  249MOL    H9730353   3.320   4.762   7.548  0.7539 -0.1523 -0.5667
  249MOL    C9830354   3.305   4.587   7.670  0.8226 -0.8283  0.1952
  249MOL    C9930355   3.384   4.630   0.100  0.8421  0.2078 -0.3949
  249MOL   H10030356   3.201   4.601   0.005  0.6544 -1.7476  0.0162
  249MOL   H10130357   3.330   4.481   7.666 -0.8012 -1.2489  0.7656
  249MOL   H10230358   3.356   4.728   0.140  1.0118 -0.1267  0.5585
  249MOL   H10330359   3.353   4.555   0.173 -1.1730  1.5877  0.2517
  249MOL   C10430360   3.533   4.625   0.074  0.0730 -0.2802 -0.0150
  249MOL   C10530361   3.628   4.631   0.193 -0.4178  0.0647 -0.1734
  249MOL   H10630362   3.550   4.532   0.018 -0.5946  1.2810 -2.9344
  249MOL   H10730363   3.552   4.700   7.689 -3.1885  1.4806  0.8116
  249MOL   H10830364   3.628   4.557   0.273  2.3278  1.7435  1.4503
  249MOL   H10930365   3.732   4.619   0.165 -0.7944 -1.0885 -1.1090
  249MOL   C11030366   3.613   4.761   0.267 -0.2348  0.4823 -0.2511
  249MOL   C11130367   3.746   4.830   0.314 -0.2231 -0.2560  0.3333
  249MOL   H11230368   3.554   4.833   0.210 -1.0341 -0.2135 -0.3069
  249MOL   H11330369   3.552   4.738   0.355  1.1926 -0.6864  0.4656
  249MOL   H11430370   3.813   4.845   0.229 -1.6001  0.4729 -0.6431
  249MOL   H11530371   3.716   4.931   0.343 -0.6902  0.0228 -1.0717
  249MOL   C11630372   3.816   4.760   0.422  0.1973  0.2715 -0.3734
  249MOL   C11730373   3.936   4.668   0.385  0.4126  0.4982 -0.6471
  249MOL   H11830374   3.851   4.840   0.487 -2.0320  0.8412  0.1704
  249MOL   H11930375   3.747   4.700   0.482 -0.3185  3.3055  2.1838
  249MOL   H12030376   3.940   4.584   0.453  4.0039 -0.0476 -1.4348
  249MOL   H12130377   3.930   4.615   0.290 -1.7149 -0.3032 -0.0814
  249MOL   H12230378   4.031   4.717   0.404  0.5692 -0.1815  0.3214
  250MOL     C130379   2.214   3.850   0.639 -0.5754  0.0288 -0.1291
  250MOL     C230380   2.274   3.960   0.721 -0.0852  0.6585  0.3145
  250MOL     H330381   2.289   3.783   0.595 -1.8263 -1.4727  0.0020
  250MOL     H430382   2.156   3.894   0.558  1.6382  0.9503 -1.2557
  250MOL     H530383   2.337   4.013   0.650  1.8375 -0.6630  1.0101
  250MOL     H630384   2.202   4.038   0.747 -1.1369  0.6232 -2.3027
  250MOL     H730385   2.144   3.796   0.701  2.1838 -1.4733  1.7813
  250MOL     C830386   2.339   3.906   0.849 -0.3245 -0.1430  0.6223
  250MOL     C930387   2.423   4.009   0.923 -0.0306 -0.3705  0.0150
  250MOL    H1030388   2.265   3.874   0.922 -0.6053 -2.1054 -0.5070
  250MOL    H1130389   2.401   3.821   0.821  2.8988  2.9488 -2.0542
  250MOL    H1230390   2.497   4.062   0.862 -0.2892 -0.9572 -0.8077
  250MOL    H1330391   2.348   4.079   0.963 -0.0080  0.3548 -1.1995
  250MOL    C1430392   2.504   3.964   1.044  0.3090  0.2564  0.2088
  250MOL    C1530393   2.609   4.068   1.092  0.4585  0.1738 -0.4907
  250MOL    H1630394   2.445   3.922   1.126  0.6711 -0.7226 -0.0182
  250MOL    H1730395   2.545   3.880   0.988 -1.5426 -0.8632  0.4787
  250MOL    H1830396   2.652   4.122   1.007  2.0185  2.5404  1.7130
  250MOL    H1930397   2.560   4.145   1.152  1.7276  1.6943 -1.3787
  250MOL    C2030398   2.725   4.009   1.179 -0.8606  0.1878  0.5247
  250MOL    C2130399   2.838   4.110   1.217  0.0683  0.4567 -0.2041
  250MOL    H2230400   2.689   3.965   1.272  0.6887 -0.7120  0.7187
  250MOL    H2330401   2.760   3.916   1.135 -1.3680  0.5014 -0.5500
  250MOL    H2430402   2.914   4.053   1.271  0.8238  0.3356 -1.3954
  250MOL    H2530403   2.881   4.165   1.134 -1.9676  0.4524 -1.3039
  250MOL    C2630404   2.798   4.209   1.329 -0.0007  0.2424 -0.4001
  250MOL    C2730405   2.898   4.326   1.346 -0.0927  0.2418 -0.3591
  250MOL    H2830406   2.698   4.246   1.309 -1.3015 -3.1801 -0.4864
  250MOL    H2930407   2.798   4.154   1.423  2.2479  1.1451  0.1681
  250MOL    H3030408   2.989   4.285   1.391 -0.3542 -0.9043 -0.8529
  250MOL    H3130409   2.930   4.382   1.257  1.5949  1.8745  1.2212
  250MOL    C3230410   2.843   4.427   1.445 -0.0182  0.2605  0.0045
  250MOL    C3330411   2.926   4.549   1.475 -0.8499  0.5108  0.2545
  250MOL    H3430412   2.752   4.461   1.394  0.1179  0.7842  0.1160
  250MOL    H3530413   2.810   4.377   1.535 -1.8370  0.2702 -0.6363
  250MOL    H3630414   3.011   4.520   1.536 -2.4878  0.8396  2.7468
  250MOL    H3730415   2.977   4.588   1.387  1.4357 -0.5445  1.0980
  250MOL    C3830416   2.845   4.663   1.540 -0.0798  0.1634 -0.4438
  250MOL    C3930417   2.914   4.796   1.555  0.2391 -0.4445 -0.1412
  250MOL    H4030418   2.761   4.684   1.474 -0.4898  0.6281  0.2227
  250MOL    H4130419   2.804   4.631   1.636  0.2643 -0.2589 -0.4385
  250MOL    H4230420   3.001   4.769   1.615 -0.9808 -3.1628  0.4928
  250MOL    H4330421   2.964   4.816   1.461  0.7511  2.1522  0.6395
  250MOL    C4430422   2.831   4.911   1.626 -0.0823  0.6154 -0.5430
  250MOL    C4530423   2.917   5.039   1.619  0.1814  0.8898  1.2041
  250MOL    H4630424   2.747   4.914   1.558 -1.6303  1.3655  1.3567
  250MOL    H4730425   2.801   4.883   1.727 -0.6864  1.1271 -0.5778
  250MOL    H4830426   3.013   5.010   1.662  0.1720  1.0694  1.3483
  250MOL    H4930427   2.929   5.067   1.514 -0.5224 -1.1125  0.5796
  250MOL    C5030428   2.854   5.166   1.690  0.0269 -0.3029 -0.2670
  250MOL    C5130429   2.923   5.303   1.658  0.2070  0.2957  0.2002
  250MOL    H5230430   2.749   5.170   1.661  0.0207 -0.2811 -0.2412
  250MOL    H5330431   2.863   5.159   1.798 -0.0700  0.7150 -0.1911
  250MOL    H5430432   3.031   5.286   1.662  0.0774 -1.4900 -2.6518
  250MOL    H5530433   2.912   5.311   1.550 -0.7260 -0.4327  0.2349
  250MOL    C5630434   2.880   5.425   1.737 -0.5220  0.2532  0.7183
  250MOL    C5730435   2.935   5.555   1.669 -0.1684 -0.2523  0.1493
  250MOL    H5830436   2.773   5.435   1.756 -0.5430 -1.4455  1.5079
  250MOL    H5930437   2.915   5.425   1.840 -1.8053 -0.1864  1.1556
  250MOL    H6030438   3.040   5.559   1.698  0.0942  0.8645 -0.9210
  250MOL    H6130439   2.928   5.548   1.561  0.1314 -0.0504  0.1141
  250MOL    C6230440   2.870   5.686   1.724  0.6782  0.5213 -0.3733
  250MOL    C6330441   2.931   5.816   1.667  0.3073  0.7298  0.4285
  250MOL    H6430442   2.763   5.698   1.706  0.6055  0.5590  0.0904
  250MOL    H6530443   2.877   5.670   1.831 -3.5039 -1.3482 -0.2864
  250MOL    H6630444   3.040   5.816   1.675  0.4183  1.4206 -0.8414
  250MOL    H6730445   2.915   5.829   1.560  0.4028  0.4299  0.3758
  250MOL    C6830446   2.879   5.935   1.745 -0.4132 -0.3161 -0.4075
  250MOL    C6930447   2.922   6.074   1.706  0.5844  0.3879  0.9638
  250MOL    H7030448   2.770   5.929   1.746 -0.5518  1.8957  1.0558
  250MOL    H7130449   2.889   5.930   1.854  0.8664  0.8857 -0.4702
  250MOL    H7230450   3.027   6.084   1.734  0.3633 -1.5334  2.6378
  250MOL    H7330451   2.915   6.081   1.598 -0.8593  3.1530  1.1895
  250MOL    C7430452   2.834   6.180   1.758  0.7041 -1.0557 -0.1954
  250MOL    C7530453   2.909   6.310   1.723 -0.0538 -0.4781 -0.0228
  250MOL    H7630454   2.735   6.178   1.713  1.1598 -6.2729 -1.2253
  250MOL    H7730455   2.813   6.183   1.865  0.0927  0.4209 -0.3430
  250MOL    H7830456   3.014   6.318   1.751  0.5671 -0.2254 -2.3130
  250MOL    H7930457   2.904   6.324   1.615  4.7081 -0.0840 -0.3255
  250MOL    C8030458   2.840   6.435   1.776  1.3007  0.8762 -0.2873
  250MOL    C8130459   2.917   6.561   1.760  0.0594  0.1629  0.5345
  250MOL    H8230460   2.738   6.446   1.740  1.1231 -1.0038 -0.4514
  250MOL    H8330461   2.836   6.422   1.884 -1.0508  0.6364 -0.3790
  250MOL    H8430462   3.019   6.544   1.794  0.0286 -0.4734  0.3180
  250MOL    H8530463   2.935   6.593   1.657  2.3931  0.9356  1.1575
  250MOL    C8630464   2.848   6.674   1.838  0.0701  0.6070  0.4853
  250MOL    C8730465   2.907   6.809   1.810  0.2216 -0.1688  0.7371
  250MOL    H8830466   2.742   6.678   1.814  0.0337  0.1405  0.5647
  250MOL    H8930467   2.840   6.657   1.945 -1.4242 -1.5281  0.0651
  250MOL    H9030468   3.013   6.802   1.836  1.0578  2.7173 -1.5164
  250MOL    H9130469   2.900   6.831   1.703  2.1753  0.3820  0.6857
  250MOL    C9230470   2.846   6.917   1.903  0.2595 -0.9252  0.2600
  250MOL    C9330471   2.878   7.060   1.849 -0.7404  0.1501  0.4827
  250MOL    H9430472   2.737   6.908   1.896  0.1506  1.3893 -1.5571
  250MOL    H9530473   2.871   6.912   2.009 -0.6225  1.1479  0.5846
  250MOL    H9630474   2.981   7.085   1.874 -0.8374  1.5744 -0.5148
  250MOL    H9730475   2.902   7.060   1.743 -0.2020  1.0661  0.6009
  250MOL    C9830476   2.787   7.168   1.901 -0.6077  0.0821 -0.0994
  250MOL    C9930477   2.770   7.176   2.048 -0.0655 -0.2462 -0.1193
  250MOL   H10030478   2.808   7.269   1.866 -1.6522  0.0441 -0.8578
  250MOL   H10130479   2.692   7.153   1.848 -0.1900 -0.2878 -0.7523
  250MOL   H10230480   2.721   7.080   2.064  1.8988 -1.6841 -2.3932
  250MOL   H10330481   2.861   7.184   2.108 -0.3828 -1.1758  0.5004
  250MOL   C10430482   2.665   7.282   2.096 -0.3392 -0.4778 -0.8111
  250MOL   C10530483   2.656   7.308   2.252  0.3619  0.0656 -0.0126
  250MOL   H10630484   2.699   7.379   2.059 -0.3031 -0.2108 -0.0734
  250MOL   H10730485   2.564   7.263   2.058 -0.1138  0.3877 -1.8873
  250MOL   H10830486   2.651   7.206   2.292 -0.4347  0.2110  0.2837
  250MOL   H10930487   2.752   7.347   2.285  1.3177 -2.3097  0.1451
  250MOL   C11030488   2.538   7.395   2.294  0.2202 -0.5461  0.4380
  250MOL   C11130489   2.525   7.415   2.444  0.5689  0.7619 -0.3772
  250MOL   H11230490   2.561   7.498   2.266 -1.8215 -0.1434  0.1355
  250MOL   H11330491   2.439   7.373   2.253  0.0425  2.6021 -0.9986
  250MOL   H11430492   2.617   7.443   2.495  0.6078 -1.4774  0.8612
  250MOL   H11530493   2.463   7.503   2.462 -1.3471 -0.3713 -1.3160
  250MOL   C11630494   2.451   7.293   2.506  0.2926 -0.1127 -0.4089
  250MOL   C11730495   2.448   7.317   2.657 -0.0491 -0.0985  0.7182
  250MOL   H11830496   2.349   7.275   2.475  1.1806 -1.8970 -2.3682
  250MOL   H11930497   2.504   7.199   2.489 -0.4545 -0.9050  1.5130
  250MOL   H12030498   2.397   7.231   2.700  0.3082  0.1738  1.6792
  250MOL   H12130499   2.542   7.330   2.709  1.0699 -1.7932 -0.8005
  250MOL   H12230500   2.390   7.409   2.670 -0.7666 -0.6615  1.5528
  251MOL     C130501   0.013   4.152   4.365  0.4170  0.2043  0.2696
  251MOL     C230502   7.586   4.212   4.446  0.4300  0.2673 -0.5796
  251MOL     H330503   7.668   4.103   4.275  0.6172  1.1955 -0.3587
  251MOL     H430504   0.073   4.080   4.420 -1.6667 -1.7522  0.0403
  251MOL     H530505   7.625   4.292   4.508 -0.5195 -0.4842  1.0000
  251MOL     H630506   7.516   4.254   4.374 -1.3913 -1.3604  0.1989
  251MOL     H730507   0.071   4.232   4.319 -0.5965  1.0864  0.5065
  251MOL     C830508   7.523   4.111   4.537  0.6991  0.7025 -0.0866
  251MOL     C930509   7.372   4.144   4.558  0.0436  0.0232 -0.3530
  251MOL    H1030510   7.527   4.006   4.508  0.8953  0.3339  1.2249
  251MOL    H1130511   7.575   4.106   4.632 -1.7330  1.9693  1.3652
  251MOL    H1230512   7.359   4.242   4.604  3.3677  0.1169  0.5251
  251MOL    H1330513   7.329   4.134   4.458 -0.1849 -1.9509 -0.0851
  251MOL    C1430514   7.310   4.037   4.647  0.2458 -0.2092 -0.8454
  251MOL    C1530515   7.154   4.058   4.664 -0.1309  0.5358 -0.0147
  251MOL    H1630516   7.325   3.934   4.614  0.1552 -0.1035 -1.2238
  251MOL    H1730517   7.353   4.037   4.747 -2.8191 -1.3581  0.5310
  251MOL    H1830518   7.131   4.162   4.687  1.5804  0.8549  0.3595
  251MOL    H1930519   7.085   4.027   4.586 -0.1687  2.1485 -0.6487
  251MOL    C2030520   7.105   3.976   4.788  0.3834  0.5915 -0.5891
  251MOL    C2130521   6.966   4.009   4.837  0.1204 -0.4761 -0.2995
  251MOL    H2230522   7.101   3.873   4.754  4.2358  0.2003 -0.0480
  251MOL    H2330523   7.183   3.973   4.864  1.4752  2.6937 -1.5754
  251MOL    H2430524   6.950   4.111   4.871 -1.8631  0.4219 -3.6679
  251MOL    H2530525   6.901   4.008   4.750  0.2165  1.1336 -0.4094
  251MOL    C2630526   6.913   3.897   4.935  0.3974  0.1330  0.4031
  251MOL    C2730527   6.768   3.922   4.981 -0.2218 -0.3262 -0.0019
  251MOL    H2830528   6.928   3.798   4.893  2.5457  0.5273  0.1710
  251MOL    H2930529   6.979   3.895   5.021  0.3202  1.0005  0.4906
  251MOL    H3030530   6.765   4.013   5.040 -1.5773  0.0393 -0.6209
  251MOL    H3130531   6.701   3.933   4.896  0.5185  0.9247 -0.4482
  251MOL    C3230532   6.707   3.810   5.068 -0.1732  0.2251 -0.1846
  251MOL    C3330533   6.558   3.821   5.079 -0.4156 -0.2335  0.2874
  251MOL    H3430534   6.736   3.717   5.019  0.8898  0.1201  0.6315
  251MOL    H3530535   6.747   3.823   5.169  0.0046 -0.6437 -0.1394
  251MOL    H3630536   6.539   3.919   5.123  0.4534  0.1092 -0.0793
  251MOL    H3730537   6.516   3.820   4.978  1.2310 -1.2419 -0.4040
  251MOL    C3830538   6.493   3.705   5.161  0.3669  0.6453 -0.6741
  251MOL    C3930539   6.343   3.724   5.180 -0.0985 -1.0263  0.8123
  251MOL    H4030540   6.505   3.605   5.120 -2.2706  0.0457 -0.1071
  251MOL    H4130541   6.547   3.695   5.255 -3.5286  0.5224  1.6978
  251MOL    H4230542   6.320   3.821   5.224 -0.1067 -1.2754  1.3707
  251MOL    H4330543   6.287   3.727   5.087  0.2539  2.5054  0.6375
  251MOL    C4430544   6.286   3.615   5.267  0.1234  0.1294 -0.0734
  251MOL    C4530545   6.131   3.619   5.256  0.1942  0.6068 -1.0225
  251MOL    H4630546   6.321   3.517   5.234 -0.4621 -1.1994  3.0484
  251MOL    H4730547   6.323   3.630   5.368 -1.4138  2.4677  0.1852
  251MOL    H4830548   6.079   3.714   5.259  0.8197  1.0381 -2.8073
  251MOL    H4930549   6.109   3.574   5.159 -2.5328  0.2614 -0.2619
  251MOL    C5030550   6.070   3.540   5.374  0.2869 -0.2150 -0.3222
  251MOL    C5130551   5.910   3.549   5.370 -0.1854 -0.0016 -0.4097
  251MOL    H5230552   6.099   3.435   5.361  1.4308 -0.2715  2.3788
  251MOL    H5330553   6.111   3.587   5.463 -0.3472 -0.7190  0.2374
  251MOL    H5430554   5.878   3.652   5.359 -0.7376 -0.3922 -2.7126
  251MOL    H5530555   5.880   3.503   5.276 -0.2733  0.1913 -0.4755
  251MOL    C5630556   5.844   3.490   5.495 -0.6263  1.1243 -0.3151
  251MOL    C5730557   5.691   3.511   5.483 -0.1737  0.3298  0.5647
  251MOL    H5830558   5.862   3.383   5.497  2.6636  1.6466  1.0578
  251MOL    H5930559   5.887   3.508   5.593 -1.8324 -3.0392  1.0675
  251MOL    H6030560   5.688   3.619   5.466  0.4477 -0.1945 -3.5263
  251MOL    H6130561   5.652   3.473   5.389  2.7963 -3.4675  0.7505
  251MOL    C6230562   5.602   3.444   5.593  0.2704 -0.0201  0.6550
  251MOL    C6330563   5.449   3.449   5.570  0.1179 -1.3122  0.6275
  251MOL    H6430564   5.621   3.336   5.596 -0.6362 -0.1930  0.3681
  251MOL    H6530565   5.623   3.496   5.687 -0.8280  2.7489 -0.5758
  251MOL    H6630566   5.432   3.549   5.529  2.0207 -0.5244  1.7206
  251MOL    H6730567   5.434   3.390   5.480 -1.7227  1.1858 -0.7699
  251MOL    C6830568   5.346   3.410   5.683 -0.0587 -0.3087  0.8054
  251MOL    C6930569   5.204   3.408   5.636 -0.4269 -0.2470  0.3424
  251MOL    H7030570   5.377   3.314   5.724  1.2203 -0.2532  0.0089
  251MOL    H7130571   5.356   3.473   5.771  0.0918  0.6296  0.1333
  251MOL    H7230572   5.191   3.352   5.544 -0.8604  0.4001  0.0098
  251MOL    H7330573   5.140   3.362   5.711  2.3763 -0.0922  2.9342
  251MOL    C7430574   5.150   3.551   5.615 -0.1022  0.6588  0.7841
  251MOL    C7530575   5.006   3.567   5.553 -0.8111  0.1951  0.3771
  251MOL    H7630576   5.164   3.617   5.700 -0.7899  2.7903 -0.7025
  251MOL    H7730577   5.209   3.591   5.532  0.0734 -0.8973  0.1357
  251MOL    H7830578   4.999   3.499   5.469  2.1875 -0.7695  0.8187
  251MOL    H7930579   4.920   3.548   5.617  0.2380 -0.7770  1.5357
  251MOL    C8030580   4.978   3.707   5.479 -1.2868  0.0418 -0.4358
  251MOL    C8130581   4.870   3.698   5.372 -0.0883  0.7485  0.2644
  251MOL    H8230582   4.949   3.777   5.557  4.0212  1.4225  0.5140
  251MOL    H8330583   5.066   3.759   5.438 -1.2279 -0.3300 -0.7821
  251MOL    H8430584   4.806   3.616   5.406  0.0136  1.2396  1.6492
  251MOL    H8530585   4.810   3.788   5.364  2.5049  2.6445  1.5531
  251MOL    C8630586   4.926   3.688   5.230 -0.0116  0.9378  0.0713
  251MOL    C8730587   4.816   3.662   5.127  0.3647  0.2862 -0.3343
  251MOL    H8830588   4.983   3.776   5.200  1.6075 -0.2137 -0.3056
  251MOL    H8930589   4.990   3.601   5.221 -0.3687  0.6785  0.0281
  251MOL    H9030590   4.776   3.561   5.135  1.6226 -0.2328 -0.3546
  251MOL    H9130591   4.726   3.720   5.141 -1.2534 -1.8991 -1.3284
  251MOL    C9230592   4.884   3.671   4.992  0.3260 -0.1791  0.4846
  251MOL    C9330593   4.782   3.673   4.879  0.1389 -0.0964  0.1441
  251MOL    H9430594   4.940   3.764   4.983  0.3769 -0.0813  1.7111
  251MOL    H9530595   4.955   3.589   4.983 -2.1514 -2.4114  0.4823
  251MOL    H9630596   4.726   3.580   4.885 -0.8674  0.6443  2.9464
  251MOL    H9730597   4.706   3.750   4.891  0.0750 -0.0560 -0.5161
  251MOL    C9830598   4.847   3.687   4.735 -0.1487 -1.1833  0.5031
  251MOL    C9930599   4.748   3.682   4.613 -0.0747 -0.1906  0.0206
  251MOL   H10030600   4.890   3.787   4.728  0.0337 -1.2682  0.4395
  251MOL   H10130601   4.924   3.611   4.722  0.2670 -0.6228 -0.3379
  251MOL   H10230602   4.688   3.591   4.619  1.3094 -1.2256 -1.4851
  251MOL   H10330603   4.686   3.769   4.635 -0.1412 -0.7688  2.2645
  251MOL   C10430604   4.822   3.687   4.473  1.2210  0.0211  0.4563
  251MOL   C10530605   4.737   3.715   4.349  0.7929 -0.2719 -0.3672
  251MOL   H10630606   4.881   3.779   4.482 -1.6819  2.2966 -2.5323
  251MOL   H10730607   4.891   3.606   4.450  1.1843 -0.1134  0.8059
  251MOL   H10830608   4.675   3.628   4.325  1.7206 -0.3909 -2.4307
  251MOL   H10930609   4.672   3.802   4.350 -1.4739 -1.8925 -2.3189
  251MOL   C11030610   4.833   3.745   4.234 -0.0665 -0.4877 -0.2451
  251MOL   C11130611   4.762   3.785   4.104 -0.1979  0.2778  0.7879
  251MOL   H11230612   4.907   3.818   4.267 -0.4239  0.0778 -0.6771
  251MOL   H11330613   4.892   3.654   4.228  1.5250  0.4775  0.4405
  251MOL   H11430614   4.672   3.724   4.094 -0.4625  0.8280 -0.2802
  251MOL   H11530615   4.726   3.888   4.098  0.3245  0.3643 -1.3731
  251MOL   C11630616   4.848   3.747   3.976 -0.5729 -0.2512 -0.2465
  251MOL   C11730617   4.752   3.727   3.852 -0.1893 -0.5985 -0.0367
  251MOL   H11830618   4.919   3.826   3.953 -1.3207  0.4453 -0.1996
  251MOL   H11930619   4.897   3.652   3.993  1.0974  0.6976  0.3316
  251MOL   H12030620   4.698   3.820   3.835  2.1754  0.9224  0.5558
  251MOL   H12130621   4.810   3.712   3.760 -0.9466  0.0332 -0.6229
  251MOL   H12230622   4.686   3.641   3.860  2.6703 -2.9404 -0.6409
  252MOL     C130623   3.672   3.836   4.312  0.2737  0.6054 -0.4664
  252MOL     C230624   3.804   3.753   4.297 -0.5540  0.4436  0.2080
  252MOL     H330625   3.585   3.771   4.303  2.1745 -2.4528  2.2301
  252MOL     H430626   3.667   3.925   4.248 -1.2348  1.5748  0.9597
  252MOL     H530627   3.800   3.698   4.203  1.1616 -1.0584  0.9777
  252MOL     H630628   3.898   3.808   4.292 -1.5152  2.5144  3.2740
  252MOL     H730629   3.661   3.863   4.417  0.9730 -2.7968  0.5516
  252MOL     C830630   3.808   3.649   4.411 -0.2203 -0.2548  0.0130
  252MOL     C930631   3.934   3.556   4.418  0.0790  0.3055  0.5698
  252MOL    H1030632   3.798   3.701   4.506  1.1620 -0.2154  0.1508
  252MOL    H1130633   3.720   3.588   4.392  0.7976 -2.0629  1.0054
  252MOL    H1230634   3.974   3.533   4.319 -0.3322  0.3473  0.3942
  252MOL    H1330635   4.011   3.612   4.471 -0.5391  1.1499  0.5817
  252MOL    C1430636   3.909   3.420   4.480  0.4414  0.0334 -0.9761
  252MOL    C1530637   4.034   3.337   4.484  0.1514 -0.2594 -0.2908
  252MOL    H1630638   3.873   3.424   4.583 -0.6931 -0.2395 -1.3662
  252MOL    H1730639   3.828   3.377   4.423 -1.7783  0.2530  1.8992
  252MOL    H1830640   4.080   3.342   4.385  2.8451 -1.4096  0.8619
  252MOL    H1930641   4.110   3.384   4.547  0.5449 -0.9368 -0.2498
  252MOL    C2030642   4.008   3.196   4.547 -0.5357  1.5508  0.4100
  252MOL    C2130643   4.119   3.092   4.527  0.4996 -0.6687  0.3364
  252MOL    H2230644   3.982   3.204   4.652  0.2201  2.9312  0.5174
  252MOL    H2330645   3.916   3.157   4.504 -0.0203 -1.7508  2.1433
  252MOL    H2430646   4.122   3.072   4.419 -3.2318 -1.2791  0.2866
  252MOL    H2530647   4.215   3.128   4.564  0.9650 -0.6007 -0.8900
  252MOL    C2630648   4.093   2.958   4.603 -0.3438 -0.7912  0.3134
  252MOL    C2730649   4.185   2.851   4.537  0.2247 -0.1190 -0.2479
  252MOL    H2830650   4.127   2.957   4.706  3.3509 -0.7106 -0.8214
  252MOL    H2930651   3.986   2.936   4.605 -0.1314 -1.9746 -0.6383
  252MOL    H3030652   4.143   2.755   4.566  1.4442 -0.3567  0.7609
  252MOL    H3130653   4.159   2.850   4.431 -4.3005 -0.9739  0.7773
  252MOL    C3230654   4.336   2.874   4.561 -0.4134 -0.0698 -0.1047
  252MOL    C3330655   4.420   2.768   4.492  0.4859  0.0756  0.8027
  252MOL    H3430656   4.366   2.974   4.529 -1.9345  0.8880  1.4265
  252MOL    H3530657   4.360   2.869   4.667  0.6166  0.3163 -0.3123
  252MOL    H3630658   4.386   2.674   4.536  0.0926  0.3407  1.0800
  252MOL    H3730659   4.404   2.750   4.386  2.3374 -0.3650  0.5863
  252MOL    C3830660   4.571   2.796   4.502  0.7478 -0.3924 -0.9881
  252MOL    C3930661   4.659   2.744   4.381 -0.2692 -0.3087 -0.1128
  252MOL    H4030662   4.589   2.903   4.509  0.1190 -0.3370 -0.1368
  252MOL    H4130663   4.586   2.749   4.599 -1.3788  1.3575  0.2293
  252MOL    H4230664   4.638   2.794   4.287 -2.5342 -0.4010  0.3155
  252MOL    H4330665   4.764   2.760   4.402 -0.0454  1.2385 -2.2596
  252MOL    C4430666   4.631   2.592   4.362  0.2068 -0.0653 -0.9293
  252MOL    C4530667   4.721   2.518   4.255  0.5616 -0.4857  0.2825
  252MOL    H4630668   4.626   2.539   4.458 -1.2390  0.4749 -0.6844
  252MOL    H4730669   4.527   2.574   4.334  0.3782  0.8078 -2.1412
  252MOL    H4830670   4.727   2.570   4.160 -1.1111 -0.4731  0.1753
  252MOL    H4930671   4.823   2.523   4.295  1.8177 -1.1889 -2.7226
  252MOL    C5030672   4.673   2.378   4.218 -0.2377 -0.2931  0.0887
  252MOL    C5130673   4.710   2.271   4.326  0.2351 -0.9500 -0.5755
  252MOL    H5230674   4.566   2.373   4.199 -0.4172  2.3037  0.2856
  252MOL    H5330675   4.731   2.353   4.130  4.9885  1.1750  2.9000
  252MOL    H5430676   4.813   2.281   4.361  0.5612  0.7248 -1.9705
  252MOL    H5530677   4.640   2.292   4.406  1.2798  1.8039 -0.3342
  252MOL    C5630678   4.705   2.130   4.276  0.1834 -0.2015  0.8576
  252MOL    C5730679   4.790   2.022   4.345 -0.0533 -0.1342  0.2612
  252MOL    H5830680   4.599   2.103   4.274 -0.2938  1.5567  1.3876
  252MOL    H5930681   4.735   2.130   4.171 -1.3295  0.2851  0.3969
  252MOL    H6030682   4.897   2.042   4.332  0.1468 -2.0505 -1.3754
  252MOL    H6130683   4.751   2.013   4.446 -0.0308  0.2047  0.3026
  252MOL    C6230684   4.775   1.883   4.282  0.3064  0.0115 -0.0239
  252MOL    C6330685   4.839   1.780   4.372 -0.0517 -0.2239 -0.7365
  252MOL    H6430686   4.673   1.847   4.272  0.1785  0.3708 -0.0196
  252MOL    H6530687   4.818   1.897   4.183 -0.7566 -1.7734 -0.7472
  252MOL    H6630688   4.944   1.810   4.382  0.1694 -0.5028 -2.0450
  252MOL    H6730689   4.780   1.786   4.463  0.4311  1.5318 -0.5169
  252MOL    C6830690   4.845   1.635   4.313  0.1173 -0.6903 -0.7502
  252MOL    C6930691   4.935   1.539   4.392 -0.5666  0.5399  0.6547
  252MOL    H7030692   4.746   1.591   4.322 -0.8125  1.5892  0.5446
  252MOL    H7130693   4.876   1.635   4.208 -0.4953 -3.3254 -0.9669
  252MOL    H7230694   4.949   1.443   4.342 -1.1591 -0.9102  3.1849
  252MOL    H7330695   5.038   1.574   4.392 -0.0302 -0.8854  3.1213
  252MOL    C7430696   4.889   1.507   4.539 -0.4178 -0.4640  0.0030
  252MOL    C7530697   4.758   1.434   4.561 -0.2696  0.1025 -0.2246
  252MOL    H7630698   4.970   1.452   4.586 -1.3889 -0.4509  1.7517
  252MOL    H7730699   4.896   1.599   4.597 -1.0257  0.3010 -1.1250
  252MOL    H7830700   4.683   1.486   4.501 -0.0038 -1.0863 -1.6243
  252MOL    H7930701   4.767   1.331   4.527  1.5793  0.0559  0.3604
  252MOL    C8030702   4.709   1.423   4.701 -0.1398 -0.0207  0.2762
  252MOL    C8130703   4.568   1.348   4.711  0.3998 -0.1612  0.3064
  252MOL    H8230704   4.771   1.359   4.764 -1.7124 -2.5901 -0.7421
  252MOL    H8330705   4.704   1.517   4.757  2.1496 -0.3667  1.1256
  252MOL    H8430706   4.503   1.409   4.648  0.0008  0.2681  1.1285
  252MOL    H8530707   4.566   1.246   4.671 -1.2427 -0.7786  1.9205
  252MOL    C8630708   4.506   1.345   4.848  0.0996 -0.5122 -0.5434
  252MOL    C8730709   4.436   1.473   4.888  0.6204 -0.1469  0.5679
  252MOL    H8830710   4.439   1.260   4.854  1.3903 -1.5887 -1.0787
  252MOL    H8930711   4.572   1.332   4.934  0.1312  1.8761 -0.1670
  252MOL    H9030712   4.511   1.551   4.894 -0.3970  1.0851 -1.8324
  252MOL    H9130713   4.374   1.508   4.805 -0.4325 -0.0372  1.3877
  252MOL    C9230714   4.366   1.482   5.024 -0.0155  0.2012 -0.3494
  252MOL    C9330715   4.292   1.618   5.037 -0.8298 -0.2995  0.8853
  252MOL    H9430716   4.299   1.398   5.038  1.4539 -0.9559 -0.0728
  252MOL    H9530717   4.434   1.488   5.109  0.2595 -0.3673 -0.5295
  252MOL    H9630718   4.245   1.637   4.941  1.3256 -2.7674 -0.7327
  252MOL    H9730719   4.209   1.607   5.107 -3.1017  2.1428 -1.2970
  252MOL    C9830720   4.379   1.733   5.089  0.6261 -0.1464  0.4815
  252MOL    C9930721   4.305   1.858   5.136 -0.3501  0.4152  0.4227
  252MOL   H10030722   4.438   1.712   5.178 -0.2129  3.8052  2.0371
  252MOL   H10130723   4.448   1.764   5.010 -2.5703  1.2729 -1.8248
  252MOL   H10230724   4.230   1.830   5.210 -1.0259 -3.0312 -1.4355
  252MOL   H10330725   4.371   1.921   5.196  2.0648 -1.4914 -0.1336
  252MOL   C10430726   4.235   1.929   5.028  0.0269 -0.3081 -0.3222
  252MOL   C10530727   4.216   2.080   5.057  0.8090  0.8102  0.5529
  252MOL   H10630728   4.299   1.918   4.941 -1.8768 -1.3585 -1.6157
  252MOL   H10730729   4.139   1.882   5.008  0.2014 -0.4372 -0.8543
  252MOL   H10830730   4.144   2.099   5.136 -0.4322  1.1689 -0.6421
  252MOL   H10930731   4.312   2.120   5.087  1.0112 -1.0403  2.4732
  252MOL   C11030732   4.174   2.158   4.935 -0.8846  0.1054 -0.4788
  252MOL   C11130733   4.108   2.292   4.979 -0.9113 -0.4299  1.0239
  252MOL   H11230734   4.259   2.179   4.869 -0.7885 -0.2169 -0.4553
  252MOL   H11330735   4.112   2.107   4.861 -0.1171 -0.4592 -0.7375
  252MOL   H11430736   4.009   2.281   5.023 -0.6785 -1.1022  1.3908
  252MOL   H11530737   4.171   2.347   5.049  0.2190  0.7881 -0.8811
  252MOL   C11630738   4.100   2.396   4.865  0.0194  0.4979 -0.7918
  252MOL   C11730739   4.053   2.532   4.927 -0.2399  0.3720  0.2737
  252MOL   H11830740   4.199   2.416   4.823  0.0351 -0.8282 -1.4233
  252MOL   H11930741   4.032   2.373   4.784 -0.4457 -1.6168  0.1598
  252MOL   H12030742   3.946   2.523   4.946 -0.0836 -1.8321  0.2725
  252MOL   H12130743   4.111   2.566   5.013  0.3367  2.8666 -1.0571
  252MOL   H12230744   4.074   2.608   4.852  0.7562 -1.1931 -1.0873
  253MOL     C130745   4.883   2.714   1.587  0.2889  0.1714 -0.2555
  253MOL     C230746   4.874   2.803   1.716  0.1754 -0.0571 -0.0761
  253MOL     H330747   4.978   2.661   1.587  0.2742  0.1019 -2.1160
  253MOL     H430748   4.875   2.777   1.498  1.9553 -1.1109 -1.3451
  253MOL     H530749   4.908   2.744   1.801  1.7559  2.1374  0.8633
  253MOL     H630750   4.950   2.881   1.714  0.7054 -0.5593  0.2164
  253MOL     H730751   4.802   2.643   1.576 -0.4410  1.2063 -1.7971
  253MOL     C830752   4.737   2.860   1.736  0.8071  0.0777 -0.2805
  253MOL     C930753   4.626   2.766   1.782  0.6307 -0.3883 -0.1005
  253MOL    H1030754   4.754   2.941   1.807 -0.1488 -0.6475  0.8027
  253MOL    H1130755   4.696   2.900   1.644 -2.1113  0.8117  1.2705
  253MOL    H1230756   4.603   2.685   1.712  0.9487  0.0242 -0.6774
  253MOL    H1330757   4.660   2.700   1.861  0.9597  1.4136  1.2931
  253MOL    C1430758   4.495   2.832   1.836 -0.3952  0.1721  0.2957
  253MOL    C1530759   4.390   2.718   1.856 -0.2351 -0.1061 -0.6871
  253MOL    H1630760   4.528   2.885   1.925  0.8970  1.5398 -0.9790
  253MOL    H1730761   4.453   2.911   1.773 -0.1196  1.2985  1.5106
  253MOL    H1830762   4.377   2.668   1.761  1.7568  0.5029 -1.3112
  253MOL    H1930763   4.436   2.656   1.933  1.2158  0.7501 -0.8315
  253MOL    C2030764   4.252   2.775   1.896  0.0193  0.2340  0.6433
  253MOL    C2130765   4.155   2.666   1.956 -0.1401 -0.3765  0.4958
  253MOL    H2230766   4.270   2.858   1.965 -0.6520  1.3586 -0.5196
  253MOL    H2330767   4.200   2.816   1.810  0.9674  0.8823  0.3820
  253MOL    H2430768   4.129   2.590   1.882  1.6929  0.1800 -0.7443
  253MOL    H2530769   4.214   2.616   2.033  1.3112  1.3180  0.5081
  253MOL    C2630770   4.026   2.732   2.017  0.5086 -0.8324  0.1267
  253MOL    C2730771   3.919   2.637   2.068 -0.9147  0.3479  0.3586
  253MOL    H2830772   4.055   2.811   2.086 -0.9250  0.8482 -1.1517
  253MOL    H2930773   3.983   2.793   1.937  1.6876  1.2055  1.0159
  253MOL    H3030774   3.879   2.589   1.979 -2.6319  1.8214  0.3080
  253MOL    H3130775   3.967   2.562   2.132 -0.7806 -0.1833 -0.3623
  253MOL    C3230776   3.796   2.716   2.116 -0.0275 -0.3760 -0.1245
  253MOL    C3330777   3.684   2.622   2.151  0.6982 -0.2706  0.3424
  253MOL    H3430778   3.818   2.785   2.197  0.2923  1.5061 -1.7768
  253MOL    H3530779   3.758   2.783   2.039 -0.6988  1.2688  1.6101
  253MOL    H3630780   3.657   2.557   2.068  0.9513  1.3015 -0.9964
  253MOL    H3730781   3.719   2.560   2.233 -1.5339 -0.7606  0.9679
  253MOL    C3830782   3.546   2.691   2.192 -0.5602  0.0801 -0.6509
  253MOL    C3930783   3.443   2.587   2.231 -0.2321 -0.1073  0.0530
  253MOL    H4030784   3.571   2.745   2.284  3.3830 -0.5612 -1.2435
  253MOL    H4130785   3.514   2.767   2.121 -0.0111  0.6173 -0.3299
  253MOL    H4230786   3.445   2.521   2.145 -0.6422 -2.6006  1.8884
  253MOL    H4330787   3.485   2.537   2.318  1.9928  2.8784  0.7721
  253MOL    C4430788   3.301   2.645   2.254 -0.1818 -0.6441 -0.6054
  253MOL    C4530789   3.198   2.539   2.290  0.3949 -0.2254 -0.0303
  253MOL    H4630790   3.301   2.719   2.334  0.1961 -0.3011 -0.9181
  253MOL    H4730791   3.262   2.706   2.173 -1.8361  1.5705  1.7914
  253MOL    H4830792   3.197   2.465   2.210  0.2624 -1.5304  1.1760
  253MOL    H4930793   3.234   2.476   2.372 -0.7449 -0.5974  0.1842
  253MOL    C5030794   3.056   2.594   2.316 -0.3897 -0.1032 -0.1206
  253MOL    C5130795   2.943   2.494   2.352 -0.2311  0.2632 -0.1769
  253MOL    H5230796   3.054   2.669   2.396  0.1110  0.0783 -0.2731
  253MOL    H5330797   3.037   2.639   2.219  1.3057  1.3370  0.1779
  253MOL    H5430798   2.947   2.410   2.283  0.4414 -0.2775  0.5163
  253MOL    H5530799   2.966   2.460   2.453 -1.2412 -0.0454 -0.0472
  253MOL    C5630800   2.804   2.561   2.369 -0.1669  0.3520  0.3683
  253MOL    C5730801   2.694   2.470   2.426 -0.3649  0.4231 -0.3367
  253MOL    H5830802   2.803   2.653   2.427 -1.2158 -0.4760  1.7043
  253MOL    H5930803   2.779   2.595   2.268  0.3654 -1.6892 -0.4869
  253MOL    H6030804   2.670   2.396   2.351  1.1084 -0.9729  0.5334
  253MOL    H6130805   2.742   2.415   2.507 -1.0341 -1.2401 -1.0641
  253MOL    C6230806   2.569   2.541   2.477  0.3270  0.7943 -0.0244
  253MOL    C6330807   2.473   2.438   2.552  0.0574 -0.5614  0.4802
  253MOL    H6430808   2.596   2.625   2.541 -0.6631 -0.3268  1.8823
  253MOL    H6530809   2.520   2.582   2.388  0.9290  0.6700 -0.4168
  253MOL    H6630810   2.491   2.344   2.499  0.5484  0.6915 -1.6557
  253MOL    H6730811   2.517   2.432   2.652 -1.6130  1.0630  1.3379
  253MOL    C6830812   2.326   2.490   2.540  0.4596 -0.1415 -0.2362
  253MOL    C6930813   2.301   2.620   2.612 -0.1942  0.2034 -0.4343
  253MOL    H7030814   2.310   2.496   2.432  2.2640 -1.6975 -0.6293
  253MOL    H7130815   2.257   2.416   2.581 -0.2527  1.0343  0.7342
  253MOL    H7230816   2.370   2.695   2.573 -0.0275 -0.5617 -1.6218
  253MOL    H7330817   2.198   2.648   2.587 -0.5651 -1.6081 -1.0019
  253MOL    C7430818   2.305   2.623   2.766 -1.1039 -0.3396 -0.1820
  253MOL    C7530819   2.194   2.534   2.836  0.5772 -0.9115 -0.2723
  253MOL    H7630820   2.406   2.601   2.800 -0.8055  1.3770  0.1059
  253MOL    H7730821   2.302   2.721   2.814 -0.8422  0.0368 -0.9378
  253MOL    H7830822   2.097   2.555   2.792 -0.3176 -0.2352  1.9594
  253MOL    H7930823   2.221   2.439   2.790  0.9640  0.1027 -2.1939
  253MOL    C8030824   2.191   2.539   2.990  0.4713 -0.1872 -0.3307
  253MOL    C8130825   2.302   2.454   3.049 -0.0916 -0.2967  0.3043
  253MOL    H8230826   2.198   2.639   3.033  1.0032 -0.3500 -0.0295
  253MOL    H8330827   2.097   2.501   3.030  0.1344  0.2929 -0.6600
  253MOL    H8430828   2.274   2.349   3.043 -0.1727 -0.1587 -2.1405
  253MOL    H8530829   2.378   2.451   2.971 -0.1511 -3.9821  0.3392
  253MOL    C8630830   2.352   2.510   3.178 -0.3856  0.7013 -0.6609
  253MOL    C8730831   2.455   2.420   3.251 -0.3834  0.0950 -0.0864
  253MOL    H8830832   2.391   2.610   3.158  1.4971  0.0259 -0.4897
  253MOL    H8930833   2.269   2.528   3.247  0.4204  3.6393 -0.3888
  253MOL    H9030834   2.401   2.326   3.259  1.1289 -0.8632 -0.8899
  253MOL    H9130835   2.536   2.404   3.179  0.3025  0.9587  0.4752
  253MOL    C9230836   2.513   2.493   3.374 -0.7401  0.1766  0.4763
  253MOL    C9330837   2.605   2.404   3.455 -0.4742  0.4697  0.1619
  253MOL    H9430838   2.565   2.579   3.330  0.0621 -0.8251 -0.5777
  253MOL    H9530839   2.435   2.522   3.444  0.8450  2.3206  1.4116
  253MOL    H9630840   2.664   2.345   3.385 -0.2044 -0.7443  1.4107
  253MOL    H9730841   2.670   2.480   3.500  1.2706  0.3208 -1.9962
  253MOL    C9830842   2.530   2.315   3.551  0.0549  0.5815 -1.5108
  253MOL    C9930843   2.632   2.212   3.613 -0.2388 -0.1724 -0.3687
  253MOL   H10030844   2.489   2.376   3.631  0.5339 -1.0066 -0.0252
  253MOL   H10130845   2.442   2.271   3.502 -1.8242  1.5647  0.8760
  253MOL   H10230846   2.675   2.147   3.537 -2.4892 -0.9548 -1.0102
  253MOL   H10330847   2.725   2.263   3.640  0.0236 -0.0769 -1.4531
  253MOL   C10430848   2.568   2.129   3.723 -0.3417  0.1965 -0.3814
  253MOL   C10530849   2.669   2.043   3.799  0.4744  0.0881 -0.4496
  253MOL   H10630850   2.513   2.195   3.790 -0.3301  0.5064 -0.6754
  253MOL   H10730851   2.492   2.060   3.687 -0.7175  0.6665 -0.4940
  253MOL   H10830852   2.707   1.956   3.745  1.0673 -0.2788  0.5267
  253MOL   H10930853   2.763   2.098   3.805 -0.5683  2.0856 -2.1348
  253MOL   C11030854   2.621   1.982   3.938  0.5982 -0.6410 -0.4945
  253MOL   C11130855   2.587   2.085   4.050  0.2784 -0.3719  0.1330
  253MOL   H11230856   2.529   1.926   3.925 -1.2071  1.6232  1.8759
  253MOL   H11330857   2.703   1.918   3.973  0.6255  0.1367  0.9078
  253MOL   H11430858   2.679   2.143   4.064  0.4383 -1.1391  2.6286
  253MOL   H11530859   2.513   2.157   4.016 -0.1119  0.2134  2.1275
  253MOL   C11630860   2.538   2.014   4.177 -0.6094  0.6124  0.3525
  253MOL   C11730861   2.536   2.099   4.303 -0.0214 -0.4063 -0.1198
  253MOL   H11830862   2.436   1.979   4.160 -0.1066  0.0315 -1.5233
  253MOL   H11930863   2.603   1.929   4.200 -2.8716 -1.6250 -1.2494
  253MOL   H12030864   2.626   2.119   4.360 -0.8997 -0.4242  1.2867
  253MOL   H12130865   2.480   2.191   4.288 -0.0470 -0.3633  0.2403
  253MOL   H12230866   2.476   2.061   4.385 -1.9508  1.2227 -0.7357
  254MOL     C130867   7.665   6.900   1.365  0.3262  0.2509  0.3369
  254MOL     C230868   7.514   6.905   1.339  0.0681 -0.1290  0.6637
  254MOL     H330869   0.006   7.004   1.362  0.1852  0.2957 -4.0903
  254MOL     H430870   0.031   6.848   1.288  0.9726  1.5077 -0.0524
  254MOL     H530871   7.506   6.947   1.239 -0.0077  1.7280  1.4323
  254MOL     H630872   7.460   6.811   1.351  0.7783 -0.3069  2.7111
  254MOL     H730873   7.683   6.850   1.460 -0.5880 -0.0541  0.3550
  254MOL     C830874   7.448   7.003   1.439  0.4938 -0.0573 -0.2596
  254MOL     C930875   7.458   6.979   1.592  0.1831  0.4448  0.7192
  254MOL    H1030876   7.482   7.106   1.422  1.5083 -0.5261 -1.1336
  254MOL    H1130877   7.341   6.994   1.421  0.1118  0.3469  1.6567
  254MOL    H1230878   7.418   6.879   1.611  1.3273  0.1571  1.6739
  254MOL    H1330879   7.565   6.984   1.615  0.1621 -0.0789  0.9484
  254MOL    C1430880   7.397   7.087   1.668  0.6728  0.2730  0.4772
  254MOL    C1530881   7.403   7.065   1.823  0.6254 -0.5712 -0.2296
  254MOL    H1630882   7.451   7.176   1.637 -0.3194  0.3621 -1.0179
  254MOL    H1730883   7.293   7.102   1.637  0.8946  0.3784 -0.2214
  254MOL    H1830884   7.340   6.985   1.863  1.8572 -0.7701  1.3614
  254MOL    H1930885   7.495   7.009   1.840  1.7744  0.8034 -1.7840
  254MOL    C2030886   7.401   7.195   1.915 -0.6608 -0.1357 -0.3413
  254MOL    C2130887   7.414   7.167   2.068  0.0580  0.1200  0.0465
  254MOL    H2230888   7.481   7.266   1.896  1.5095 -2.6018 -0.7056
  254MOL    H2330889   7.315   7.259   1.894 -2.6529 -3.2136 -1.9871
  254MOL    H2430890   7.322   7.119   2.101  0.2837 -1.2718 -1.2659
  254MOL    H2530891   7.503   7.111   2.097  0.7596  1.1653 -0.0510
  254MOL    C2630892   7.415   7.296   2.149 -0.4710  0.4535  0.0887
  254MOL    C2730893   7.436   7.263   2.297 -0.2296 -0.0069 -0.5139
  254MOL    H2830894   7.489   7.367   2.114  0.0297 -0.1839 -0.1547
  254MOL    H2930895   7.319   7.347   2.154 -1.0163 -0.4761 -0.6639
  254MOL    H3030896   7.375   7.183   2.336  2.0773 -1.2132  0.6813
  254MOL    H3130897   7.537   7.222   2.303 -0.5364 -0.4068  2.5362
  254MOL    C3230898   7.434   7.389   2.381 -0.1372 -0.0367 -0.1454
  254MOL    C3330899   7.478   7.371   2.523  0.3500  0.6241  0.0943
  254MOL    H3430900   7.509   7.454   2.335  0.3418  0.8535  1.8443
  254MOL    H3530901   7.338   7.437   2.364  0.0584  1.3257  2.3496
  254MOL    H3630902   7.430   7.286   2.571  0.4435 -0.5812 -1.8839
  254MOL    H3730903   7.585   7.351   2.514  0.1853  0.4542 -1.5441
  254MOL    C3830904   7.459   7.487   2.619 -0.2380  0.1601  0.4062
  254MOL    C3930905   7.459   7.456   2.767  0.2383 -0.8576  0.4771
  254MOL    H4030906   7.534   7.564   2.604  0.1110 -0.0550  1.0407
  254MOL    H4130907   7.359   7.523   2.594 -0.3547 -0.4155  0.0407
  254MOL    H4230908   7.392   7.376   2.797  0.6409 -0.9996  0.9942
  254MOL    H4330909   7.555   7.416   2.798 -0.0675 -2.3455 -0.4575
  254MOL    C4430910   7.406   7.576   2.846 -0.2347  0.4171 -0.0911
  254MOL    C4530911   7.370   7.545   2.994  0.0993 -0.0867 -0.0128
  254MOL    H4630912   7.471   7.663   2.845  2.3903 -1.4724 -1.6860
  254MOL    H4730913   7.309   7.602   2.804  0.4313  0.6759 -1.4896
  254MOL    H4830914   7.318   7.632   3.033 -1.3648 -1.0018  0.1389
  254MOL    H4930915   7.295   7.465   3.001 -1.5180  1.3329 -0.9122
  254MOL    C5030916   7.490   7.502   3.085 -0.1955  0.5765  0.0686
  254MOL    C5130917   7.591   7.615   3.115  0.0639 -0.2661 -0.3494
  254MOL    H5230918   7.449   7.485   3.185 -2.2906  0.1897 -0.8263
  254MOL    H5330919   7.545   7.413   3.053  0.1336  0.4563  0.9699
  254MOL    H5430920   7.691   7.573   3.123  0.3119 -0.1821 -2.6238
  254MOL    H5530921   7.592   7.683   3.030  0.7054  1.1563  0.7849
  254MOL    C5630922   7.548   0.002   3.232  0.3713  0.3101  0.0875
  254MOL    C5730923   7.662   0.105   3.270  0.9858 -0.5807  0.5375
  254MOL    H5830924   7.452   0.051   3.218  0.7482  1.0492  0.0306
  254MOL    H5930925   7.546   7.627   3.317 -2.9621 -1.7340 -1.5088
  254MOL    H6030926   0.068   0.058   3.271  0.3374 -2.1200 -2.4292
  254MOL    H6130927   7.670   0.183   3.194  0.2188  0.3243  1.3630
  254MOL    C6230928   7.629   0.178   3.408  0.3816 -0.1387  0.0152
  254MOL    C6330929   7.499   0.253   3.419 -0.0179 -0.1378  0.5658
  254MOL    H6430930   7.630   0.096   3.479  2.8313  1.0238  1.3637
  254MOL    H6530931   0.021   0.239   3.440 -1.0134  0.2777  3.0235
  254MOL    H6630932   7.475   0.334   3.349  0.5138  0.3942  0.9932
  254MOL    H6730933   7.421   0.182   3.391  1.2627 -1.2557 -0.2177
  254MOL    C6830934   7.457   0.315   3.556  0.3628 -0.7584 -0.3755
  254MOL    C6930935   7.320   0.382   3.562 -0.1480 -0.2003 -0.2968
  254MOL    H7030936   7.477   0.246   3.638  1.3380  2.4518  2.2189
  254MOL    H7130937   7.522   0.398   3.584 -1.2792 -0.1337  1.7123
  254MOL    H7230938   7.319   0.448   3.475 -2.3096 -1.5684 -1.3466
  254MOL    H7330939   7.234   0.316   3.548 -0.1081 -0.2798 -0.1744
  254MOL    C7430940   7.305   0.463   3.694 -0.0547 -0.1512 -0.4198
  254MOL    C7530941   7.165   0.521   3.718 -0.4050 -0.3935 -0.3596
  254MOL    H7630942   7.323   0.402   3.783 -1.6852 -4.8066 -3.0950
  254MOL    H7730943   7.370   0.551   3.694  0.3002 -0.3550  2.1529
  254MOL    H7830944   7.090   0.442   3.708 -0.0487 -0.6774 -0.8163
  254MOL    H7930945   7.144   0.559   3.818 -3.0920  2.2383 -1.8103
  254MOL    C8030946   7.134   0.626   3.600  0.4951 -0.1325 -0.5642
  254MOL    C8130947   6.992   0.677   3.608  0.8058  0.1798 -0.4902
  254MOL    H8230948   7.212   0.702   3.599  1.1620 -0.7905  0.7415
  254MOL    H8330949   7.141   0.576   3.503 -0.8784  1.1954 -1.3535
  254MOL    H8430950   6.921   0.599   3.581 -0.6070  0.9367  0.9497
  254MOL    H8530951   6.963   0.695   3.712  1.0605  1.2962 -0.6098
  254MOL    C8630952   6.973   0.800   3.518  0.9393 -0.0441 -0.3370
  254MOL    C8730953   7.044   0.807   3.381  0.8432 -0.2901  0.2944
  254MOL    H8830954   6.869   0.829   3.503  0.3935 -2.5574 -1.6319
  254MOL    H8930955   6.999   0.884   3.582 -0.1019 -0.0494  0.1020
  254MOL    H9030956   7.150   0.795   3.406  1.1897  1.1920 -0.4463
  254MOL    H9130957   7.023   0.725   3.313  2.0948 -0.1730 -0.2407
  254MOL    C9230958   7.029   0.948   3.311  0.3363 -0.5449  0.2435
  254MOL    C9330959   6.890   0.970   3.245  0.3882  0.9920 -0.3704
  254MOL    H9430960   7.050   1.026   3.383  0.1784 -0.8067  0.5740
  254MOL    H9530961   7.097   0.952   3.225  1.2013  1.8020  0.9989
  254MOL    H9630962   6.882   0.881   3.182 -2.0162  0.1623  1.0487
  254MOL    H9730963   6.818   0.969   3.327  1.2549  0.9564  0.4127
  254MOL    C9830964   6.875   1.092   3.156 -0.0692 -0.1324 -0.3801
  254MOL    C9930965   6.867   1.224   3.239 -0.1272 -1.0673 -0.0647
  254MOL   H10030966   6.959   1.099   3.087  1.3824  1.2739  1.4627
  254MOL   H10130967   6.782   1.075   3.103 -0.3582 -1.9081  0.6514
  254MOL   H10230968   6.770   1.228   3.289 -0.0334  0.3288  0.0015
  254MOL   H10330969   6.937   1.240   3.321  0.4289  0.8098 -0.8981
  254MOL   C10430970   6.880   1.349   3.149 -0.7154 -0.4438 -0.4178
  254MOL   C10530971   6.902   1.479   3.229  0.4951 -0.6100 -0.0396
  254MOL   H10630972   6.965   1.339   3.081 -0.0288  1.8594  0.0525
  254MOL   H10730973   6.792   1.354   3.085  0.5451 -1.7776 -2.3151
  254MOL   H10830974   6.924   1.466   3.335 -0.3798  2.1064  0.5286
  254MOL   H10930975   6.986   1.526   3.178 -1.1235  0.2106 -2.0287
  254MOL   C11030976   6.784   1.570   3.236 -0.7354 -0.0653 -0.9284
  254MOL   C11130977   6.805   1.719   3.266  0.4553  0.1651  0.1823
  254MOL   H11230978   6.737   1.568   3.138 -0.7681 -2.5261 -0.8803
  254MOL   H11330979   6.714   1.528   3.308  0.4760  2.7808  2.0345
  254MOL   H11430980   6.849   1.727   3.365  0.8103  0.4407  0.0046
  254MOL   H11530981   6.873   1.763   3.193  1.2450  0.9212  1.3552
  254MOL   C11630982   6.669   1.788   3.248  0.1747  0.0449  0.2924
  254MOL   C11730983   6.671   1.934   3.296  0.5112 -0.8731 -0.6147
  254MOL   H11830984   6.639   1.783   3.143 -0.6439 -1.0842  0.5632
  254MOL   H11930985   6.590   1.741   3.307 -1.6235  2.3289 -0.2062
  254MOL   H12030986   6.719   2.005   3.229 -0.4919  0.5590  0.1528
  254MOL   H12130987   6.569   1.968   3.314  0.7853  0.7075 -1.8688
  254MOL   H12230988   6.733   1.951   3.384 -0.9989  1.2396  0.0807
  255MOL     C130989   6.979   1.617   7.382 -0.2779 -0.0665  0.2321
  255MOL     C230990   7.064   1.524   7.292 -0.1989 -0.0413 -0.3257
  255MOL     H330991   6.891   1.648   7.324  0.5006  0.4723 -0.6845
  255MOL     H430992   7.027   1.710   7.415 -0.7001  0.9972 -2.0357
  255MOL     H530993   7.168   1.527   7.322 -0.5675 -0.5394  1.0483
  255MOL     H630994   7.037   1.421   7.317 -1.0287  1.1087  3.8828
  255MOL     H730995   6.931   1.565   7.465  0.0205  1.0230  1.0978
  255MOL     C830996   7.047   1.554   7.137  0.1618  0.2475  0.4412
  255MOL     C930997   7.127   1.443   7.061 -0.5017  0.6627  0.3746
  255MOL    H1030998   6.942   1.573   7.110  0.4314  0.6539 -0.3508
  255MOL    H1130999   7.095   1.646   7.103  0.3440 -0.5320 -1.5100
  255MOL    H1231000   7.226   1.438   7.105  0.0294 -1.6579 -0.9828
  255MOL    H1331001   7.090   1.341   7.073  0.3239  0.3503  0.2641
  255MOL    C1431002   7.156   1.478   6.918  0.6852  0.5201 -0.2458
  255MOL    C1531003   7.192   1.352   6.831 -0.8947  0.1501  0.3117
  255MOL    H1631004   7.072   1.538   6.883 -0.1187 -0.5548 -0.2188
  255MOL    H1731005   7.238   1.549   6.924 -0.7441  2.0653  1.3793
  255MOL    H1831006   7.283   1.305   6.868 -0.9246  0.1638  0.4040
  255MOL    H1931007   7.114   1.277   6.847 -1.6149  0.6236 -0.9696
  255MOL    C2031008   7.217   1.373   6.681  0.2079  0.2029  0.3600
  255MOL    C2131009   7.348   1.450   6.649  0.5856 -0.3754  0.4785
  255MOL    H2231010   7.236   1.271   6.647 -1.5903 -0.5151  1.3823
  255MOL    H2331011   7.126   1.398   6.626  0.9524 -0.4092 -1.1912
  255MOL    H2431012   7.319   1.551   6.678  3.0536  0.4048  0.3383
  255MOL    H2531013   7.440   1.426   6.703  0.6642  1.7512  1.3286
  255MOL    C2631014   7.382   1.456   6.502 -0.4563  0.4235  0.6711
  255MOL    C2731015   7.514   1.538   6.472  0.1011  0.1944 -0.3370
  255MOL    H2831016   7.380   1.358   6.453 -2.4003  0.0322  1.4506
  255MOL    H2931017   7.291   1.503   6.464 -0.7646 -0.8269 -0.1650
  255MOL    H3031018   7.496   1.634   6.521 -2.6040 -0.4355 -0.0257
  255MOL    H3131019   7.597   1.484   6.518 -0.1364  0.7817  0.8049
  255MOL    C3231020   7.553   1.556   6.325  0.1614 -0.8296  0.2539
  255MOL    C3331021   7.679   1.640   6.301 -0.7883 -0.0192  0.3018
  255MOL    H3431022   7.582   1.461   6.281  3.4378 -0.0559  0.5606
  255MOL    H3531023   7.460   1.594   6.286  1.3306  0.3482 -1.4358
  255MOL    H3631024   7.659   1.742   6.334 -1.2516 -0.6237  1.9254
  255MOL    H3731025   0.061   1.617   6.377 -1.0563  2.7794  1.4669
  255MOL    C3831026   0.050   1.625   6.155 -0.8270  0.3071  0.3714
  255MOL    C3931027   0.184   1.706   6.159  0.1862  0.4875 -1.0629
  255MOL    H4031028   0.061   1.521   6.122 -1.1874  1.3306 -3.1715
  255MOL    H4131029   7.681   1.671   6.079 -0.4873 -2.3136 -1.5712
  255MOL    H4231030   0.183   1.810   6.192  0.2903  0.3108 -0.5150
  255MOL    H4331031   0.247   1.654   6.230  2.6601  2.0188 -2.0885
  255MOL    C4431032   0.254   1.692   6.021  0.2499 -0.9838 -0.5373
  255MOL    C4531033   0.382   1.777   6.022 -0.0133  0.0677 -0.5104
  255MOL    H4631034   0.294   1.593   6.000 -0.8567 -1.6605  0.4789
  255MOL    H4731035   0.179   1.722   5.948 -2.1606  2.0906  2.9905
  255MOL    H4831036   0.364   1.880   6.054 -0.9255 -0.0918 -0.4887
  255MOL    H4931037   0.457   1.744   6.094  0.4155  1.0459 -0.5065
  255MOL    C5031038   0.455   1.784   5.892 -0.0251  0.3173 -0.2736
  255MOL    C5131039   0.596   1.850   5.894 -0.0754 -0.3084 -0.2324
  255MOL    H5231040   0.469   1.691   5.837  0.6955 -2.0105  3.6578
  255MOL    H5331041   0.385   1.830   5.822 -2.3353 -0.7279  1.2688
  255MOL    H5431042   0.597   1.947   5.943  0.8324  0.5656 -1.9529
  255MOL    H5531043   0.665   1.788   5.951  0.4715 -0.2047 -0.7727
  255MOL    C5631044   0.651   1.885   5.756 -0.0733 -0.1186  0.0972
  255MOL    C5731045   0.800   1.923   5.751  0.2129 -0.2653  0.1549
  255MOL    H5831046   0.632   1.806   5.683 -1.5440  0.9845 -0.7208
  255MOL    H5931047   0.594   1.971   5.722  1.1243  0.0491 -1.5271
  255MOL    H6031048   0.818   2.013   5.810 -0.2181 -0.6017  0.8019
  255MOL    H6131049   0.872   1.854   5.796 -0.7547 -0.8741  0.7984
  255MOL    C6231050   0.873   1.957   5.618  0.6446  0.0199 -0.5609
  255MOL    C6331051   1.009   2.019   5.634  0.5864 -0.8465  0.1851
  255MOL    H6431052   0.878   1.875   5.547  2.2936 -0.9639  0.6721
  255MOL    H6531053   0.815   2.039   5.575 -0.6030  0.5496  2.0210
  255MOL    H6631054   0.993   2.105   5.698 -0.0073 -0.2505 -0.7447
  255MOL    H6731055   1.070   1.944   5.684  1.1879  0.0027  0.7294
  255MOL    C6831056   1.075   2.063   5.508 -0.6949 -0.2092 -0.1931
  255MOL    C6931057   1.210   2.138   5.523  0.6199 -0.6642 -0.2169
  255MOL    H7031058   1.080   1.970   5.451  0.7265 -1.6376  2.1860
  255MOL    H7131059   1.008   2.125   5.448  0.5508  0.1967 -1.2018
  255MOL    H7231060   1.194   2.228   5.583  0.2019 -1.3389  0.6987
  255MOL    H7331061   1.278   2.082   5.588  0.0324 -1.1203  0.0136
  255MOL    C7431062   1.259   2.170   5.383 -0.1356 -0.1877  0.0118
  255MOL    C7531063   1.399   2.211   5.393 -0.4966  0.1140 -0.6252
  255MOL    H7631064   1.254   2.081   5.319  1.0705 -1.7215  1.9793
  255MOL    H7731065   1.189   2.245   5.346  1.6383  1.5111  0.0210
  255MOL    H7831066   1.419   2.287   5.469  0.6305  0.1194 -0.9149
  255MOL    H7931067   1.458   2.129   5.433 -0.5991  0.8008  0.9457
  255MOL    C8031068   1.443   2.265   5.257  0.2989  0.1344  0.1544
  255MOL    C8131069   1.584   2.331   5.260  0.1656 -0.0924 -0.1448
  255MOL    H8231070   1.443   2.186   5.181  0.6976  0.8011 -0.5443
  255MOL    H8331071   1.362   2.335   5.237  0.4252  0.1061 -0.5005
  255MOL    H8431072   1.592   2.419   5.325 -2.1248 -1.0335  1.5024
  255MOL    H8531073   1.651   2.253   5.295  0.6447 -0.5340 -2.0411
  255MOL    C8631074   1.631   2.368   5.123 -0.9144 -0.3864  0.4499
  255MOL    C8731075   1.787   2.388   5.116 -0.1277  0.1320 -0.3856
  255MOL    H8831076   1.599   2.300   5.044 -0.9476 -1.2274  1.1757
  255MOL    H8931077   1.579   2.460   5.098 -0.3344 -0.2082 -0.1504
  255MOL    H9031078   1.801   2.461   5.196 -0.2621 -0.7287  0.4376
  255MOL    H9131079   1.832   2.296   5.154 -1.2276 -0.9241 -1.5668
  255MOL    C9231080   1.838   2.435   4.974  0.6148 -0.5265 -0.5013
  255MOL    C9331081   1.984   2.500   4.976  0.2020  0.3996  0.1214
  255MOL    H9431082   1.822   2.359   4.898 -0.9748 -2.0918  1.3801
  255MOL    H9531083   1.767   2.513   4.945 -0.2202 -0.3063  2.0003
  255MOL    H9631084   1.976   2.584   5.045 -3.0071  0.2731 -0.0528
  255MOL    H9731085   2.043   2.431   5.036 -1.8729 -0.1012  1.6097
  255MOL    C9831086   2.052   2.534   4.844  0.0110  0.0446  0.1990
  255MOL    C9931087   2.200   2.559   4.854  0.7796 -0.5641  0.1751
  255MOL   H10031088   2.037   2.447   4.780  0.5271 -0.1930  0.4030
  255MOL   H10131089   2.000   2.616   4.793 -0.9882  0.0561  1.2089
  255MOL   H10231090   2.221   2.639   4.925 -0.4725 -2.0697  2.3023
  255MOL   H10331091   2.226   2.466   4.905 -0.9090 -1.3636 -0.3966
  255MOL   C10431092   2.269   2.570   4.719  0.4825  0.0950  0.1407
  255MOL   C10531093   2.417   2.593   4.730 -0.0893 -0.9961 -0.4389
  255MOL   H10631094   2.246   2.486   4.653 -1.7351  0.3650  0.5148
  255MOL   H10731095   2.230   2.659   4.669  1.3968  0.1220 -0.5301
  255MOL   H10831096   2.435   2.665   4.811 -1.3686  0.2564 -1.2477
  255MOL   H10931097   2.459   2.502   4.774 -0.7979 -1.1669 -0.1023
  255MOL   C11031098   2.495   2.658   4.608 -0.3580 -0.5307 -0.5359
  255MOL   C11131099   2.643   2.661   4.630  0.7266  0.1736 -0.4861
  255MOL   H11231100   2.483   2.605   4.514  4.5141  0.1555 -1.7010
  255MOL   H11331101   2.457   2.757   4.585  0.5254  0.0083  0.2942
  255MOL   H11431102   2.671   2.743   4.696 -0.4268  2.0661 -2.2907
  255MOL   H11531103   2.668   2.564   4.673 -0.2174  0.3154  0.4044
  255MOL   C11631104   2.719   2.678   4.500 -0.1043 -0.2573  0.0316
  255MOL   C11731105   2.872   2.669   4.511  0.3988 -0.2134  0.2875
  255MOL   H11831106   2.696   2.608   4.420  0.4252  1.4204 -1.6361
  255MOL   H11931107   2.675   2.762   4.445  0.4240  0.1054  0.1609
  255MOL   H12031108   2.924   2.761   4.540  2.0964 -0.9906 -0.2208
  255MOL   H12131109   2.903   2.588   4.576  1.0188 -0.8048 -0.7237
  255MOL   H12231110   2.922   2.660   4.414  1.0688  0.4233  0.5654
  256MOL     C131111   7.675   1.374   3.661 -0.4623  0.4098 -1.1666
  256MOL     C231112   0.011   1.301   3.784 -0.9802 -0.0115 -0.7846
  256MOL     H331113   0.029   1.472   3.656 -2.0589  1.2038 -0.5148
  256MOL     H431114   7.568   1.398   3.657 -0.5298  0.3505  0.1055
  256MOL     H531115   7.668   1.349   3.875  0.9981 -2.5884  1.4238
  256MOL     H631116   7.635   1.217   3.771 -1.4044  0.4725 -1.7255
  256MOL     H731117   0.002   1.324   3.566 -0.3799  1.4326 -1.6944
  256MOL     C831118   0.159   1.264   3.797  0.2785  0.1396  0.0179
  256MOL     C931119   0.182   1.177   3.926  0.1475 -0.2147  0.1499
  256MOL    H1031120   0.200   1.207   3.714 -0.1954 -1.3645  0.7938
  256MOL    H1131121   0.222   1.352   3.806 -1.4850  1.3040  1.1419
  256MOL    H1231122   0.139   1.216   4.018 -0.1673  0.0623 -0.1090
  256MOL    H1331123   0.118   1.090   3.918  0.3351 -0.3141 -0.2754
  256MOL    C1431124   0.339   1.146   3.946  0.6011 -0.4266 -0.8031
  256MOL    C1531125   0.379   1.106   4.089 -0.5759  0.1871 -0.0508
  256MOL    H1631126   0.369   1.073   3.871 -1.6763  0.7563 -2.9461
  256MOL    H1731127   0.390   1.240   3.926  0.0685  0.5297  2.1512
  256MOL    H1831128   0.486   1.115   4.107 -0.2899  0.3306 -1.8047
  256MOL    H1931129   0.330   1.166   4.166  1.2949 -0.9524  2.0901
  256MOL    C2031130   0.352   0.955   4.113 -0.0819 -0.4173  0.6746
  256MOL    C2131131   0.386   0.923   4.252 -0.4932 -0.2776  0.2750
  256MOL    H2231132   0.246   0.933   4.097  0.1188 -0.9014 -0.0130
  256MOL    H2331133   0.423   0.892   4.060  1.0238 -0.4326  2.1493
  256MOL    H2431134   0.495   0.927   4.253 -0.3230 -3.4379  1.5944
  256MOL    H2531135   0.338   1.005   4.305  1.1512  1.0465 -0.2596
  256MOL    C2631136   0.320   0.789   4.301  0.4796  0.4053  0.3029
  256MOL    C2731137   0.164   0.779   4.287  0.0534  0.2503 -0.0406
  256MOL    H2831138   0.370   0.703   4.256 -0.1775  0.2168 -0.0686
  256MOL    H2931139   0.345   0.771   4.405  2.0208  1.9992  0.2387
  256MOL    H3031140   0.132   0.768   4.183 -1.4984 -0.6777  0.5216
  256MOL    H3131141   0.120   0.691   4.333 -1.5507  0.5155 -1.0046
  256MOL    C3231142   0.091   0.900   4.348 -0.2641 -0.1319  0.8341
  256MOL    C3331143   7.629   0.892   4.331 -0.5013 -1.1060  0.2459
  256MOL    H3431144   0.103   0.916   4.455 -2.1878 -1.3374  1.2606
  256MOL    H3531145   0.120   0.994   4.301 -0.0581  0.3673  1.9296
  256MOL    H3631146   7.601   0.844   4.238  0.4739 -0.3856 -0.4227
  256MOL    H3731147   7.587   0.823   4.405 -2.7427 -0.2163 -0.1590
  256MOL    C3831148   7.555   1.035   4.330 -1.2281  0.6942  0.2111
  256MOL    C3931149   7.405   1.003   4.331  0.2102 -0.2546  0.1656
  256MOL    H4031150   7.584   1.095   4.416 -0.5875  0.3395  0.2435
  256MOL    H4131151   7.587   1.084   4.239  0.7796 -0.5255  0.2314
  256MOL    H4231152   7.383   0.964   4.232  0.0797  2.0534 -0.7474
  256MOL    H4331153   7.387   0.939   4.418 -1.0582  0.8098  0.6985
  256MOL    C4431154   7.321   1.132   4.357 -0.9934 -0.1114 -0.3342
  256MOL    C4531155   7.171   1.102   4.357 -0.8467  0.6579  0.4297
  256MOL    H4631156   7.349   1.172   4.455 -0.1690  0.1615 -0.6715
  256MOL    H4731157   7.351   1.211   4.287 -1.3092  0.8516  0.5994
  256MOL    H4831158   7.142   0.998   4.370  2.3396 -0.1181  1.7971
  256MOL    H4931159   7.132   1.159   4.441  2.3236  2.0021  1.0850
  256MOL    C5031160   7.093   1.161   4.237 -0.6247 -0.0935 -0.5165
  256MOL    C5131161   6.946   1.140   4.248  0.9240 -0.0305 -0.0650
  256MOL    H5231162   7.129   1.264   4.230 -1.0936  0.0451 -0.9425
  256MOL    H5331163   7.130   1.098   4.156 -0.7518 -0.5745 -0.2009
  256MOL    H5431164   6.913   1.045   4.205 -0.4102  0.7682 -0.8390
  256MOL    H5531165   6.918   1.129   4.353  3.5719  0.3866  0.7143
  256MOL    C5631166   6.862   1.256   4.180 -0.8512  0.0557  0.4550
  256MOL    C5731167   6.860   1.393   4.247  0.7753 -0.2234  0.0667
  256MOL    H5831168   6.906   1.261   4.080  0.6967  0.2463  1.1256
  256MOL    H5931169   6.762   1.216   4.163 -1.5430  2.3900 -1.2558
  256MOL    H6031170   6.834   1.376   4.352  1.4796  0.6079  0.3813
  256MOL    H6131171   6.955   1.445   4.239  1.8970 -2.0661  1.0028
  256MOL    C6231172   6.745   1.474   4.188  0.2037 -0.3987  0.0282
  256MOL    C6331173   6.742   1.622   4.233 -0.5084  0.2572  0.0195
  256MOL    H6431174   6.746   1.475   4.079 -2.7181 -1.7624 -0.0572
  256MOL    H6531175   6.653   1.417   4.201 -0.1520  0.0019 -0.7164
  256MOL    H6631176   6.842   1.658   4.210 -0.1801 -0.3326  0.4897
  256MOL    H6731177   6.666   1.678   4.179 -1.5866  0.0591  1.2881
  256MOL    C6831178   6.703   1.643   4.382  0.1981  0.3044  0.3657
  256MOL    C6931179   6.717   1.793   4.418 -1.2976 -0.2206 -0.1697
  256MOL    H7031180   6.603   1.607   4.406  0.2215  0.8560  1.3788
  256MOL    H7131181   6.778   1.589   4.439  1.1074 -0.2684 -1.3747
  256MOL    H7231182   6.813   1.837   4.392 -0.3546 -0.6797  2.3969
  256MOL    H7331183   6.641   1.855   4.370 -2.3236 -0.2337  1.4139
  256MOL    C7431184   6.694   1.811   4.568 -0.0723  0.4711 -0.1287
  256MOL    C7531185   6.695   1.949   4.621 -0.1701 -0.4028  0.3275
  256MOL    H7631186   6.595   1.777   4.598  0.8117 -0.0774  2.2038
  256MOL    H7731187   6.765   1.752   4.626 -2.4379 -1.9841  0.3605
  256MOL    H7831188   6.602   1.998   4.595  0.1115  0.1700  0.3888
  256MOL    H7931189   6.685   1.931   4.728 -0.7830  0.9132  0.4993
  256MOL    C8031190   6.818   2.038   4.590 -0.0418  0.0915  0.2434
  256MOL    C8131191   6.956   1.974   4.618  0.7746 -0.0892  0.1561
  256MOL    H8231192   6.813   2.076   4.488  0.6013  2.3740  1.0386
  256MOL    H8331193   6.813   2.132   4.644 -1.3619 -0.8018  1.7261
  256MOL    H8431194   6.948   1.872   4.581 -0.2681 -0.4960  1.4633
  256MOL    H8531195   7.038   2.017   4.561  2.3271 -0.5421  2.0329
  256MOL    C8631196   7.004   1.965   4.765  0.4786  0.0951 -0.1101
  256MOL    C8731197   7.147   1.924   4.768  0.2068  0.3174 -0.6598
  256MOL    H8831198   6.999   2.066   4.806  4.8192  0.2914  0.2249
  256MOL    H8931199   6.937   1.901   4.822  1.3279 -0.9864 -0.2912
  256MOL    H9031200   7.165   1.852   4.689  0.9118 -0.3952  0.1451
  256MOL    H9131201   7.204   2.016   4.753  1.5466 -0.6250 -1.3683
  256MOL    C9231202   7.202   1.866   4.899  0.0451  0.6232 -0.0248
  256MOL    C9331203   7.341   1.803   4.898  0.9217  0.3462 -0.0700
  256MOL    H9431204   7.184   1.929   4.986 -1.3701 -3.7552  3.0222
  256MOL    H9531205   7.138   1.782   4.928  3.0963 -1.4339  1.0368
  256MOL    H9631206   7.402   1.892   4.884 -1.2378  2.2738  2.4227
  256MOL    H9731207   7.353   1.770   5.001  3.7340 -0.2294 -0.5196
  256MOL    C9831208   7.357   1.685   4.797 -0.1455  0.2559  0.3378
  256MOL    C9931209   7.509   1.665   4.765 -0.7259 -0.4554 -0.3044
  256MOL   H10031210   7.307   1.592   4.824 -0.4963  0.8621  1.8132
  256MOL   H10131211   7.296   1.710   4.711  0.4029 -2.3037 -0.8325
  256MOL   H10231212   7.564   1.665   4.859 -1.2233  1.5037  0.0010
  256MOL   H10331213   7.516   1.569   4.714  0.5449 -0.6515  0.2312
  256MOL   C10431214   7.558   1.771   4.671 -0.4237 -0.2251 -0.0528
  256MOL   C10531215   0.023   1.760   4.665  0.8770 -0.4878 -0.1093
  256MOL   H10631216   7.513   1.766   4.572 -0.2879 -0.5706 -0.0954
  256MOL   H10731217   7.532   1.866   4.718  0.5504  0.5918 -1.1233
  256MOL   H10831218   0.058   1.777   4.767 -0.7073 -2.1785  0.7480
  256MOL   H10931219   0.067   1.661   4.653  0.5103 -0.9650  2.2407
  256MOL   C11031220   0.092   1.843   4.557  0.1927  0.1081 -0.3162
  256MOL   C11131221   0.249   1.833   4.530  0.5947  0.4040 -0.2611
  256MOL   H11231222   0.041   1.814   4.466 -2.1180 -0.2061  1.0521
  256MOL   H11331223   0.076   1.950   4.568  0.2579  0.1251 -0.3853
  256MOL   H11431224   0.283   1.833   4.634  0.2223  1.5734 -0.1368
  256MOL   H11531225   0.267   1.733   4.489  1.4393  1.0994 -1.6173
  256MOL   C11631226   0.305   1.943   4.440 -0.6199 -0.1114  0.4763
  256MOL   C11731227   0.448   1.976   4.456 -0.1924 -0.0295  0.0328
  256MOL   H11831228   0.268   1.914   4.342  0.7601  2.7789 -0.9533
  256MOL   H11931229   0.247   2.033   4.462 -0.1430  0.4370 -0.5117
  256MOL   H12031230   0.480   2.065   4.401  1.0049 -0.3998  0.1075
  256MOL   H12131231   0.486   1.983   4.558  0.8598  2.1764 -0.4757
  256MOL   H12231232   0.498   1.888   4.415  2.4996  0.3090  2.4278
  257MOL     C131233   5.495   3.308   1.803  0.0736  0.0649 -0.5613
  257MOL     C231234   5.468   3.403   1.682 -0.4698 -0.0465  0.3490
  257MOL     H331235   5.544   3.217   1.767  1.8767  1.3779 -1.4931
  257MOL     H431236   5.402   3.291   1.856  1.1863 -0.5537  1.2457
  257MOL     H531237   5.415   3.491   1.719  1.1073  0.9651  0.2780
  257MOL     H631238   5.564   3.442   1.648 -0.2441 -0.3789  0.6083
  257MOL     H731239   5.559   3.360   1.875 -0.5232  0.5784 -0.3965
  257MOL     C831240   5.413   3.334   1.561  0.6889 -0.0800  0.2001
  257MOL     C931241   5.404   3.422   1.435 -0.0365  0.0702  0.2194
  257MOL    H1031242   5.474   3.247   1.540 -0.3196 -1.4811  2.8375
  257MOL    H1131243   5.311   3.297   1.575  1.1223 -0.3656  2.8294
  257MOL    H1231244   5.375   3.524   1.461 -1.0503 -0.8267  2.7545
  257MOL    H1331245   5.497   3.392   1.387 -1.4257 -2.5157 -1.0306
  257MOL    C1431246   5.295   3.364   1.342 -0.3962 -0.5917 -0.0153
  257MOL    C1531247   5.280   3.438   1.210 -0.3340 -0.4964  0.0891
  257MOL    H1631248   5.323   3.263   1.311  1.0008 -0.0270 -0.6396
  257MOL    H1731249   5.200   3.350   1.394 -0.4292  0.4918  0.2241
  257MOL    H1831250   5.198   3.388   1.159  0.6950 -2.0254 -0.1103
  257MOL    H1931251   5.259   3.544   1.223  1.3008 -0.2083  0.4976
  257MOL    C2031252   5.411   3.432   1.129  0.8117 -0.4638  0.0085
  257MOL    C2131253   5.374   3.472   0.987  0.3442 -0.3256  0.1979
  257MOL    H2231254   5.488   3.495   1.173 -0.6127  0.1659  1.6527
  257MOL    H2331255   5.437   3.326   1.132  0.3864 -0.5662  0.0465
  257MOL    H2431256   5.295   3.410   0.943  0.8348 -1.2625  0.6043
  257MOL    H2531257   5.351   3.578   0.984 -0.4307 -0.4526  1.4518
  257MOL    C2631258   5.500   3.468   0.901  0.7192  0.1291 -0.0903
  257MOL    C2731259   5.477   3.522   0.751 -0.5528 -0.2054  0.5281
  257MOL    H2831260   5.579   3.526   0.949 -0.6679  0.0334  2.4226
  257MOL    H2931261   5.541   3.368   0.887  2.4401  0.8731 -0.4357
  257MOL    H3031262   5.445   3.626   0.767  0.1545  0.0884  0.0295
  257MOL    H3131263   5.572   3.526   0.698 -0.2639  0.7078  1.0909
  257MOL    C3231264   5.379   3.438   0.663  0.3342  0.3496  0.3437
  257MOL    C3331265   5.391   3.469   0.513  0.6005  0.3747  0.8797
  257MOL    H3431266   5.412   3.336   0.682 -1.8839 -0.9098 -2.1602
  257MOL    H3531267   5.274   3.434   0.694 -0.4752 -0.9239 -2.4181
  257MOL    H3631268   5.339   3.561   0.488  0.3004 -0.0292  0.0049
  257MOL    H3731269   5.497   3.489   0.501  0.0724  2.1028 -1.1707
  257MOL    C3831270   5.348   3.352   0.423 -0.1070 -0.5668 -0.2738
  257MOL    C3931271   5.203   3.349   0.386 -0.1705 -0.0413 -0.0461
  257MOL    H4031272   5.423   3.362   0.344 -0.0636 -1.4367 -0.3552
  257MOL    H4131273   5.376   3.257   0.470 -0.4779 -0.3186  0.4579
  257MOL    H4231274   5.152   3.331   0.481 -0.3672 -2.8324 -0.6437
  257MOL    H4331275   5.175   3.447   0.350 -1.5661  0.5639  2.5498
  257MOL    C4431276   5.161   3.237   0.293 -0.8603 -0.3331  0.5083
  257MOL    C4531277   5.014   3.215   0.288  0.1060  0.1676  0.0294
  257MOL    H4631278   5.210   3.263   0.199  1.4645  2.6485  2.4325
  257MOL    H4731279   5.211   3.144   0.321  0.5986  0.9531  2.3153
  257MOL    H4831280   4.996   3.190   0.393  1.4139  1.1759  0.4906
  257MOL    H4931281   4.954   3.302   0.262 -0.1850  0.1443  0.5966
  257MOL    C5031282   4.983   3.100   0.191 -0.1974  0.2251 -0.5032
  257MOL    C5131283   5.021   3.134   0.043 -0.2640  0.1328 -0.2143
  257MOL    H5231284   5.034   3.011   0.226 -1.6008  0.0378  1.1369
  257MOL    H5331285   4.879   3.069   0.181  0.0402 -0.6806 -0.2289
  257MOL    H5431286   4.993   3.234   0.009  4.1621  1.0686 -1.3945
  257MOL    H5531287   5.130   3.136   0.042 -0.2858  2.0152 -2.8714
  257MOL    C5631288   4.994   3.031   7.626  0.4054  0.6652 -0.6994
  257MOL    C5731289   4.845   3.009   7.585 -1.2093 -0.0054 -0.0935
  257MOL    H5831290   5.044   3.071   7.538  1.2329  0.4415 -0.3398
  257MOL    H5931291   5.041   2.938   7.658 -0.7755 -0.0280 -0.9678
  257MOL    H6031292   4.801   2.947   7.663  0.7169  0.0723  1.1054
  257MOL    H6131293   4.793   3.104   7.590 -4.3844 -1.7950  2.5385
  257MOL    C6231294   4.825   2.948   7.452 -0.7949  0.3259  0.6134
  257MOL    C6331295   4.675   2.907   7.437  0.7951 -0.5737  0.0407
  257MOL    H6431296   4.858   3.015   7.373 -0.5712 -0.7645 -0.2281
  257MOL    H6531297   4.885   2.857   7.444  1.0595  1.5768 -0.1946
  257MOL    H6631298   4.653   2.831   7.513 -0.2193 -1.5771 -1.2236
  257MOL    H6731299   4.609   2.992   7.452 -0.0424 -1.6132  2.6583
  257MOL    C6831300   4.642   2.845   7.301 -0.7197 -0.5774 -0.1223
  257MOL    C6931301   4.497   2.792   7.287  0.2565 -0.2938 -0.1479
  257MOL    H7031302   4.658   2.925   7.228  0.7807 -1.0296 -0.3021
  257MOL    H7131303   4.708   2.760   7.282 -0.3293 -0.8557  2.3558
  257MOL    H7231304   4.487   2.706   7.353 -0.4406  1.4423  2.0629
  257MOL    H7331305   4.426   2.866   7.325 -0.1879 -2.1210  2.6689
  257MOL    C7431306   4.449   2.742   7.147 -0.7211 -0.7295  0.4451
  257MOL    C7531307   4.309   2.673   7.150 -0.6224 -0.0375  0.0012
  257MOL    H7631308   4.439   2.825   7.077  1.9169  0.9055  1.9376
  257MOL    H7731309   4.527   2.676   7.109  1.4609  2.3852 -0.6607
  257MOL    H7831310   4.252   2.720   7.230  0.8066  1.1098  0.3743
  257MOL    H7931311   4.258   2.695   7.056  0.4877 -3.0013 -1.3535
  257MOL    C8031312   4.313   2.521   7.164  0.4438 -0.4142 -0.2619
  257MOL    C8131313   4.179   2.450   7.157  0.2267  0.3832  0.2349
  257MOL    H8231314   4.375   2.484   7.082 -0.0457  1.7082 -1.6204
  257MOL    H8331315   4.375   2.493   7.249  2.2361 -0.6840 -1.6221
  257MOL    H8431316   4.125   2.471   7.249  1.4013  1.4340  0.6979
  257MOL    H8531317   4.116   2.484   7.075 -0.8298  1.6436  1.5297
  257MOL    C8631318   4.199   2.299   7.159  0.2223 -0.6264  0.2702
  257MOL    C8731319   4.073   2.204   7.138  0.0724 -0.2062  0.4422
  257MOL    H8831320   4.274   2.266   7.088  1.0806  1.9265 -0.0607
  257MOL    H8931321   4.246   2.272   7.253  1.2771  1.3993  0.3598
  257MOL    H9031322   3.996   2.205   7.214 -0.6214 -0.6529 -0.2439
  257MOL    H9131323   4.024   2.243   7.048  0.3127  3.1926  1.7145
  257MOL    C9231324   4.109   2.050   7.122 -0.0511 -0.8369 -0.1196
  257MOL    C9331325   4.227   2.012   7.029 -0.0851  0.0485  0.2800
  257MOL    H9431326   4.132   2.023   7.225  0.8728  0.5426  0.0489
  257MOL    H9531327   4.021   1.990   7.098 -0.3928 -0.9775  1.3823
  257MOL    H9631328   4.318   2.065   7.059 -0.9684  1.2888  0.8321
  257MOL    H9731329   4.257   1.907   7.036  0.5250  0.0526 -1.9484
  257MOL    C9831330   4.201   2.037   6.883  0.0116 -0.3513  0.4724
  257MOL    C9931331   4.318   1.990   6.805  0.7747 -0.3704  0.1614
  257MOL   H10031332   4.107   1.990   6.855  0.9973 -1.3826 -1.1750
  257MOL   H10131333   4.187   2.144   6.869 -1.8872 -0.5836  0.5246
  257MOL   H10231334   4.412   2.036   6.836  0.2135  2.0569 -1.6214
  257MOL   H10331335   4.326   1.882   6.820 -2.3281 -0.5964  0.3782
  257MOL   C10431336   4.299   2.017   6.652  0.2405  0.0415  0.8986
  257MOL   C10531337   4.413   1.958   6.576  0.8218  0.0851 -0.2232
  257MOL   H10631338   4.210   1.955   6.639  1.0009 -1.1898  1.5847
  257MOL   H10731339   4.281   2.121   6.625  0.8243  0.4221  1.9287
  257MOL   H10831340   4.501   2.021   6.589  1.1905 -0.6693  1.0789
  257MOL   H10931341   4.444   1.857   6.602  0.6091 -0.0305 -0.4269
  257MOL   C11031342   4.375   1.960   6.431  0.0130 -0.7302 -0.6372
  257MOL   C11131343   4.492   1.902   6.340  0.6005  0.1356  0.2453
  257MOL   H11231344   4.283   1.908   6.405 -0.0387 -1.2054  0.4682
  257MOL   H11331345   4.358   2.064   6.404  1.8520  0.1160  1.3275
  257MOL   H11431346   4.474   1.926   6.235 -0.2099 -1.7883 -0.0762
  257MOL   H11531347   4.590   1.938   6.368  0.2845  0.2703  1.2036
  257MOL   C11631348   4.492   1.750   6.327  0.1487 -0.1560  0.3136
  257MOL   C11731349   4.556   1.698   6.204 -0.1824  0.2924  0.4016
  257MOL   H11831350   4.547   1.721   6.417 -1.0055  1.8589  1.7205
  257MOL   H11931351   4.387   1.720   6.334  0.0426  0.3076  0.7378
  257MOL   H12031352   4.522   1.729   6.105  1.8390  1.0593 -0.0832
  257MOL   H12131353   4.656   1.741   6.194 -0.3027  0.6136  0.5601
  257MOL   H12231354   4.540   1.591   6.195 -2.7543  0.6484  0.4991
  258MOL     C131355   6.824   4.732   0.247  0.0092  0.3976 -0.2912
  258MOL     C231356   6.907   4.812   0.334  0.4314 -0.1043 -0.4033
  258MOL     H331357   6.728   4.700   0.287  1.0279 -0.1323  1.8050
  258MOL     H431358   6.884   4.646   0.219 -0.6527  0.3765 -1.6958
  258MOL     H531359   7.005   4.831   0.291  0.4936  0.2108 -0.1278
  258MOL     H631360   6.859   4.910   0.336  1.1849  0.2653 -0.3775
  258MOL     H731361   6.807   4.783   0.152 -0.9977 -0.1301 -0.4042
  258MOL     C831362   6.920   4.741   0.470  0.8901 -0.8018  1.1874
  258MOL     C931363   7.013   4.812   0.567  0.1101 -0.3153  0.1570
  258MOL    H1031364   6.820   4.729   0.510  0.1937  0.6566 -0.0811
  258MOL    H1131365   6.946   4.637   0.449  0.8799 -0.5014 -0.3716
  258MOL    H1231366   7.115   4.789   0.536  0.9448 -1.6963  3.6869
  258MOL    H1331367   7.012   4.920   0.550 -0.9668 -0.0076  2.0769
  258MOL    C1431368   7.005   4.761   0.710 -1.0222 -0.7256  0.0275
  258MOL    C1531369   7.118   4.797   0.800  0.0630  0.6202  0.8581
  258MOL    H1631370   6.907   4.794   0.746 -0.3005 -0.3527  1.6794
  258MOL    H1731371   6.997   4.653   0.698 -1.0860 -0.5975 -1.1592
  258MOL    H1831372   7.213   4.770   0.754  0.3329  1.8794  0.6384
  258MOL    H1931373   7.133   4.905   0.801 -2.0106  0.9391 -0.3823
  258MOL    C2031374   7.104   4.745   0.939 -0.1608 -0.4966  0.0936
  258MOL    C2131375   7.200   4.796   1.039 -0.0941  0.7105  0.0107
  258MOL    H2231376   7.005   4.764   0.982  1.2216  1.0725  2.6902
  258MOL    H2331377   7.105   4.636   0.949  2.2281 -0.4450  0.5476
  258MOL    H2431378   7.291   4.736   1.031 -0.3219  0.3941 -0.2602
  258MOL    H2531379   7.239   4.895   1.014 -0.3340  0.9881  0.7245
  258MOL    C2631380   7.152   4.793   1.186  0.0640  0.3290 -0.7777
  258MOL    C2731381   7.265   4.821   1.280  1.0526 -0.0087 -0.2315
  258MOL    H2831382   7.068   4.861   1.204 -1.1789 -0.8791 -1.8640
  258MOL    H2931383   7.108   4.693   1.197  0.9823  0.0625  0.5741
  258MOL    H3031384   7.226   4.798   1.380  0.7897  1.5969  0.0446
  258MOL    H3131385   7.349   4.752   1.271 -1.2885 -3.0202  0.0583
  258MOL    C3231386   7.327   4.968   1.287  0.2975  0.1082  0.0278
  258MOL    C3331387   7.464   4.981   1.361  0.9269 -0.2051  0.2563
  258MOL    H3431388   7.348   4.995   1.184 -0.6505 -0.9710 -0.4614
  258MOL    H3531389   7.255   5.041   1.324  0.8898  0.7711 -0.1184
  258MOL    H3631390   7.458   4.964   1.468  2.0147 -0.3430  0.3078
  258MOL    H3731391   7.533   4.909   1.316  0.5177 -1.3832  1.4670
  258MOL    C3831392   7.533   5.116   1.324 -0.2198  0.1807  0.0704
  258MOL    C3931393   7.681   5.124   1.372 -0.2985 -0.1478 -0.1585
  258MOL    H4031394   7.533   5.134   1.216 -1.2390 -0.4388 -0.0404
  258MOL    H4131395   7.483   5.204   1.366 -1.1798  0.7735 -2.2113
  258MOL    H4231396   0.006   5.095   1.476  2.0433 -0.5320 -0.6097
  258MOL    H4331397   0.035   5.044   1.314 -2.7772 -0.5984 -1.5612
  258MOL    C4431398   0.065   5.254   1.334 -0.0214  0.0808 -0.1762
  258MOL    C4531399   0.216   5.271   1.356 -0.3372  0.6442 -0.2811
  258MOL    H4631400   0.042   5.247   1.228  2.2898  0.9488 -0.7828
  258MOL    H4731401   0.017   5.338   1.384  0.6819  0.0619  0.5436
  258MOL    H4831402   0.239   5.223   1.451 -0.4393 -1.7423 -1.4412
  258MOL    H4931403   0.261   5.201   1.285  1.1027  0.1067  1.1285
  258MOL    C5031404   0.274   5.411   1.326  0.3211 -0.4225  0.1559
  258MOL    C5131405   0.418   5.432   1.359  0.7681 -0.4468 -0.1951
  258MOL    H5231406   0.270   5.431   1.219  0.8865  0.1004  0.2293
  258MOL    H5331407   0.219   5.486   1.384  0.9022  2.0396 -2.3817
  258MOL    H5431408   0.444   5.536   1.341 -1.3689 -0.3275 -2.7797
  258MOL    H5531409   0.439   5.405   1.463  1.4296 -0.8563 -0.4289
  258MOL    C5631410   0.517   5.344   1.276 -0.4680  0.3431 -0.4104
  258MOL    C5731411   0.656   5.401   1.282 -0.0471  0.6310  0.4523
  258MOL    H5831412   0.512   5.242   1.313 -1.9094 -0.0712 -1.6683
  258MOL    H5931413   0.486   5.350   1.172 -1.0055  3.3697 -0.1207
  258MOL    H6031414   0.708   5.392   1.187 -0.2416 -0.5136  0.4424
  258MOL    H6131415   0.653   5.508   1.302 -0.4011  0.2679  2.5052
  258MOL    C6231416   0.747   5.342   1.397 -0.1868  0.7205 -0.6457
  258MOL    C6331417   0.898   5.377   1.374 -0.0411  0.2462  0.1382
  258MOL    H6431418   0.719   5.384   1.494  0.7787 -1.0019  0.4091
  258MOL    H6531419   0.740   5.233   1.403  0.2993  0.7691  1.0766
  258MOL    H6631420   0.944   5.328   1.288  0.9035  1.5552 -0.1103
  258MOL    H6731421   0.910   5.482   1.351  0.3100  0.2605  0.3823
  258MOL    C6831422   0.979   5.339   1.496  0.5653 -0.7863 -0.6727
  258MOL    C6931423   1.129   5.344   1.473 -0.5332  0.0344 -0.2875
  258MOL    H7031424   0.956   5.402   1.582 -0.3080 -0.2617 -1.2759
  258MOL    H7131425   0.961   5.235   1.521  4.6004 -1.1701  1.0014
  258MOL    H7231426   1.160   5.274   1.395 -0.5362  0.4592 -0.6739
  258MOL    H7331427   1.161   5.444   1.443  0.0519  0.3054  1.1572
  258MOL    C7431428   1.182   5.290   1.607  0.1856 -0.1275  0.0404
  258MOL    C7531429   1.330   5.327   1.637  0.9702 -0.0542  0.5286
  258MOL    H7631430   1.142   5.354   1.686  2.4086  1.4357 -0.0420
  258MOL    H7731431   1.169   5.182   1.617 -0.9042 -0.0088 -0.1104
  258MOL    H7831432   1.395   5.282   1.562  0.1796  0.7640 -0.6542
  258MOL    H7931433   1.340   5.435   1.629 -0.3173  0.0349  0.0429
  258MOL    C8031434   1.375   5.272   1.769  0.2747  0.0568  0.1150
  258MOL    C8131435   1.523   5.258   1.789 -0.3485  0.1983 -0.6986
  258MOL    H8231436   1.328   5.321   1.854  0.4405 -0.4975  0.5284
  258MOL    H8331437   1.334   5.172   1.759  2.0378 -0.5048 -1.9809
  258MOL    H8431438   1.534   5.198   1.879  3.3322 -0.4149 -1.4953
  258MOL    H8531439   1.571   5.202   1.709  2.4054  1.2170  0.1818
  258MOL    C8631440   1.591   5.391   1.818 -0.1332  0.2925  0.6257
  258MOL    C8731441   1.740   5.378   1.788 -0.0723  0.0348 -0.0377
  258MOL    H8831442   1.538   5.459   1.752 -0.9284 -0.8524  0.0750
  258MOL    H8931443   1.584   5.423   1.922 -0.1143 -0.4352  0.8558
  258MOL    H9031444   1.782   5.293   1.844 -1.3864 -1.6476 -1.5506
  258MOL    H9131445   1.753   5.360   1.682 -0.9056  2.1373 -0.5146
  258MOL    C9231446   1.823   5.496   1.831 -0.2391 -0.2048  0.0067
  258MOL    C9331447   1.976   5.487   1.793  0.4027 -0.6864  0.0533
  258MOL    H9431448   1.775   5.588   1.798 -2.5222 -1.5011 -0.4362
  258MOL    H9531449   1.819   5.499   1.940  2.3046  2.9329  0.0693
  258MOL    H9631450   2.023   5.425   1.869 -1.4242 -1.3082  0.7162
  258MOL    H9731451   1.996   5.450   1.692  1.6050 -0.3626  0.1646
  258MOL    C9831452   2.053   5.617   1.796  0.1900 -0.1375  0.0516
  258MOL    C9931453   2.203   5.600   1.769 -0.4966  0.1588 -0.2890
  258MOL   H10031454   2.013   5.679   1.715  1.4738 -0.2468 -0.6893
  258MOL   H10131455   2.034   5.653   1.897 -0.6968  0.5807 -0.3738
  258MOL   H10231456   2.236   5.522   1.838  1.8938  0.4743 -1.0121
  258MOL   H10331457   2.228   5.555   1.673 -3.2520 -1.2098 -0.4171
  258MOL   C10431458   2.285   5.732   1.785 -0.4161 -0.2850  0.0449
  258MOL   C10531459   2.258   5.845   1.673 -0.4301 -0.2230 -0.2194
  258MOL   H10631460   2.289   5.769   1.887  2.1460  0.8205 -0.4066
  258MOL   H10731461   2.387   5.700   1.765 -0.1604  0.1871  0.5751
  258MOL   H10831462   2.268   5.802   1.574  1.5147 -1.0372  0.3154
  258MOL   H10931463   2.155   5.878   1.686 -0.0228  0.7107  0.7865
  258MOL   C11031464   2.342   5.976   1.682  0.0475  0.1847 -0.6327
  258MOL   C11131465   2.285   6.088   1.584  0.1852 -1.2694 -0.4431
  258MOL   H11231466   2.321   6.017   1.780 -1.0592 -2.0141  0.0658
  258MOL   H11331467   2.448   5.954   1.670 -0.0375 -0.7145  0.2397
  258MOL   H11431468   2.316   6.062   1.483 -0.1711 -0.0135 -0.8961
  258MOL   H11531469   2.176   6.095   1.584  0.2077 -0.7097  1.2381
  258MOL   C11631470   2.357   6.221   1.618 -0.0986 -0.1155 -0.6020
  258MOL   C11731471   2.311   6.337   1.536 -0.3824  0.4416  0.0216
  258MOL   H11831472   2.338   6.245   1.723 -0.9140  1.8129 -1.1727
  258MOL   H11931473   2.464   6.218   1.598 -0.6246 -1.2191 -3.5715
  258MOL   H12031474   2.362   6.425   1.574 -0.4544 -0.5368  2.4800
  258MOL   H12131475   2.340   6.326   1.431  2.8777 -0.2673  0.9617
  258MOL   H12231476   2.206   6.363   1.545 -0.7965 -1.3129  0.4962
  259MOL     C131477   4.696   5.022   5.221 -0.5126 -0.4195  0.7188
  259MOL     C231478   4.810   5.078   5.302  0.2091  0.2926  0.5998
  259MOL     H331479   4.657   5.095   5.150 -0.2773  1.5475  2.5778
  259MOL     H431480   4.610   4.988   5.279 -0.5031  0.2893  1.1503
  259MOL     H531481   4.845   5.006   5.376 -0.8530 -0.6519  0.1921
  259MOL     H631482   4.891   5.108   5.234  0.3717 -0.5371  0.4221
  259MOL     H731483   4.732   4.942   5.157 -1.7439 -1.0680  0.8133
  259MOL     C831484   4.765   5.202   5.377 -0.3103 -0.1186  0.3912
  259MOL     C931485   4.884   5.270   5.452 -0.3056 -0.1998  0.3922
  259MOL    H1031486   4.722   5.280   5.314 -0.3221  0.0712  0.6351
  259MOL    H1131487   4.701   5.176   5.461  0.0431 -1.7107  0.1786
  259MOL    H1231488   4.926   5.197   5.520  1.4060 -0.2003 -0.6265
  259MOL    H1331489   4.962   5.297   5.380 -0.1239 -0.6710  0.4100
  259MOL    C1431490   4.843   5.393   5.540 -0.4120 -0.2521 -0.3843
  259MOL    C1531491   4.954   5.461   5.618  0.7017 -0.3759  0.2184
  259MOL    H1631492   4.795   5.470   5.480 -0.0447 -0.4530 -0.9450
  259MOL    H1731493   4.764   5.357   5.606  0.0336  0.4706  0.5503
  259MOL    H1831494   4.995   5.387   5.687  2.0572 -1.3712 -1.6173
  259MOL    H1931495   5.036   5.507   5.563 -0.0614  1.3576  0.4862
  259MOL    C2031496   4.901   5.584   5.701 -0.6507 -0.2104 -0.2264
  259MOL    C2131497   5.018   5.646   5.789 -1.2421 -0.0106  0.2950
  259MOL    H2231498   4.860   5.667   5.643  0.3303  0.5823  0.1881
  259MOL    H2331499   4.821   5.561   5.770 -1.6583  2.4671 -0.4314
  259MOL    H2431500   5.070   5.576   5.854 -0.2146 -1.5439 -2.1071
  259MOL    H2531501   5.098   5.679   5.723 -1.9666  0.8873 -0.1386
  259MOL    C2631502   4.972   5.766   5.871  0.1367  0.7140 -0.3358
  259MOL    C2731503   5.078   5.851   5.926 -0.4923 -0.9168 -0.2573
  259MOL    H2831504   4.895   5.827   5.822 -1.2771 -1.3128 -0.6982
  259MOL    H2931505   4.917   5.730   5.958  1.3127 -0.8624 -0.2270
  259MOL    H3031506   5.159   5.791   5.966 -0.6990  0.2353  1.9488
  259MOL    H3131507   5.107   5.911   5.840 -0.1942  0.8652  1.0522
  259MOL    C3231508   5.044   5.938   6.045  0.1382 -0.1614  0.3088
  259MOL    C3331509   5.166   6.023   6.093  0.0471  0.0687 -0.4850
  259MOL    H3431510   4.966   6.009   6.016 -2.5557 -2.5922  1.2975
  259MOL    H3531511   5.002   5.874   6.123 -0.9457  0.7598  0.5057
  259MOL    H3631512   5.230   5.953   6.146 -0.1235 -0.4809 -1.0023
  259MOL    H3731513   5.229   6.064   6.014 -1.7516  2.2389 -0.8304
  259MOL    C3831514   5.134   6.151   6.179  0.1593 -0.1874 -0.0665
  259MOL    C3931515   5.256   6.242   6.224  0.4609  0.6158  0.9811
  259MOL    H4031516   5.055   6.210   6.132  0.3313  0.3018  0.2671
  259MOL    H4131517   5.081   6.118   6.268  2.0962 -2.0387  0.4437
  259MOL    H4231518   5.337   6.182   6.267  1.0498 -0.2241 -1.2406
  259MOL    H4331519   5.293   6.281   6.129  0.9175  1.6170  1.5550
  259MOL    C4431520   5.233   6.363   6.322  0.2039 -0.9159 -0.2420
  259MOL    C4531521   5.370   6.429   6.362  0.3048  0.2057  0.1744
  259MOL    H4631522   5.170   6.429   6.261  0.7945  0.9989  1.1779
  259MOL    H4731523   5.179   6.343   6.415 -1.3524  2.1282 -0.3970
  259MOL    H4831524   5.444   6.360   6.405  2.0144  1.6074 -0.4760
  259MOL    H4931525   5.419   6.465   6.272 -1.4925 -1.1395 -1.3663
  259MOL    C5031526   5.362   6.552   6.454 -0.0919 -0.0092 -0.1220
  259MOL    C5131527   5.499   6.616   6.463 -0.0972 -0.4247  0.2014
  259MOL    H5231528   5.285   6.618   6.414  1.1824  1.5231 -0.0834
  259MOL    H5331529   5.333   6.534   6.557 -0.5056 -2.8758 -0.7076
  259MOL    H5431530   5.575   6.544   6.493 -0.2210 -0.6498 -0.0256
  259MOL    H5531531   5.522   6.640   6.359 -2.3487 -1.5770 -0.5874
  259MOL    C5631532   5.502   6.751   6.554  0.0675 -0.0988  0.0192
  259MOL    C5731533   5.640   6.817   6.550  0.3743 -0.2912 -0.3423
  259MOL    H5831534   5.416   6.815   6.535  2.0142  2.5253 -0.1927
  259MOL    H5931535   5.488   6.730   6.660  0.6885 -1.6196 -0.1848
  259MOL    H6031536   5.711   6.755   6.605 -0.3747  0.5444  1.6180
  259MOL    H6131537   5.677   6.800   6.449  1.4593  0.9506 -0.1663
  259MOL    C6231538   5.658   6.963   6.600  0.2260 -0.7133 -0.1696
  259MOL    C6331539   5.800   7.010   6.586 -0.1909  0.4415 -0.3494
  259MOL    H6431540   5.589   7.023   6.540  0.7760 -0.0630 -0.1550
  259MOL    H6531541   5.626   6.981   6.703 -0.7318 -2.2067 -0.1981
  259MOL    H6631542   5.875   6.946   6.634 -0.1950  0.6933 -0.0098
  259MOL    H6731543   5.833   6.995   6.483  0.6167  1.7625 -0.3000
  259MOL    C6831544   5.819   7.160   6.620 -0.9024 -0.2598 -0.6270
  259MOL    C6931545   5.963   7.207   6.626 -0.1185 -0.1999 -1.0545
  259MOL    H7031546   5.759   7.219   6.551 -1.7455  0.1614  0.4541
  259MOL    H7131547   5.780   7.173   6.721 -1.5595 -2.7463 -0.5138
  259MOL    H7231548   6.016   7.156   6.706 -1.3006 -1.8367 -1.3022
  259MOL    H7331549   6.023   7.191   6.537 -0.1261 -0.4517 -1.0127
  259MOL    C7431550   5.976   7.359   6.654 -0.2096 -0.1802  0.9116
  259MOL    C7531551   6.117   7.399   6.705  0.0435 -0.9314  0.0640
  259MOL    H7631552   5.945   7.414   6.565 -0.8571  0.2546  1.3983
  259MOL    H7731553   5.908   7.394   6.732 -0.9777 -2.0624  1.0908
  259MOL    H7831554   6.205   7.342   6.675  2.1129  1.0049  2.2269
  259MOL    H7931555   6.130   7.494   6.656 -0.0113 -0.9642 -0.0125
  259MOL    C8031556   6.124   7.425   6.854 -0.0351 -0.1390 -0.1276
  259MOL    C8131557   6.246   7.510   6.904 -0.3290  0.4487  0.4548
  259MOL    H8231558   6.031   7.472   6.887  0.1003 -1.1496  1.8114
  259MOL    H8331559   6.118   7.329   6.907 -0.6475 -1.0742 -1.8545
  259MOL    H8431560   6.339   7.461   6.873 -0.1742  1.0925 -0.1293
  259MOL    H8531561   6.257   7.605   6.852  1.9664 -0.1496 -0.2571
  259MOL    C8631562   6.236   7.539   7.057  0.0612  0.5252 -0.0702
  259MOL    C8731563   6.334   7.643   7.101  0.2305  0.5952  0.4203
  259MOL    H8831564   6.132   7.563   7.082 -0.3366 -0.4638 -0.7528
  259MOL    H8931565   6.253   7.450   7.117 -1.7971  1.5189  1.9932
  259MOL    H9031566   6.433   7.612   7.067 -0.1996 -0.3998  0.0559
  259MOL    H9131567   6.318   0.041   7.042 -3.5246 -0.1072  0.2252
  259MOL    C9231568   6.340   7.677   7.248 -0.0288 -0.3352  0.6495
  259MOL    C9331569   6.449   0.088   7.295  0.8989 -0.4213 -0.4779
  259MOL    H9431570   6.243   0.018   7.285 -0.5763 -1.1500 -0.0483
  259MOL    H9531571   6.355   7.586   7.305  1.1975 -0.4641  0.1432
  259MOL    H9631572   6.551   0.049   7.284  0.7827 -0.7535 -0.4093
  259MOL    H9731573   6.443   0.178   7.235 -1.3073 -1.8091 -2.4020
  259MOL    C9831574   6.428   0.133   7.446  0.5466  0.6376 -0.0275
  259MOL    C9931575   6.485   0.272   7.470  0.4908  0.4196 -0.2755
  259MOL   H10031576   6.320   0.137   7.452  0.4420  0.2209 -1.4213
  259MOL   H10131577   6.464   0.053   7.511 -0.8208 -0.9568 -1.2060
  259MOL   H10231578   6.579   0.285   7.415  0.4752  0.9782 -0.1796
  259MOL   H10331579   6.413   0.340   7.423 -0.6851 -0.2378  0.5537
  259MOL   C10431580   6.492   0.319   7.617  0.0314 -0.0735 -0.2805
  259MOL   C10531581   6.543   0.462   7.633 -0.1986 -0.1784 -0.6478
  259MOL   H10631582   6.391   0.320   7.660  0.3946 -1.4375  0.6590
  259MOL   H10731583   6.558   0.251   7.671 -0.0042 -0.1620 -0.3477
  259MOL   H10831584   6.635   0.465   7.574  1.4570 -0.6847  1.8335
  259MOL   H10931585   6.464   0.531   7.602 -1.0947 -0.5069  0.8464
  259MOL   C11031586   6.581   0.498   0.081  0.7503 -0.1297  0.4807
  259MOL   C11131587   6.694   0.413   0.141  0.4726  0.0513  0.4187
  259MOL   H11231588   6.606   0.604   0.088 -0.4987  0.1946  0.0935
  259MOL   H11331589   6.495   0.487   0.148 -0.1592  1.8170 -0.3527
  259MOL   H11431590   6.654   0.316   0.172  1.4122 -0.2338  0.7628
  259MOL   H11531591   6.773   0.390   0.070  0.2586  1.0515 -0.1499
  259MOL   C11631592   6.756   0.483   0.260 -0.0721 -0.4662  0.4300
  259MOL   C11731593   6.876   0.397   0.297 -0.4556 -0.6164 -0.0867
  259MOL   H11831594   6.804   0.578   0.237 -0.1540 -1.0198 -2.1905
  259MOL   H11931595   6.692   0.511   0.343 -2.1191  0.9969 -1.5745
  259MOL   H12031596   6.925   0.420   0.392  0.5671 -3.3678  0.1040
  259MOL   H12131597   6.864   0.289   0.300 -0.8352 -0.6057 -1.0388
  259MOL   H12231598   6.959   0.412   0.228  0.5475 -2.8641  0.5983
  260MOL     C131599   1.830   0.273   1.339  0.9070 -0.0447  0.6988
  260MOL     C231600   1.893   0.382   1.432  0.5335 -0.5330  0.1303
  260MOL     H331601   1.863   0.278   1.235 -3.1968  2.0755 -0.6230
  260MOL     H431602   1.721   0.279   1.336  0.9045 -0.3419  0.2677
  260MOL     H531603   1.989   0.352   1.473  0.7099  0.3014  0.3202
  260MOL     H631604   1.912   0.479   1.387  0.1402  0.3697  1.8774
  260MOL     H731605   1.843   0.171   1.375  2.2606  0.0292  0.4430
  260MOL     C831606   1.808   0.414   1.547 -0.9766  0.7094 -0.6286
  260MOL     C931607   1.847   0.546   1.620 -0.6889 -0.0623 -0.3251
  260MOL    H1031608   1.701   0.416   1.528 -1.1963 -0.2855  0.4368
  260MOL    H1131609   1.824   0.329   1.614  0.8629 -0.4586 -2.4691
  260MOL    H1231610   1.955   0.556   1.633 -0.5207 -1.8316 -0.3220
  260MOL    H1331611   1.810   0.628   1.558  1.4120  0.4674 -0.9246
  260MOL    C1431612   1.790   0.564   1.759 -0.3514  0.1787  0.6330
  260MOL    C1531613   1.769   0.704   1.801 -0.1156  0.6175 -0.2009
  260MOL    H1631614   1.698   0.505   1.760  0.4417 -1.2127 -2.0942
  260MOL    H1731615   1.858   0.524   1.834 -2.0417 -1.1264  1.5006
  260MOL    H1831616   1.863   0.755   1.819 -0.6115  0.6991  2.2529
  260MOL    H1931617   1.715   0.765   1.728 -0.4463 -0.2769 -0.7068
  260MOL    C2031618   1.700   0.714   1.938 -0.5608 -0.7036  0.6347
  260MOL    C2131619   1.670   0.849   1.988 -0.2572 -0.3779  0.2837
  260MOL    H2231620   1.612   0.651   1.942 -2.9770  2.5539  0.3615
  260MOL    H2331621   1.771   0.670   2.009  0.4426 -1.2083 -0.6475
  260MOL    H2431622   1.756   0.914   1.970  0.6791 -1.4146  0.9174
  260MOL    H2531623   1.606   0.890   1.910 -0.2938  0.1740  0.6018
  260MOL    C2631624   1.602   0.855   2.123  0.2312 -0.0051  0.3922
  260MOL    C2731625   1.560   0.994   2.177  0.1371  0.2257  0.3005
  260MOL    H2831626   1.507   0.803   2.113  0.0321  0.4036  0.1608
  260MOL    H2931627   1.662   0.798   2.195 -0.9811 -1.8161  0.0031
  260MOL    H3031628   1.650   1.054   2.187  1.6701 -1.5950 -2.0045
  260MOL    H3131629   1.499   1.038   2.098  2.0009 -0.0752 -1.3597
  260MOL    C3231630   1.472   0.994   2.305  0.1140 -0.5755  0.6645
  260MOL    C3331631   1.420   1.129   2.354  0.3632  0.3838  0.4741
  260MOL    H3431632   1.390   0.923   2.299 -1.1710  0.9554 -0.1401
  260MOL    H3531633   1.537   0.957   2.385  0.5108 -0.0480  0.5888
  260MOL    H3631634   1.509   1.192   2.361 -0.3628  1.2953  1.7038
  260MOL    H3731635   1.368   1.164   2.266  0.2157  1.0348  0.8203
  260MOL    C3831636   1.333   1.122   2.483  0.9243  0.1146  0.4083
  260MOL    C3931637   1.285   1.263   2.537  0.2068 -0.6527 -0.2084
  260MOL    H4031638   1.253   1.053   2.459  2.1806 -0.7714 -1.2713
  260MOL    H4131639   1.396   1.082   2.563  0.7060 -1.0654 -0.0108
  260MOL    H4231640   1.367   1.335   2.544  2.5079 -3.1163 -0.9026
  260MOL    H4331641   1.212   1.310   2.471  1.2822  1.5526  0.1074
  260MOL    C4431642   1.233   1.253   2.677  0.1950  0.0590 -0.1346
  260MOL    C4531643   1.193   1.388   2.738 -0.0229  1.0667  0.0181
  260MOL    H4631644   1.148   1.186   2.681  1.4197 -1.6467 -1.7524
  260MOL    H4731645   1.303   1.208   2.748 -1.1730  0.4404  1.4840
  260MOL    H4831646   1.265   1.465   2.709  1.1114 -0.1501 -0.4844
  260MOL    H4931647   1.098   1.413   2.691  0.9059  0.7981 -2.0557
  260MOL    C5031648   1.175   1.388   2.886  0.1309 -0.5954  0.1483
  260MOL    C5131649   1.073   1.282   2.934  0.1354 -0.0994 -0.2889
  260MOL    H5231650   1.265   1.377   2.946  0.8060  3.1044 -0.0350
  260MOL    H5331651   1.132   1.486   2.907  0.7416  0.5200 -3.4732
  260MOL    H5431652   0.989   1.302   2.868 -0.8888 -1.2053  0.6576
  260MOL    H5531653   1.113   1.182   2.917 -1.8034 -1.2826  1.8864
  260MOL    C5631654   1.023   1.292   3.075 -0.1657  0.0521  0.0979
  260MOL    C5731655   1.135   1.253   3.178  0.4530 -0.8704 -0.1059
  260MOL    H5831656   0.981   1.388   3.104 -1.2050 -0.9155  1.9570
  260MOL    H5931657   0.946   1.214   3.074 -0.3302  0.2246 -1.2104
  260MOL    H6031658   1.193   1.167   3.146  0.8761 -0.6747  0.1383
  260MOL    H6131659   1.208   1.333   3.190  0.9084 -0.9485 -2.2933
  260MOL    C6231660   1.078   1.219   3.322 -0.2710 -0.3079 -0.1391
  260MOL    C6331661   1.196   1.192   3.418 -0.2518  0.3052  0.4129
  260MOL    H6431662   1.029   1.305   3.368  1.8218  1.3855 -0.9570
  260MOL    H6531663   1.017   1.129   3.317  1.0401 -1.3212  1.4881
  260MOL    H6631664   1.265   1.118   3.377 -1.3940 -0.6963  0.2717
  260MOL    H6731665   1.254   1.282   3.438  1.7166 -1.4451  2.8689
  260MOL    C6831666   1.153   1.130   3.552 -0.4874 -0.4215 -0.4316
  260MOL    C6931667   1.263   1.104   3.658 -0.8520 -0.4514  0.2480
  260MOL    H7031668   1.086   1.203   3.599  1.1490  1.8928 -1.6269
  260MOL    H7131669   1.088   1.043   3.541 -1.1757 -0.2101  1.6366
  260MOL    H7231670   1.332   1.037   3.608 -1.2133  0.8935 -2.1161
  260MOL    H7331671   1.316   1.196   3.685 -0.6525 -0.2788 -0.7249
  260MOL    C7431672   1.212   1.044   3.786  0.4026  0.3175 -0.1348
  260MOL    C7531673   1.328   0.982   3.868 -0.6309 -0.3485  0.6607
  260MOL    H7631674   1.166   1.124   3.844 -0.3945  0.7490 -1.3452
  260MOL    H7731675   1.137   0.966   3.769  0.8736 -0.1578 -0.0437
  260MOL    H7831676   1.338   0.879   3.834  1.6487 -0.1045  0.5247
  260MOL    H7931677   1.420   1.034   3.841 -1.5679  0.5408 -0.9116
  260MOL    C8031678   1.297   0.989   4.024 -0.2928  0.1019 -0.5717
  260MOL    C8131679   1.423   0.953   4.100  0.1928  0.2578 -0.5322
  260MOL    H8231680   1.265   1.092   4.039 -1.3219 -0.4167  0.9157
  260MOL    H8331681   1.217   0.917   4.043  0.0045 -1.4074 -4.5730
  260MOL    H8431682   1.462   0.855   4.073 -0.4056  0.4948 -2.3291
  260MOL    H8531683   1.499   1.028   4.080  0.9732 -1.2037 -3.3270
  260MOL    C8631684   1.395   0.956   4.248  0.0726 -0.1617  0.0233
  260MOL    C8731685   1.518   0.920   4.325 -0.0589  0.4292 -0.0607
  260MOL    H8831686   1.373   1.057   4.283 -1.1132 -0.6436  0.6898
  260MOL    H8931687   1.312   0.888   4.269  1.0927 -1.2398  0.6514
  260MOL    H9031688   1.608   0.959   4.280 -0.3645  0.9857 -0.1951
  260MOL    H9131689   1.504   0.963   4.425 -0.4761 -2.2025  1.0693
  260MOL    C9231690   1.546   0.773   4.358 -0.4438  0.6151 -0.2163
  260MOL    C9331691   1.635   0.753   4.477 -0.3522 -0.4669  0.0358
  260MOL    H9431692   1.457   0.716   4.380 -0.5356  1.5127  1.8110
  260MOL    H9531693   1.593   0.721   4.273 -1.5699 -2.3516  0.9240
  260MOL    H9631694   1.739   0.784   4.473 -0.7191  0.9077  0.9158
  260MOL    H9731695   1.589   0.815   4.554  1.5816  0.0682  0.7853
  260MOL    C9831696   1.655   0.608   4.526 -0.4860 -0.7263 -0.0990
  260MOL    C9931697   1.723   0.594   4.657 -0.1631 -0.7049 -0.4854
  260MOL   H10031698   1.562   0.552   4.527 -0.4560 -0.7778 -0.1738
  260MOL   H10131699   1.719   0.559   4.453 -0.4284  0.9319 -1.1630
  260MOL   H10231700   1.759   0.495   4.685 -0.2545 -1.0156 -1.4493
  260MOL   H10331701   1.812   0.656   4.642  0.9298 -1.7194  1.6601
  260MOL   C10431702   1.641   0.650   4.780 -0.5332 -0.4233 -0.2071
  260MOL   C10531703   1.525   0.557   4.826 -0.1015 -0.2707 -0.2761
  260MOL   H10631704   1.715   0.659   4.859  0.9680 -1.0126 -1.5206
  260MOL   H10731705   1.603   0.752   4.769  0.3591  0.1715  2.0078
  260MOL   H10831706   1.443   0.548   4.755 -1.1738 -2.3254  1.1558
  260MOL   H10931707   1.574   0.461   4.842  0.0831 -0.2335 -0.6122
  260MOL   C11031708   1.469   0.605   4.960  0.1885 -0.6943 -0.7407
  260MOL   C11131709   1.350   0.510   4.994 -0.3737 -0.0057 -0.1960
  260MOL   H11231710   1.547   0.620   5.035 -0.5893 -1.8302  0.3196
  260MOL   H11331711   1.423   0.697   4.925  1.7160  0.4505  0.1769
  260MOL   H11431712   1.278   0.521   4.913  0.8052 -0.8219 -1.3762
  260MOL   H11531713   1.397   0.413   5.009  1.7971  1.0216 -0.0859
  260MOL   C11631714   1.275   0.535   5.130  0.2708 -1.1325 -0.9341
  260MOL   C11731715   1.181   0.419   5.165  0.0526 -0.4858  0.1356
  260MOL   H11831716   1.351   0.526   5.209 -0.8171 -2.1843  0.0047
  260MOL   H11931717   1.221   0.629   5.134 -0.4933 -1.6039  0.0400
  260MOL   H12031718   1.234   0.331   5.201 -1.0016 -1.0312  0.3589
  260MOL   H12131719   1.115   0.452   5.245  0.4307  1.5065 -0.3354
  260MOL   H12231720   1.132   0.391   5.072  1.2144  0.3361 -0.7425
  261MOL     C131721   5.150   6.281   4.762 -0.0112 -0.2098 -0.0439
  261MOL     C231722   5.176   6.420   4.822 -0.0219 -0.0270 -1.3004
  261MOL     H331723   5.067   6.244   4.823 -1.4805  1.3754 -1.0289
  261MOL     H431724   5.232   6.209   4.767  0.1018 -0.5151 -4.5853
  261MOL     H531725   5.210   6.399   4.924 -0.1634  1.1659 -1.0040
  261MOL     H631726   5.259   6.474   4.776  0.1731  0.7984  0.0022
  261MOL     H731727   5.131   6.293   4.655 -0.4658  0.8425  0.1469
  261MOL     C831728   5.046   6.502   4.824 -0.6942 -0.6498 -0.9032
  261MOL     C931729   5.056   6.634   4.903 -0.6381 -0.0591 -0.1257
  261MOL    H1031730   5.015   6.536   4.725  1.3904  0.6544 -1.1431
  261MOL    H1131731   4.966   6.439   4.861 -0.4187 -0.1961  0.4862
  261MOL    H1231732   5.080   6.605   5.005  1.1311 -0.0757 -0.5370
  261MOL    H1331733   5.146   6.687   4.873 -0.6030 -0.7982 -1.3495
  261MOL    C1431734   4.933   6.724   4.904  0.3780  0.4643  0.2246
  261MOL    C1531735   4.942   6.849   4.978  0.5271  0.0498  0.6606
  261MOL    H1631736   4.912   6.748   4.800 -0.7933  1.0913  0.5982
  261MOL    H1731737   4.847   6.670   4.943  1.0618  0.4549  1.7490
  261MOL    H1831738   4.942   6.829   5.085 -1.6104 -3.9232 -0.0024
  261MOL    H1931739   5.022   6.908   4.933  1.1212 -2.5967 -1.8889
  261MOL    C2031740   4.815   6.926   4.974  0.3185 -0.0996 -0.6434
  261MOL    C2131741   4.814   7.042   5.076 -0.0143 -0.0834 -0.2086
  261MOL    H2231742   4.796   6.957   4.872 -0.4990  0.2308 -0.3924
  261MOL    H2331743   4.724   6.869   4.992  1.3406 -1.7793 -0.7005
  261MOL    H2431744   4.795   6.995   5.173 -1.5588  0.9073 -0.0243
  261MOL    H2531745   4.909   7.095   5.079  1.3583 -2.5190  0.8560
  261MOL    C2631746   4.694   7.132   5.038  0.0347 -0.8641 -0.6819
  261MOL    C2731747   4.694   7.257   5.127 -0.1635 -0.5601 -0.0298
  261MOL    H2831748   4.696   7.159   4.932  1.7857  2.3794  0.1344
  261MOL    H2931749   4.602   7.078   5.060 -0.4859  0.0117 -0.7248
  261MOL    H3031750   4.708   7.229   5.231  1.3512 -1.3231 -0.4136
  261MOL    H3131751   4.770   7.324   5.086 -0.5390  0.3336  0.7325
  261MOL    C3231752   4.568   7.352   5.097 -0.1318 -0.3868 -0.1449
  261MOL    C3331753   4.570   7.481   5.189  0.2345  0.1828 -0.2328
  261MOL    H3431754   4.559   7.389   4.995 -1.0634  1.2063  0.4958
  261MOL    H3531755   4.485   7.283   5.114  0.3698 -1.4526 -1.8769
  261MOL    H3631756   4.603   7.445   5.287  0.1223  0.0874 -0.2304
  261MOL    H3731757   4.650   7.547   5.153  1.2453 -0.8320  0.1079
  261MOL    C3831758   4.436   7.550   5.197  0.4735  0.4901  0.2714
  261MOL    C3931759   4.430   7.655   5.315 -0.1493 -0.1621  0.8793
  261MOL    H4031760   4.404   7.598   5.105  2.4394  0.5592 -0.3863
  261MOL    H4131761   4.359   7.475   5.217  0.8900  0.2359  0.9753
  261MOL    H4231762   4.457   7.626   5.416 -2.6206 -1.4595  1.2158
  261MOL    H4331763   4.507   0.039   5.307 -0.1839 -0.3320 -1.7725
  261MOL    C4431764   4.294   0.033   5.313  0.3592 -0.0424  0.4963
  261MOL    C4531765   4.297   0.177   5.360  0.1993  0.1427  0.0365
  261MOL    H4631766   4.246   0.032   5.215 -0.1406 -0.2069  0.7405
  261MOL    H4731767   4.223   7.674   5.380 -0.6848  1.3159  0.4393
  261MOL    H4831768   4.344   0.182   5.458 -0.4533  0.2242  0.3426
  261MOL    H4931769   4.353   0.245   5.295  0.7428  0.7277  1.0983
  261MOL    C5031770   4.156   0.235   5.372 -0.3705  0.6296 -0.0980
  261MOL    C5131771   4.159   0.385   5.407  0.1819  0.2198 -0.2930
  261MOL    H5231772   4.107   0.235   5.274  0.7435 -0.6712 -0.6735
  261MOL    H5331773   4.102   0.185   5.453 -1.6505  0.7456 -0.8572
  261MOL    H5431774   4.216   0.396   5.500 -1.1509  1.1720  0.4193
  261MOL    H5531775   4.212   0.437   5.327  1.2794 -2.8649 -1.6461
  261MOL    C5631776   4.030   0.461   5.410 -0.1185 -0.2240 -0.6172
  261MOL    C5731777   3.937   0.415   5.525 -0.3693 -0.4568  0.1441
  261MOL    H5831778   4.028   0.569   5.419 -0.3023 -0.1147 -1.8828
  261MOL    H5931779   3.973   0.445   5.318  0.0268 -1.5999 -0.4785
  261MOL    H6031780   3.891   0.323   5.489  0.0333 -0.1015 -1.3235
  261MOL    H6131781   3.994   0.396   5.616  1.5604 -1.6433 -1.2610
  261MOL    C6231782   3.816   0.503   5.544  0.3680  0.5698 -0.1303
  261MOL    C6331783   3.722   0.463   5.648  0.2494  0.2342  0.0442
  261MOL    H6431784   3.858   0.600   5.573  2.1621  1.4404 -5.0281
  261MOL    H6531785   3.769   0.522   5.447  0.0808  3.3558  0.5132
  261MOL    H6631786   3.689   0.362   5.624 -1.7954  1.5415 -2.8284
  261MOL    H6731787   3.769   0.453   5.746 -1.0541 -0.2232  0.6307
  261MOL    C6831788   3.601   0.558   5.662 -0.8399 -0.1291 -0.6535
  261MOL    C6931789   3.492   0.502   5.762 -0.1166  0.5335  0.2582
  261MOL    H7031790   3.624   0.661   5.688  2.7053 -0.7953 -0.8993
  261MOL    H7131791   3.560   0.570   5.561 -0.4140 -0.3661 -0.8560
  261MOL    H7231792   3.534   0.461   5.854 -2.3311 -1.9956  0.2256
  261MOL    H7331793   3.433   0.588   5.794 -0.0431 -0.0732  2.0953
  261MOL    C7431794   3.397   0.403   5.686 -0.7334  0.0775 -0.0517
  261MOL    C7531795   3.296   0.339   5.792 -0.3805  0.3586  0.4613
  261MOL    H7631796   3.346   0.460   5.608  0.0615  0.2250 -0.4685
  261MOL    H7731797   3.447   0.324   5.630  0.6740  1.3768 -0.6694
  261MOL    H7831798   3.362   0.271   5.847  0.2942 -0.2335 -1.0436
  261MOL    H7931799   3.265   0.417   5.862  1.0311  0.4018  1.0742
  261MOL    C8031800   3.179   0.262   5.739  0.3412  0.0456 -0.3397
  261MOL    C8131801   3.213   0.128   5.678 -0.6980  0.1332  0.6788
  261MOL    H8231802   3.112   0.260   5.825  1.9515 -0.7181  0.9329
  261MOL    H8331803   3.128   0.321   5.662  1.8634  2.5578  0.5000
  261MOL    H8431804   3.315   0.141   5.640 -1.2239 -1.6984 -1.4373
  261MOL    H8531805   3.214   0.048   5.752 -3.1034 -0.9100 -0.3998
  261MOL    C8631806   3.125   0.089   5.559 -0.7284  0.3265 -0.3449
  261MOL    C8731807   2.973   0.075   5.594 -0.4275 -0.4224 -0.3270
  261MOL    H8831808   3.135   0.167   5.483 -0.0394 -0.5114 -1.1368
  261MOL    H8931809   3.175   0.005   5.511 -0.8548  0.1901 -0.2333
  261MOL    H9031810   2.946   7.664   5.613  0.1624 -0.2570  1.6388
  261MOL    H9131811   2.950   0.141   5.679  0.8650 -0.8011  0.3388
  261MOL    C9231812   2.877   0.121   5.495 -0.0713 -0.1344  0.9538
  261MOL    C9331813   2.872   0.034   5.362 -0.0120  0.0140 -0.7034
  261MOL    H9431814   2.776   0.114   5.534 -1.6324  3.3838 -2.1974
  261MOL    H9531815   2.886   0.228   5.481  1.9991 -0.3716  0.2629
  261MOL    H9631816   2.975   0.013   5.332 -0.0394 -1.2785  0.0736
  261MOL    H9731817   2.826   7.629   5.379  0.5786 -0.0810  0.3781
  261MOL    C9831818   2.793   0.094   5.243  0.2119  0.3665 -0.0631
  261MOL    C9931819   2.808   0.022   5.115 -0.5695  0.3867 -0.4244
  261MOL   H10031820   2.689   0.100   5.276 -0.2074 -0.5165 -1.1991
  261MOL   H10131821   2.826   0.196   5.224  1.3987 -0.6096 -3.4073
  261MOL   H10231822   2.789   0.083   5.026 -3.9514  1.5588  1.0317
  261MOL   H10331823   2.916   0.005   5.110 -0.5883 -0.8096  2.5119
  261MOL   C10431824   2.744   7.575   5.101  0.4470  0.4368  0.2549
  261MOL   C10531825   2.592   7.586   5.088 -0.5545  0.2858 -0.6939
  261MOL   H10631826   2.776   7.532   5.006 -0.6564 -0.8391  0.4584
  261MOL   H10731827   2.780   7.513   5.183  1.7637 -0.8846 -1.2725
  261MOL   H10831828   2.561   7.624   5.185 -0.1775  2.6232 -1.4668
  261MOL   H10931829   2.555   7.666   5.025 -0.8223  0.7556  0.0512
  261MOL   C11031830   2.525   7.461   5.036 -0.4151 -0.2037  0.4433
  261MOL   C11131831   2.534   7.344   5.145 -0.3565 -0.1458 -0.6199
  261MOL   H11231832   2.421   7.486   5.014 -0.8731 -1.1167  1.4701
  261MOL   H11331833   2.567   7.423   4.943  0.1540 -1.0929  1.0589
  261MOL   H11431834   2.638   7.321   5.169 -0.4440 -0.9539 -0.9984
  261MOL   H11531835   2.493   7.363   5.245  1.6265 -0.9850  0.3816
  261MOL   C11631836   2.476   7.216   5.088  0.5125  0.4506 -0.4899
  261MOL   C11731837   2.473   7.107   5.193  0.3036  0.2204 -0.3978
  261MOL   H11831838   2.380   7.247   5.049 -0.4007  0.7531  1.9233
  261MOL   H11931839   2.536   7.187   5.002  2.3278 -2.5247  1.6755
  261MOL   H12031840   2.413   7.023   5.157  0.3442 -0.4342  1.0530
  261MOL   H12131841   2.571   7.063   5.209  0.0695  0.0911  0.6989
  261MOL   H12231842   2.436   7.138   5.290  0.6744 -1.3389  0.2546
  262MOL     C131843   0.136   2.949   2.047 -0.7316 -0.2222  0.0553
  262MOL     C231844   0.180   3.037   1.938  0.4795 -0.3912 -0.4158
  262MOL     H331845   0.212   2.886   2.092  0.2098  1.0733  0.3276
  262MOL     H431846   0.054   2.885   2.017 -1.9653  2.1634 -1.8525
  262MOL     H531847   0.211   2.973   1.855  0.5039 -0.8190 -0.0744
  262MOL     H631848   0.088   3.083   1.902  0.0016  0.1672  1.5065
  262MOL     H731849   0.111   3.013   2.132  1.0584  0.4445  0.1165
  262MOL     C831850   0.287   3.140   1.973 -0.8370  0.5550 -0.2018
  262MOL     C931851   0.340   3.217   1.849 -0.5271  0.3198  0.3870
  262MOL    H1031852   0.255   3.192   2.063 -1.8892  1.4523 -1.0803
  262MOL    H1131853   0.370   3.077   2.003 -1.2268  0.8038  1.4758
  262MOL    H1231854   0.361   3.141   1.774  0.3388  1.5179 -0.6049
  262MOL    H1331855   0.261   3.273   1.799  1.1357  2.3481 -0.0300
  262MOL    C1431856   0.466   3.307   1.872  0.2316  0.3662 -0.5155
  262MOL    C1531857   0.515   3.382   1.748 -0.2271  0.6134 -0.5189
  262MOL    H1631858   0.449   3.379   1.952  1.8479  1.0671 -0.7766
  262MOL    H1731859   0.548   3.253   1.919 -1.9864 -0.7536  2.2303
  262MOL    H1831860   0.599   3.441   1.785  1.6178 -0.9481 -2.1388
  262MOL    H1931861   0.564   3.322   1.671  1.5578  2.0289 -0.5367
  262MOL    C2031862   0.408   3.477   1.689 -0.1658 -0.0135  0.9252
  262MOL    C2131863   0.459   3.605   1.615 -0.1468  0.4796 -0.1444
  262MOL    H2231864   0.337   3.419   1.631 -1.2510  0.4151  1.8163
  262MOL    H2331865   0.345   3.514   1.771 -0.9694 -0.4345  0.4989
  262MOL    H2431866   0.373   3.664   1.583 -1.5323 -0.0668  2.3752
  262MOL    H2531867   0.507   3.670   1.689  2.0321  0.9635 -1.9084
  262MOL    C2631868   0.558   3.570   1.501  0.1297  0.1096  0.6911
  262MOL    C2731869   0.618   3.684   1.431 -0.3184 -0.7036 -0.3612
  262MOL    H2831870   0.640   3.505   1.530  0.0503 -0.8189 -1.1060
  262MOL    H2931871   0.506   3.509   1.428 -0.2450  1.3039 -0.0517
  262MOL    H3031872   0.649   3.765   1.498 -0.3914 -2.2316  1.5843
  262MOL    H3131873   0.711   3.653   1.384  0.7319  0.3116  0.9867
  262MOL    C3231874   0.524   3.735   1.321 -0.1295 -0.4250  0.6315
  262MOL    C3331875   0.597   3.855   1.247  0.1062  0.1342 -0.5717
  262MOL    H3431876   0.523   3.645   1.258  3.8577 -1.3850  1.7390
  262MOL    H3531877   0.428   3.758   1.366 -0.4004  0.8215 -0.5651
  262MOL    H3631878   0.590   3.941   1.314  1.1286  0.7082 -1.1810
  262MOL    H3731879   0.706   3.851   1.240  0.1036 -0.8838 -0.1909
  262MOL    C3831880   0.545   3.892   1.109  0.1952 -0.4051 -0.2188
  262MOL    C3931881   0.625   3.997   1.036 -0.6026 -0.2104  0.6205
  262MOL    H4031882   0.554   3.801   1.049 -1.9528 -2.4299  2.4061
  262MOL    H4131883   0.443   3.929   1.111  0.9006  1.5127  1.0149
  262MOL    H4231884   0.624   4.095   1.084 -2.8899 -0.1378  0.4821
  262MOL    H4331885   0.731   3.970   1.029 -0.7087 -0.5596  0.3509
  262MOL    C4431886   0.564   4.001   0.890  0.2784 -0.2575 -0.4793
  262MOL    C4531887   0.641   4.103   0.804 -0.1760 -0.1842  0.0370
  262MOL    H4631888   0.581   3.902   0.848  1.9412  0.0236 -0.5171
  262MOL    H4731889   0.456   4.014   0.889  0.2061 -0.7599  0.3521
  262MOL    H4831890   0.642   4.198   0.858 -1.2789 -0.3900  0.4568
  262MOL    H4931891   0.747   4.080   0.800 -0.0962 -0.3008  2.0984
  262MOL    C5031892   0.589   4.117   0.660 -0.2482  0.1920  0.4379
  262MOL    C5131893   0.655   4.236   0.598  0.3322 -0.3892  0.5212
  262MOL    H5231894   0.606   4.019   0.615 -0.0163  0.5375 -0.2242
  262MOL    H5331895   0.483   4.141   0.669  0.0699  1.3060  1.3111
  262MOL    H5431896   0.626   4.330   0.645 -0.5292 -0.3699 -0.0414
  262MOL    H5531897   0.764   4.228   0.604  0.6366  1.2913 -2.0754
  262MOL    C5631898   0.614   4.245   0.443 -0.4199 -0.1885 -0.1154
  262MOL    C5731899   0.697   4.363   0.385  0.3955  0.2489  1.3544
  262MOL    H5831900   0.629   4.149   0.393  1.0974 -0.7189  1.2840
  262MOL    H5931901   0.509   4.270   0.441 -0.5941 -0.9602 -1.0657
  262MOL    H6031902   0.675   4.459   0.432 -1.6130 -0.4056  1.7974
  262MOL    H6131903   0.803   4.342   0.400  0.3539 -0.0160  1.2765
  262MOL    C6231904   0.693   4.368   0.231  0.0031 -0.2821 -0.0453
  262MOL    C6331905   0.773   4.477   0.161 -0.0685 -0.5960 -0.1132
  262MOL    H6431906   0.731   4.270   0.201 -0.6239 -0.9275  1.2335
  262MOL    H6531907   0.590   4.374   0.196 -0.2626 -2.1858  0.3537
  262MOL    H6631908   0.734   4.577   0.179  1.8659  0.6884 -2.6513
  262MOL    H6731909   0.878   4.489   0.189 -1.0911  0.1067  3.6518
  262MOL    C6831910   0.757   4.453   0.011  0.2605  0.5064 -0.7925
  262MOL    C6931911   0.822   4.562   7.619 -0.6297 -0.9728 -0.0700
  262MOL    H7031912   0.790   4.353   7.677 -0.4474 -0.1414  0.7134
  262MOL    H7131913   0.651   4.455   7.679 -0.5920 -0.0767  2.6487
  262MOL    H7231914   0.766   4.654   7.635 -1.4328 -1.2223 -1.3773
  262MOL    H7331915   0.922   4.583   7.657 -2.5405  2.5661  3.3370
  262MOL    C7431916   0.832   4.526   7.473  0.3605 -0.0879 -1.0980
  262MOL    C7531917   0.698   4.503   7.402 -0.4959 -0.2664 -0.0611
  262MOL    H7631918   0.901   4.592   7.420  1.2888 -0.4313 -0.3466
  262MOL    H7731919   0.877   4.426   7.476  2.8372  1.0164  0.3233
  262MOL    H7831920   0.636   4.432   7.456 -0.4761  0.0209  0.3410
  262MOL    H7931921   0.643   4.596   7.413 -2.0666 -1.3346  1.3007
  262MOL    C8031922   0.693   4.469   7.250 -0.1169  0.0104 -0.2385
  262MOL    C8131923   0.551   4.416   7.209  0.4506 -0.1738  0.4538
  262MOL    H8231924   0.723   4.554   7.189  0.5775 -0.7306 -0.9335
  262MOL    H8331925   0.766   4.389   7.234  0.0740 -0.1216  1.1846
  262MOL    H8431926   0.530   4.333   7.277  2.3436  0.3063  1.6803
  262MOL    H8531927   0.469   4.487   7.219  1.3660  1.0407 -0.6523
  262MOL    C8631928   0.546   4.354   7.067 -0.2895 -0.1486 -0.1091
  262MOL    C8731929   0.417   4.294   7.031  0.6930 -0.1050 -0.4001
  262MOL    H8831930   0.577   4.438   7.006  4.0752 -1.0056  0.7554
  262MOL    H8931931   0.611   4.266   7.058 -2.8418 -2.0737 -0.2887
  262MOL    H9031932   0.379   4.224   7.105 -1.5786 -0.5734 -1.9423
  262MOL    H9131933   0.342   4.372   7.037 -0.5484 -1.3386  0.3211
  262MOL    C9231934   0.411   4.233   6.891  0.6244 -0.1166 -0.4534
  262MOL    C9331935   0.265   4.196   6.851  0.2818 -0.7325 -0.3166
  262MOL    H9431936   0.450   4.304   6.818 -2.1769  1.5381 -0.3941
  262MOL    H9531937   0.463   4.137   6.884  1.2307  0.2151 -0.5725
  262MOL    H9631938   0.232   4.123   6.925  0.7050 -0.5698  0.0319
  262MOL    H9731939   0.197   4.280   6.860  2.5551  0.9233  2.4514
  262MOL    C9831940   0.253   4.133   6.709  0.3487  0.2013 -0.3381
  262MOL    C9931941   0.105   4.086   6.684 -0.2712 -0.5375  0.1570
  262MOL   H10031942   0.275   4.197   6.623  1.0832  0.1728 -0.1787
  262MOL   H10131943   0.326   4.054   6.695 -1.0629 -1.4618  1.4824
  262MOL   H10231944   0.084   4.017   6.765  0.8502 -1.9122 -0.6876
  262MOL   H10331945   0.046   4.177   6.696  0.5732  0.1321 -0.6942
  262MOL   C10431946   0.083   4.020   6.549 -0.0654  0.0268  0.7327
  262MOL   C10531947   7.628   3.994   6.505 -0.4161  0.4624  0.3801
  262MOL   H10631948   0.131   4.078   6.471  1.5747  0.8175  2.2961
  262MOL   H10731949   0.131   3.922   6.542  0.0858  0.2721 -2.3258
  262MOL   H10831950   7.579   3.937   6.584  0.9377  0.4174  1.1926
  262MOL   H10931951   7.569   4.085   6.494 -0.2819  0.3235 -1.6780
  262MOL   C11031952   7.621   3.909   6.377 -0.6347 -0.4334 -0.0152
  262MOL   C11131953   7.478   3.905   6.317 -0.5464  0.6766 -0.6737
  262MOL   H11231954   0.002   3.960   6.314  0.8620 -1.6487  0.7054
  262MOL   H11331955   7.666   3.812   6.397  0.2490  0.1340  0.7931
  262MOL   H11431956   7.423   3.997   6.298 -0.6082  0.7114 -0.3330
  262MOL   H11531957   7.490   3.861   6.218  1.6083 -2.8312  1.0376
  262MOL   C11631958   7.403   3.811   6.415 -0.5493 -0.5008  0.5486
  262MOL   C11731959   7.290   3.748   6.325  0.0799 -0.2623 -0.3473
  262MOL   H11831960   7.464   3.735   6.463 -1.1648 -1.2592  0.1252
  262MOL   H11931961   7.347   3.867   6.490  1.0248  1.8504  0.0379
  262MOL   H12031962   7.330   3.667   6.264 -0.6903 -0.9870  0.1044
  262MOL   H12131963   7.215   3.694   6.382 -1.9877  2.1381 -0.7010
  262MOL   H12231964   7.232   3.824   6.272  0.9819  0.4271 -0.3508
  263MOL     C131965   1.639   1.665   2.090 -0.4231  0.3375 -0.0747
  263MOL     C231966   1.570   1.784   2.047 -0.0251  0.5111  0.4248
  263MOL     H331967   1.567   1.592   2.128 -0.1587 -0.2305 -0.6663
  263MOL     H431968   1.722   1.678   2.159 -0.1533 -1.8635  0.0406
  263MOL     H531969   1.488   1.756   1.981  1.6819 -0.1931 -1.4535
  263MOL     H631970   1.512   1.833   2.125 -1.3324 -1.6054  0.8296
  263MOL     H731971   1.682   1.623   1.999 -0.9728 -2.7795  1.0248
  263MOL     C831972   1.659   1.888   1.979 -0.0242  0.2427 -0.1669
  263MOL     C931973   1.576   2.011   1.936  0.1956 -0.1156  0.0269
  263MOL    H1031974   1.742   1.930   2.037 -0.9031 -1.5040  2.4498
  263MOL    H1131975   1.706   1.853   1.887  0.5420  2.1308 -0.6176
  263MOL    H1231976   1.503   1.973   1.865  3.2466 -0.1804 -3.1968
  263MOL    H1331977   1.532   2.059   2.024 -0.0112  1.8430 -1.1192
  263MOL    C1431978   1.660   2.100   1.852 -0.5557 -0.6850  0.3499
  263MOL    C1531979   1.565   2.209   1.797 -0.0425  0.1634  0.5128
  263MOL    H1631980   1.746   2.146   1.901 -0.1682  0.4032 -1.3441
  263MOL    H1731981   1.707   2.045   1.771 -0.0937  1.0890 -0.6076
  263MOL    H1831982   1.486   2.159   1.741  0.8717  0.4555 -1.0675
  263MOL    H1931983   1.518   2.260   1.881 -0.2482 -2.2928  1.9175
  263MOL    C2031984   1.644   2.298   1.703  0.3797  0.4260  0.3804
  263MOL    C2131985   1.553   2.416   1.658 -0.3301  0.4177  0.5693
  263MOL    H2231986   1.731   2.339   1.755  0.1205  0.8895  0.4439
  263MOL    H2331987   1.685   2.241   1.620 -2.6304  1.1172 -1.6609
  263MOL    H2431988   1.457   2.376   1.624 -0.3761 -0.2635  1.4490
  263MOL    H2531989   1.546   2.475   1.750  0.3627  3.4711 -1.2986
  263MOL    C2631990   1.610   2.507   1.550 -0.0359  0.1679 -0.2641
  263MOL    C2731991   1.500   2.609   1.517 -0.4989 -0.2427  0.0332
  263MOL    H2831992   1.699   2.551   1.596 -0.3158 -0.5144  0.9401
  263MOL    H2931993   1.646   2.450   1.464  3.6026 -0.7262  1.7246
  263MOL    H3031994   1.412   2.560   1.475 -0.9331  0.5302  0.0268
  263MOL    H3131995   1.466   2.660   1.608 -1.4632  0.4885 -0.7260
  263MOL    C3231996   1.546   2.717   1.423 -0.4678  0.0454 -0.4308
  263MOL    C3331997   1.653   2.808   1.494  0.7533 -0.0413  0.1742
  263MOL    H3431998   1.595   2.676   1.335 -3.8817 -2.5938 -1.2052
  263MOL    H3531999   1.455   2.765   1.387 -0.1100  0.4252 -0.8472
  263MOL    H3632000   1.611   2.848   1.587 -2.3021 -0.6922 -0.8598
  263MOL    H3732001   1.745   2.755   1.521  0.9937  0.3742  0.1682
  263MOL    C3832002   1.687   2.937   1.417  0.2471 -0.1854 -0.6154
  263MOL    C3932003   1.804   3.026   1.484 -0.2708  0.1459 -0.0214
  263MOL    H4032004   1.722   2.914   1.316  1.9476  0.5976 -0.2199
  263MOL    H4132005   1.604   3.006   1.406  0.6649  0.1305 -1.8057
  263MOL    H4232006   1.768   3.059   1.581 -2.5500 -1.6557 -0.1906
  263MOL    H4332007   1.900   2.978   1.503 -0.9118 -0.5045  1.7155
  263MOL    C4432008   1.835   3.156   1.393  0.3144 -0.5848 -0.2884
  263MOL    C4532009   1.924   3.267   1.462 -0.3638 -0.0700 -0.0453
  263MOL    H4632010   1.871   3.122   1.296 -1.3727  1.3319 -1.6338
  263MOL    H4732011   1.743   3.208   1.367 -0.2024 -0.5359  1.5484
  263MOL    H4832012   1.925   3.355   1.398 -1.6383  0.1656  0.2437
  263MOL    H4932013   1.877   3.299   1.555  0.0906  0.0206  0.1570
  263MOL    C5032014   2.064   3.218   1.495  0.2783  0.4874  0.6649
  263MOL    C5132015   2.160   3.337   1.539  0.2820  1.0184  0.0709
  263MOL    H5232016   2.069   3.141   1.572 -1.9940 -0.8745 -0.4811
  263MOL    H5332017   2.100   3.181   1.398  0.0969  1.9097  0.0355
  263MOL    H5432018   2.166   3.411   1.459  0.0104  1.0770  0.1030
  263MOL    H5532019   2.119   3.381   1.630 -0.5382 -0.3758  0.4006
  263MOL    C5632020   2.303   3.285   1.560 -0.3128 -0.3800 -0.4514
  263MOL    C5732021   2.396   3.393   1.615  1.2256 -0.5769 -0.0655
  263MOL    H5832022   2.295   3.207   1.637  1.3449  0.4411  0.5719
  263MOL    H5932023   2.351   3.235   1.476 -0.7564 -1.2032 -0.2263
  263MOL    H6032024   2.452   3.434   1.531  0.9982  0.7005  0.4064
  263MOL    H6132025   2.335   3.464   1.671  0.0819 -0.8786 -0.8930
  263MOL    C6232026   2.501   3.331   1.706 -0.2069 -0.2086 -0.1902
  263MOL    C6332027   2.615   3.425   1.763 -0.3981 -0.8814 -0.2481
  263MOL    H6432028   2.449   3.299   1.797 -0.4535  0.5804 -0.0540
  263MOL    H6532029   2.554   3.249   1.656 -0.3572 -0.2768 -0.2383
  263MOL    H6632030   2.648   3.507   1.699  0.8634  0.8703  2.5414
  263MOL    H6732031   2.560   3.479   1.841 -1.4902 -1.5329 -0.5540
  263MOL    C6832032   2.743   3.347   1.805 -0.5687 -0.3164  0.6349
  263MOL    C6932033   2.845   3.436   1.877 -0.2768  0.1074  0.5461
  263MOL    H7032034   2.717   3.263   1.869 -2.3283 -0.5859 -0.4089
  263MOL    H7132035   2.793   3.301   1.720 -0.9192  0.3680  0.0554
  263MOL    H7232036   2.865   3.531   1.827 -0.4271 -0.0729  0.1426
  263MOL    H7332037   2.795   3.465   1.970 -0.7353  1.1709 -0.0198
  263MOL    C7432038   2.978   3.358   1.898  0.2501 -0.2434 -0.3936
  263MOL    C7532039   3.091   3.454   1.906 -0.8443 -0.1490 -0.6854
  263MOL    H7632040   2.969   3.300   1.989  1.9588  0.1433  0.0302
  263MOL    H7732041   2.996   3.284   1.820 -2.5083 -0.7834 -0.6014
  263MOL    H7832042   3.096   3.507   1.811  0.9070 -0.4041 -0.7534
  263MOL    H7932043   3.081   3.523   1.990 -0.0942 -0.5593 -0.2513
  263MOL    C8032044   3.230   3.390   1.930 -0.7919 -0.4650  0.1197
  263MOL    C8132045   3.336   3.500   1.949  0.4088 -0.4745 -0.0284
  263MOL    H8232046   3.214   3.330   2.019  0.8582 -1.6796 -0.3719
  263MOL    H8332047   3.258   3.328   1.845 -1.2029 -0.0981 -0.2871
  263MOL    H8432048   3.323   3.554   1.856  0.3266 -2.8206 -1.4198
  263MOL    H8532049   3.320   3.565   2.036 -0.9283  0.0496 -0.6531
  263MOL    C8632050   3.469   3.439   1.965 -0.8442  0.2660 -0.0384
  263MOL    C8732051   3.583   3.544   1.938 -0.7049  0.5353  0.1217
  263MOL    H8832052   3.482   3.403   2.066  2.6259  1.9424  0.1773
  263MOL    H8932053   3.475   3.349   1.903  0.3213 -0.1645  0.6934
  263MOL    H9032054   3.570   3.579   1.835 -2.1111 -0.2298  0.0238
  263MOL    H9132055   3.575   3.633   2.001 -1.4385  0.1505  0.5705
  263MOL    C9232056   3.723   3.480   1.954  0.0106  0.4742  0.0602
  263MOL    C9332057   3.823   3.589   1.966  0.0127 -0.4469  0.2823
  263MOL    H9432058   3.731   3.423   2.046  1.9861  1.1809  0.3551
  263MOL    H9532059   3.733   3.412   1.869 -2.4091 -0.4913  0.4949
  263MOL    H9632060   3.817   3.650   1.876  1.5561  0.9364  1.0868
  263MOL    H9732061   3.799   3.660   2.046  0.7685  1.3126 -1.0151
  263MOL    C9832062   3.960   3.534   1.990 -0.1616 -0.0132  0.1461
  263MOL    C9932063   4.072   3.632   1.961  0.5928  0.1458 -0.3375
  263MOL   H10032064   3.951   3.508   2.096 -0.6290 -0.2926  0.0385
  263MOL   H10132065   3.985   3.444   1.933 -1.1857 -0.4261  0.3421
  263MOL   H10232066   4.084   3.641   1.853 -1.1464  2.0336 -0.3970
  263MOL   H10332067   4.033   3.729   1.991 -0.3290 -0.1429 -0.6061
  263MOL   C10432068   4.205   3.597   2.024  0.0954  0.0591 -0.1049
  263MOL   C10532069   4.301   3.714   2.022 -0.2553  0.3531 -0.5130
  263MOL   H10632070   4.194   3.551   2.123  1.7872  0.7819  0.4427
  263MOL   H10732071   4.244   3.517   1.962 -1.6661 -0.3007 -0.7565
  263MOL   H10832072   4.304   3.764   1.926  2.6069  1.1884 -0.0362
  263MOL   H10932073   4.261   3.781   2.099  0.3802 -0.8439  0.9010
  263MOL   C11032074   4.441   3.668   2.045  0.3257 -0.2183  0.2099
  263MOL   C11132075   4.539   3.783   2.083  0.5211  0.3736 -0.0040
  263MOL   H11232076   4.429   3.594   2.123 -1.1573  0.6641  0.8534
  263MOL   H11332077   4.479   3.614   1.958  0.1203  0.9047 -0.5953
  263MOL   H11432078   4.534   3.861   2.006  0.5892 -0.5905 -0.9901
  263MOL   H11532079   4.500   3.838   2.169  0.4361 -0.5677  0.5563
  263MOL   C11632080   4.677   3.736   2.109 -0.1752  0.6623  0.0507
  263MOL   C11732081   4.782   3.848   2.104 -0.7694 -1.0376  0.0772
  263MOL   H11832082   4.673   3.688   2.207  1.0162  2.0024  0.7630
  263MOL   H11932083   4.705   3.655   2.041  1.5151 -0.4573  2.0362
  263MOL   H12032084   4.759   3.923   2.181 -1.4981  0.1440 -1.2618
  263MOL   H12132085   4.875   3.798   2.132  0.5127  2.0480  1.6214
  263MOL   H12232086   4.777   3.888   2.003 -0.5947 -2.2251 -0.4091
  264MOL     C132087   5.374   2.088   3.868  0.6185  0.1124  0.8832
  264MOL     C232088   5.475   2.202   3.852  0.1511 -0.3120  0.0386
  264MOL     H332089   5.424   2.004   3.917  2.4820  0.3844 -0.4847
  264MOL     H432090   5.343   2.057   3.768  1.3009 -1.0336  1.0121
  264MOL     H532091   5.420   2.280   3.799 -0.1342  0.0039  0.7941
  264MOL     H632092   5.502   2.236   3.952  1.8576  2.2946 -1.2527
  264MOL     H732093   5.291   2.116   3.932  2.3709  0.7333  2.9245
  264MOL     C832094   5.601   2.163   3.775 -0.2912 -0.1986  0.2468
  264MOL     C932095   5.731   2.206   3.844  0.7281  0.8329 -0.6655
  264MOL    H1032096   5.600   2.055   3.760  1.8762 -0.1037 -0.8066
  264MOL    H1132097   5.598   2.193   3.670 -1.5061  0.7551  0.5459
  264MOL    H1232098   5.755   2.311   3.829 -0.0084  0.7291 -2.8005
  264MOL    H1332099   5.703   2.196   3.949 -0.4756 -1.5880 -1.1764
  264MOL    C1432100   5.853   2.115   3.816 -0.3953  0.1840  0.4589
  264MOL    C1532101   5.852   1.970   3.874 -0.0699 -0.9601  0.8418
  264MOL    H1632102   5.869   2.103   3.709  3.1277  0.7543  0.8571
  264MOL    H1732103   5.949   2.163   3.835 -0.2765 -0.4659  1.5488
  264MOL    H1832104   5.826   1.963   3.980 -2.6694  3.3325  0.5917
  264MOL    H1932105   5.769   1.921   3.823 -0.5560  2.3769 -1.7224
  264MOL    C2032106   5.974   1.882   3.829  0.9493 -0.3231  0.2541
  264MOL    C2132107   6.102   1.934   3.890 -0.0940 -0.0282 -0.4330
  264MOL    H2232108   5.958   1.775   3.848  0.8832 -0.4472 -0.4881
  264MOL    H2332109   5.998   1.898   3.724  0.8739 -3.2536 -0.2751
  264MOL    H2432110   6.115   2.041   3.871  3.5027 -0.1054  1.1470
  264MOL    H2532111   6.098   1.912   3.996  0.7828  1.8686  0.0181
  264MOL    C2632112   6.231   1.877   3.830  0.2572 -0.0265  0.8621
  264MOL    C2732113   6.355   1.923   3.914  0.3588  0.2565  0.2496
  264MOL    H2832114   6.221   1.768   3.836  2.1885 -0.3465 -1.0586
  264MOL    H2932115   6.240   1.886   3.722 -0.2919 -1.8778  0.6341
  264MOL    H3032116   6.359   2.032   3.920  1.2893  0.3896 -2.3701
  264MOL    H3132117   6.341   1.894   4.018  1.5254  0.6307  0.5187
  264MOL    C3232118   6.491   1.890   3.854 -0.2946 -0.3462  0.0980
  264MOL    C3332119   6.611   1.943   3.941 -0.1849  0.2462  0.6558
  264MOL    H3432120   6.498   1.781   3.846  2.1593 -0.1257 -1.1452
  264MOL    H3532121   6.486   1.927   3.752 -0.9052  1.5822  0.8214
  264MOL    H3632122   6.593   2.051   3.942  0.6014  0.4182 -1.7687
  264MOL    H3732123   6.604   1.904   4.043 -0.2024 -0.0047  0.5594
  264MOL    C3832124   6.746   1.914   3.881  0.7630 -0.4846  0.5563
  264MOL    C3932125   6.762   1.767   3.858  0.1675  0.0848  0.6377
  264MOL    H4032126   6.742   1.963   3.784  1.2952  0.9339  1.2460
  264MOL    H4132127   6.829   1.955   3.937  1.2064  0.5029 -0.8108
  264MOL    H4232128   6.721   1.721   3.947  0.5425  1.0815  1.3305
  264MOL    H4332129   6.703   1.726   3.775 -0.3764 -0.6084  1.3629
  264MOL    C4432130   6.907   1.722   3.829  0.2763  0.4811  0.0214
  264MOL    C4532131   6.962   1.775   3.690  0.6017 -0.4284 -0.0081
  264MOL    H4632132   6.980   1.738   3.908  1.4840  0.9141 -1.1519
  264MOL    H4732133   6.902   1.616   3.806 -1.6989  0.4861  0.3257
  264MOL    H4832134   6.890   1.758   3.609  1.5760 -3.4200 -0.2710
  264MOL    H4932135   6.974   1.884   3.691 -0.9742 -0.2113 -1.2256
  264MOL    C5032136   7.088   1.708   3.636 -0.5818  0.3307 -0.0174
  264MOL    C5132137   7.216   1.756   3.706 -0.2166  0.8129  0.0158
  264MOL    H5232138   7.072   1.601   3.629 -0.9437  0.4333 -0.8232
  264MOL    H5332139   7.106   1.730   3.531 -0.6765  0.8283  0.0659
  264MOL    H5432140   7.260   1.843   3.657  0.7914  0.1988 -0.1938
  264MOL    H5532141   7.207   1.796   3.807 -0.6675 -0.7619  0.6205
  264MOL    C5632142   7.327   1.650   3.692  0.8269 -0.2043 -0.2863
  264MOL    C5732143   7.472   1.699   3.726 -0.0578  0.5320 -0.1080
  264MOL    H5832144   7.309   1.561   3.752  1.5920  1.2866  2.2773
  264MOL    H5932145   7.321   1.628   3.586 -2.2858  2.3601 -0.7413
  264MOL    H6032146   7.483   1.750   3.823 -0.0984  1.3643 -0.5350
  264MOL    H6132147   7.532   1.609   3.731 -0.3949  0.2657 -0.8197
  264MOL    C6232148   7.523   1.782   3.603  0.7823 -0.3939  0.1439
  264MOL    C6332149   7.660   1.845   3.632 -0.3576  0.5093 -0.4831
  264MOL    H6432150   7.527   1.713   3.519  0.6613 -1.3625  0.9305
  264MOL    H6532151   7.446   1.855   3.578  0.7861 -0.8012 -1.1036
  264MOL    H6632152   7.643   1.908   3.719  0.7100  2.6248 -1.7592
  264MOL    H6732153   0.046   1.775   3.659 -0.4241  1.2534  1.6859
  264MOL    C6832154   0.016   1.946   3.528 -0.6164  0.2633 -0.2387
  264MOL    C6932155   7.633   2.073   3.510 -0.5237 -0.0311  1.3436
  264MOL    H7032156   0.121   1.961   3.553 -0.4093  1.6156 -1.7882
  264MOL    H7132157   0.033   1.897   3.432 -0.3933 -0.2797  0.0755
  264MOL    H7232158   7.538   2.044   3.465  0.4876  1.4229 -1.8323
  264MOL    H7332159   7.605   2.117   3.606  2.5456  0.2567  2.1484
  264MOL    C7432160   0.011   2.172   3.413  0.9607 -0.7546  0.5606
  264MOL    C7532161   7.625   2.305   3.378 -0.4030 -0.1447 -0.8694
  264MOL    H7632162   0.108   2.199   3.455  1.3159  0.4602 -0.9850
  264MOL    H7732163   0.039   2.126   3.318 -0.9312 -1.4553  0.3240
  264MOL    H7832164   7.519   2.278   3.375 -0.6517  0.7064 -0.0099
  264MOL    H7932165   7.651   2.387   3.445  1.1458 -0.8776 -0.5617
  264MOL    C8032166   7.648   2.351   3.229  0.9257 -0.9806 -0.8942
  264MOL    C8132167   7.556   2.472   3.193  0.0988 -0.1111 -0.1077
  264MOL    H8232168   0.058   2.385   3.210  2.1052 -2.3677  2.6236
  264MOL    H8332169   7.622   2.267   3.165  1.2336 -1.0989 -0.8638
  264MOL    H8432170   7.453   2.440   3.184 -0.2952  1.2840 -0.7433
  264MOL    H8532171   7.552   2.530   3.286  0.0323  0.2876 -0.3588
  264MOL    C8632172   7.605   2.560   3.079  0.0877  0.3715 -0.3148
  264MOL    C8732173   7.496   2.659   3.030 -0.3925  0.6657  0.4795
  264MOL    H8832174   0.008   2.604   3.110  0.8319  0.2895 -2.4143
  264MOL    H8932175   7.636   2.495   2.997 -1.9360 -0.3265 -0.5510
  264MOL    H9032176   7.405   2.601   3.015  0.6526 -0.9428  0.2009
  264MOL    H9132177   7.481   2.725   3.115  0.7870  3.1815 -1.1808
  264MOL    C9232178   7.537   2.733   2.902  0.2228  0.3225 -0.1616
  264MOL    C9332179   7.450   2.856   2.883 -0.0141 -0.2254 -0.2103
  264MOL    H9432180   7.639   2.770   2.914 -0.6140  1.6134  3.7724
  264MOL    H9532181   7.538   2.666   2.816  0.1045 -0.6375  0.5766
  264MOL    H9632182   7.355   2.834   2.835 -0.2460 -1.6226  0.8624
  264MOL    H9732183   7.407   2.886   2.979 -1.6591  0.6700 -1.2080
  264MOL    C9832184   7.528   2.977   2.833  0.0071  0.3883 -0.7442
  264MOL    C9932185   7.444   3.080   2.767  0.2778  0.2293 -0.3316
  264MOL   H10032186   7.582   3.015   2.920 -0.5387  1.8441 -1.0231
  264MOL   H10132187   7.608   2.951   2.764  1.5850  0.0092  1.1704
  264MOL   H10232188   7.390   3.029   2.687 -1.4578  0.2655  0.7953
  264MOL   H10332189   7.376   3.109   2.847 -1.3914  0.7701 -1.9079
  264MOL   C10432190   7.516   3.199   2.705 -0.5418 -0.4763  0.4914
  264MOL   C10532191   7.613   3.282   2.787 -0.4117 -0.4423  0.4081
  264MOL   H10632192   7.569   3.156   2.620  0.1192  1.2807  0.0041
  264MOL   H10732193   7.433   3.257   2.665  0.8725  2.1734  1.3420
  264MOL   H10832194   7.564   3.303   2.882 -0.2949  3.3381 -0.3150
  264MOL   H10932195   0.018   3.237   2.810  0.0728 -0.2743 -1.3010
  264MOL   C11032196   7.630   3.422   2.729 -0.0283  0.5209  1.3609
  264MOL   C11132197   0.065   3.493   2.775  0.2173  0.4061  0.4886
  264MOL   H11232198   7.648   3.412   2.622 -1.3217  0.9652  1.0914
  264MOL   H11332199   7.538   3.480   2.734  1.4009  2.7767  2.4708
  264MOL   H11432200   0.052   3.538   2.874 -1.0098  1.1954 -0.0168
  264MOL   H11532201   0.146   3.420   2.780  2.2533  2.2450 -3.3199
  264MOL   C11632202   0.116   3.590   2.672  0.5184 -0.1633  0.2009
  264MOL   C11732203   0.022   3.707   2.643  0.0030 -0.6570  0.5988
  264MOL   H11832204   0.216   3.626   2.697  0.2474  0.4970  0.3631
  264MOL   H11932205   0.128   3.533   2.580 -0.5346 -2.0589  1.2058
  264MOL   H12032206   0.060   3.776   2.568 -0.9161  0.4925  1.1725
  264MOL   H12132207   7.617   3.670   2.608  1.3595 -1.4668 -2.4532
  264MOL   H12232208   7.681   3.764   2.730 -2.1028 -1.1117  0.1342
  265MOL     C132209   1.269   2.708   1.874 -0.0393 -0.0513 -0.8428
  265MOL     C232210   1.293   2.824   1.975  0.4140 -0.3184 -0.1524
  265MOL     H332211   1.355   2.640   1.874  1.7921  2.1929 -0.7727
  265MOL     H432212   1.232   2.742   1.778 -1.6068 -1.1868 -0.6572
  265MOL     H532213   1.201   2.882   1.979  0.2590 -0.6329  0.9748
  265MOL     H632214   1.314   2.776   2.070  1.5643  0.8528  0.1936
  265MOL     H732215   1.200   2.641   1.925  0.0966  0.5677  0.1757
  265MOL     C832216   1.411   2.912   1.929 -0.2018  0.1416  0.2045
  265MOL     C932217   1.544   2.825   1.928  0.1244  0.0247  0.3315
  265MOL    H1032218   1.383   2.950   1.830 -0.6170  0.5221  0.4659
  265MOL    H1132219   1.419   2.998   1.996  1.2534  0.4782 -0.3759
  265MOL    H1232220   1.559   2.763   2.017 -2.5966 -0.5362  0.4561
  265MOL    H1332221   1.554   2.762   1.840  1.2142  1.8527 -0.8715
  265MOL    C1432222   1.662   2.916   1.923  0.6108  0.2367  0.3637
  265MOL    C1532223   1.796   2.854   1.969 -0.4374  0.4195 -0.2152
  265MOL    H1632224   1.680   2.948   1.821  2.7369 -2.0807 -0.0556
  265MOL    H1732225   1.652   3.001   1.990  2.0948  0.0563  0.8457
  265MOL    H1832226   1.808   2.846   2.077  2.1401 -2.1058 -0.6241
  265MOL    H1932227   1.788   2.749   1.941 -0.7674 -0.4806  3.1001
  265MOL    C2032228   1.917   2.924   1.906  0.1573 -0.4131 -0.2035
  265MOL    C2132229   2.053   2.851   1.940  0.0632  0.1991 -0.6296
  265MOL    H2232230   1.910   2.919   1.797  0.2391  0.0399 -0.2292
  265MOL    H2332231   1.919   3.025   1.948 -2.4510  0.1110 -1.2259
  265MOL    H2432232   2.071   2.848   2.048  1.1620  2.6705 -0.7098
  265MOL    H2532233   2.057   2.749   1.903 -2.0889 -0.6509  1.3219
  265MOL    C2632234   2.165   2.939   1.870  0.1146  0.2883  0.1006
  265MOL    C2732235   2.297   2.862   1.898  0.5773 -0.2109  0.0351
  265MOL    H2832236   2.147   2.940   1.762  1.2267 -0.8031 -0.1117
  265MOL    H2932237   2.165   3.039   1.913 -3.1774 -0.7046  2.6662
  265MOL    H3032238   2.303   2.833   2.003  0.9933  0.9103  0.3365
  265MOL    H3132239   2.289   2.777   1.831 -0.7814  1.1196 -1.5541
  265MOL    C3232240   2.414   2.951   1.855  0.1456 -0.4237  0.1789
  265MOL    C3332241   2.550   2.878   1.870  0.3883 -0.1862  0.6105
  265MOL    H3432242   2.401   2.977   1.750 -0.0794 -0.8417  0.1019
  265MOL    H3532243   2.409   3.046   1.907 -1.8342  0.2491 -1.1948
  265MOL    H3632244   2.567   2.833   1.968 -2.9653  1.8593  2.2352
  265MOL    H3732245   2.545   2.801   1.793 -1.6734 -2.2557  2.7036
  265MOL    C3832246   2.666   2.977   1.849  0.4003  0.6322 -0.2365
  265MOL    C3932247   2.795   2.900   1.803  0.0570 -0.0256  0.5316
  265MOL    H4032248   2.633   3.053   1.778 -0.3024 -0.8951 -1.6030
  265MOL    H4132249   2.687   3.021   1.946  0.1514  1.0235 -0.3587
  265MOL    H4232250   2.838   2.823   1.866  1.3098  0.7492  0.6362
  265MOL    H4332251   2.763   2.858   1.707  1.2348 -1.3510  0.7057
  265MOL    C4432252   2.906   2.997   1.760 -1.0510  0.3561  0.5941
  265MOL    C4532253   3.031   2.924   1.712 -0.4147 -0.3366  0.0033
  265MOL    H4632254   2.874   3.060   1.677 -1.0269 -0.8310 -0.3257
  265MOL    H4732255   2.934   3.068   1.838  0.3571  0.1310  0.3123
  265MOL    H4832256   3.076   2.853   1.782  0.7221 -0.0150 -0.4004
  265MOL    H4932257   3.016   2.856   1.628 -0.3351 -0.0662 -0.2298
  265MOL    C5032258   3.141   3.027   1.674 -0.4351 -0.1582  0.1740
  265MOL    C5132259   3.273   2.972   1.641  0.4540 -0.3717  1.0222
  265MOL    H5232260   3.111   3.079   1.584 -0.5285  1.2905  1.0354
  265MOL    H5332261   3.159   3.107   1.745 -0.3620  0.1610 -0.2058
  265MOL    H5432262   3.319   2.921   1.725 -1.3971 -1.0200  1.6798
  265MOL    H5532263   3.266   2.883   1.578  1.9802  0.8613 -0.9518
  265MOL    C5632264   3.372   3.066   1.579  0.0715 -0.1665  0.0267
  265MOL    C5732265   3.502   2.998   1.534 -0.8321  0.1923 -0.2177
  265MOL    H5832266   3.334   3.119   1.492 -0.1612 -0.0566  0.1947
  265MOL    H5932267   3.392   3.144   1.653 -2.0984  1.1009 -0.6614
  265MOL    H6032268   3.578   3.076   1.535  2.5715 -2.9961  2.0832
  265MOL    H6132269   3.547   2.930   1.606 -0.0724  1.0687  0.1387
  265MOL    C6232270   3.499   2.936   1.392  0.1503 -0.0933  0.2955
  265MOL    C6332271   3.637   2.892   1.336 -0.8654  0.7519  0.3555
  265MOL    H6432272   3.441   2.845   1.408 -0.3693  0.0512 -0.6660
  265MOL    H6532273   3.446   2.994   1.316  2.0137  0.2008 -0.8327
  265MOL    H6632274   3.682   2.963   1.267 -0.6349  0.5322  0.2801
  265MOL    H6732275   3.718   2.885   1.408 -0.7611 -0.8814  0.0966
  265MOL    C6832276   3.626   2.759   1.263  0.5547  0.0179 -0.3273
  265MOL    C6932277   3.528   2.757   1.145 -0.1399  0.3092  0.2234
  265MOL    H7032278   3.722   2.732   1.219  0.7249  0.9624 -0.5411
  265MOL    H7132279   3.600   2.677   1.330  0.5876 -0.8819 -1.3960
  265MOL    H7232280   3.425   2.758   1.181 -0.3855 -3.2110 -0.1482
  265MOL    H7332281   3.547   2.839   1.075  0.6802 -0.1823 -0.1370
  265MOL    C7432282   3.534   2.620   1.071  0.0205  0.2584  0.8138
  265MOL    C7532283   3.472   2.610   0.936 -0.7848 -0.3847  0.0155
  265MOL    H7632284   3.636   2.583   1.061 -0.0214 -0.3606  2.4788
  265MOL    H7732285   3.485   2.542   1.128 -2.1701  0.6634 -0.4811
  265MOL    H7832286   3.511   2.696   0.881  0.6211 -0.2007  1.2546
  265MOL    H7932287   3.511   2.518   0.894 -1.4957 -1.1950  1.0971
  265MOL    C8032288   3.320   2.604   0.935  0.5230 -0.2410  0.2251
  265MOL    C8132289   3.248   2.571   0.805 -0.4930 -0.0716 -0.1536
  265MOL    H8232290   3.286   2.539   1.016  0.4726 -0.2013  0.2356
  265MOL    H8332291   3.290   2.705   0.961  0.2822 -0.1678 -0.3217
  265MOL    H8432292   3.303   2.616   0.722 -0.3704 -2.0666 -1.1912
  265MOL    H8532293   3.259   2.466   0.780  0.3810 -0.1089  0.3589
  265MOL    C8632294   3.099   2.593   0.804 -0.2755 -0.9826 -1.6766
  265MOL    C8732295   3.029   2.563   0.670 -0.0052 -0.0678 -0.2628
  265MOL    H8832296   3.060   2.538   0.890  2.1809 -1.7899 -1.0377
  265MOL    H8932297   3.080   2.698   0.826 -2.3080 -1.8820  1.1339
  265MOL    H9032298   3.066   2.623   0.587 -1.1552  1.1069  0.0685
  265MOL    H9132299   3.067   2.463   0.649  0.4834  0.2042 -0.6745
  265MOL    C9232300   2.870   2.576   0.667 -0.1413  0.3863  0.4602
  265MOL    C9332301   2.813   2.547   0.527  0.1300 -0.6168 -1.0150
  265MOL    H9432302   2.830   2.497   0.731  0.8619  0.1885  0.8587
  265MOL    H9532303   2.824   2.669   0.700 -3.5011 -1.1792  0.3215
  265MOL    H9632304   2.866   2.603   0.450  4.5099 -2.5071  0.4817
  265MOL    H9732305   2.838   2.445   0.497  1.8365  0.1583 -2.3827
  265MOL    C9832306   2.661   2.587   0.524  0.1239  0.1121  0.0411
  265MOL    C9932307   2.600   2.535   0.395 -0.3733  0.0816  0.2918
  265MOL   H10032308   2.609   2.545   0.610 -1.5136  1.7693 -0.1030
  265MOL   H10132309   2.648   2.695   0.539 -0.2511  0.2026 -0.8757
  265MOL   H10232310   2.648   2.580   0.308 -0.4926 -0.0158  0.1739
  265MOL   H10332311   2.609   2.426   0.393 -1.3110  0.0167 -1.1230
  265MOL   C10432312   2.451   2.564   0.380  0.3869  0.0095 -0.1299
  265MOL   C10532313   2.395   2.508   0.245  0.1525  0.0138 -0.6576
  265MOL   H10632314   2.390   2.541   0.468  0.7774  0.0963  0.1669
  265MOL   H10732315   2.440   2.673   0.382  2.1184  0.1849  0.9104
  265MOL   H10832316   2.422   2.581   0.168 -0.3341  0.7744 -0.1134
  265MOL   H10932317   2.441   2.414   0.214 -1.0287 -0.5857 -0.6401
  265MOL   C11032318   2.239   2.500   0.246  0.6318 -0.8810 -0.3741
  265MOL   C11132319   2.176   2.465   0.112 -0.5564  0.0634  0.0556
  265MOL   H11232320   2.199   2.443   0.330  4.0968  2.1140  3.5033
  265MOL   H11332321   2.204   2.600   0.272 -0.5134 -1.1141 -0.9919
  265MOL   H11432322   2.198   2.540   0.036 -1.3698  1.5515  1.2561
  265MOL   H11532323   2.209   2.364   0.088 -1.4409 -0.3031  0.3781
  265MOL   C11632324   2.028   2.478   0.118  0.5552  0.2661 -0.4218
  265MOL   C11732325   1.948   2.445   7.683  0.2040  0.1640  0.6343
  265MOL   H11832326   1.991   2.421   0.204  2.4618 -1.0287 -0.4192
  265MOL   H11932327   2.004   2.581   0.143 -0.0972 -0.0565  0.3307
  265MOL   H12032328   1.844   2.474   0.005 -0.3275 -1.4090  0.0302
  265MOL   H12132329   1.985   2.507   7.602  1.3704  0.8819  1.6894
  265MOL   H12232330   1.953   2.343   7.645  0.1638 -0.3515  1.9819
  266MOL     C132331   2.005   0.665   3.345  0.4535  0.1890  0.2764
  266MOL     C232332   1.879   0.606   3.413 -0.3381 -0.0879 -0.1895
  266MOL     H332333   2.051   0.601   3.270 -1.0506  0.5604 -0.9925
  266MOL     H432334   2.086   0.683   3.416 -0.8206 -0.5264  1.9279
  266MOL     H532335   1.803   0.562   3.349  2.2060 -2.1826 -1.8750
  266MOL     H632336   1.918   0.529   3.480 -0.7074  1.1148  1.4469
  266MOL     H732337   1.979   0.760   3.298  0.1663  0.8406  1.7385
  266MOL     C832338   1.816   0.718   3.503  0.6651  0.7531 -0.8039
  266MOL     C932339   1.701   0.668   3.593 -0.9604  0.2729 -0.5448
  266MOL    H1032340   1.893   0.779   3.550  1.4894 -0.9564  0.1243
  266MOL    H1132341   1.769   0.780   3.427 -2.4820 -1.7263 -0.9965
  266MOL    H1232342   1.733   0.574   3.637  0.4602  1.3619  0.8260
  266MOL    H1332343   1.696   0.745   3.669  0.8898  2.8063 -2.8640
  266MOL    C1432344   1.566   0.677   3.528  0.7234 -0.5395 -0.0817
  266MOL    C1532345   1.453   0.632   3.621  0.6919 -0.3921  0.1118
  266MOL    H1632346   1.549   0.784   3.518  2.0319 -0.5004 -2.2016
  266MOL    H1732347   1.567   0.632   3.429  1.3579 -1.7118  0.4416
  266MOL    H1832348   1.463   0.525   3.635  1.5236 -0.4003 -0.4602
  266MOL    H1932349   1.480   0.687   3.711  1.2325 -0.0252 -0.2683
  266MOL    C2032350   1.311   0.671   3.579  0.0232  0.1531 -0.4061
  266MOL    C2132351   1.199   0.644   3.685  0.8593  0.1098 -0.6243
  266MOL    H2232352   1.295   0.776   3.553  0.5990 -0.2481 -2.4656
  266MOL    H2332353   1.289   0.615   3.488 -3.8904  2.2122 -0.8457
  266MOL    H2432354   1.197   0.536   3.704 -0.1297  0.0886 -0.8022
  266MOL    H2532355   1.233   0.695   3.775  0.3635 -1.3831  0.4376
  266MOL    C2632356   1.061   0.686   3.626 -0.3019 -0.0984  0.3197
  266MOL    C2732357   0.941   0.656   3.717 -0.2065 -0.8308  0.4132
  266MOL    H2832358   1.071   0.791   3.595  2.1769 -0.2453  0.4817
  266MOL    H2932359   1.039   0.632   3.534 -1.0839  1.1083 -0.2261
  266MOL    H3032360   0.962   0.558   3.762  0.9901 -1.0352 -0.5632
  266MOL    H3132361   0.954   0.727   3.799 -1.2254  0.7081 -0.7448
  266MOL    C3232362   0.807   0.647   3.647  0.1701 -0.3310  0.0359
  266MOL    C3332363   0.745   0.780   3.596 -0.1654  0.7891 -0.6704
  266MOL    H3432364   0.807   0.573   3.567 -2.0260 -2.0195  1.5582
  266MOL    H3532365   0.745   0.612   3.730  0.1384 -2.5590 -0.8986
  266MOL    H3632366   0.767   0.859   3.668 -0.7773  0.8997 -0.5994
  266MOL    H3732367   0.807   0.818   3.515  0.4858 -1.2336 -1.1598
  266MOL    C3832368   0.592   0.770   3.564 -0.0964  0.0932 -0.0514
  266MOL    C3932369   0.537   0.902   3.501  0.0264  0.0211 -0.2691
  266MOL    H4032370   0.574   0.690   3.492 -0.6224 -0.4996  0.7287
  266MOL    H4132371   0.544   0.751   3.661  0.6153  1.5944  0.6153
  266MOL    H4232372   0.541   0.982   3.575  0.3637 -0.5723  0.3527
  266MOL    H4332373   0.602   0.939   3.421 -0.9521  1.3652 -0.4770
  266MOL    C4432374   0.397   0.882   3.446  0.1818  0.4490  0.2775
  266MOL    C4532375   0.351   1.007   3.365  0.3367  0.1286 -0.4069
  266MOL    H4632376   0.398   0.794   3.381  1.4532  0.8237 -0.2206
  266MOL    H4732377   0.329   0.851   3.525 -1.0305 -0.0373 -0.9210
  266MOL    H4832378   0.340   1.094   3.429 -0.5629 -0.7723  0.6892
  266MOL    H4932379   0.431   1.022   3.293  0.2450 -0.4661 -0.6408
  266MOL    C5032380   0.231   0.967   3.280  0.3011  0.3979 -0.0936
  266MOL    C5132381   0.192   1.079   3.176 -1.1122  0.0161 -0.5238
  266MOL    H5232382   0.252   0.884   3.213  0.5976  0.9181 -0.6474
  266MOL    H5332383   0.148   0.932   3.342  0.4779  0.0393 -0.0590
  266MOL    H5432384   0.276   1.100   3.109  0.2586 -3.3893  0.0090
  266MOL    H5532385   0.117   1.039   3.108 -2.8106  1.6222  0.3652
  266MOL    C5632386   0.126   1.204   3.247 -0.3285 -0.1850  0.2192
  266MOL    C5732387   0.127   1.328   3.145  0.3050 -0.0411 -0.1191
  266MOL    H5832388   0.019   1.190   3.266 -0.3320 -0.5064 -0.0299
  266MOL    H5932389   0.188   1.230   3.333  0.4133  0.2729 -0.4523
  266MOL    H6032390   0.222   1.323   3.092  0.4502 -0.6459  0.1858
  266MOL    H6132391   0.045   1.316   3.074  1.4648 -0.8967 -1.3299
  266MOL    C6232392   0.115   1.471   3.200 -0.6901 -0.4342 -0.2233
  266MOL    C6332393   0.239   1.513   3.282  0.5774 -0.3101  0.2428
  266MOL    H6432394   0.085   1.543   3.124  0.9170 -0.6902 -1.1351
  266MOL    H6532395   0.029   1.475   3.266 -1.4661 -0.4330 -1.2181
  266MOL    H6632396   0.244   1.435   3.358 -0.1252 -1.1015 -0.5143
  266MOL    H6732397   0.325   1.522   3.215 -0.0340  1.3384 -0.3567
  266MOL    C6832398   0.225   1.654   3.357  0.0445 -0.4677  1.0390
  266MOL    C6932399   0.342   1.706   3.439 -0.1969  0.7282 -0.5543
  266MOL    H7032400   0.196   1.719   3.275 -2.7562 -0.8491  1.6688
  266MOL    H7132401   0.136   1.640   3.418 -0.6579  1.5938  0.5064
  266MOL    H7232402   0.433   1.691   3.380 -0.7645  0.9137 -1.4899
  266MOL    H7332403   0.325   1.811   3.463  0.1277  0.4205  1.0923
  266MOL    C7432404   0.348   1.643   3.584 -0.1534 -0.0919 -0.3597
  266MOL    C7532405   0.431   1.706   3.699  0.0780 -0.0093  0.0907
  266MOL    H7632406   0.252   1.645   3.635 -0.6736  2.6128 -1.3813
  266MOL    H7732407   0.389   1.543   3.567 -1.6086 -0.6299 -0.7616
  266MOL    H7832408   0.538   1.709   3.678  0.2845  3.6093  1.2665
  266MOL    H7932409   0.398   1.809   3.713  0.2780 -0.0309  0.7811
  266MOL    C8032410   0.407   1.633   3.830  0.2179 -0.2713  0.4529
  266MOL    C8132411   0.490   1.685   3.952  0.5063 -0.0834  0.5427
  266MOL    H8232412   0.304   1.656   3.858  0.6891  2.2994  0.1956
  266MOL    H8332413   0.416   1.528   3.805  2.7640  0.6179 -2.6822
  266MOL    H8432414   0.590   1.701   3.912 -0.2863  0.1395 -1.4241
  266MOL    H8532415   0.450   1.785   3.970 -0.3550 -0.3254 -0.0008
  266MOL    C8632416   0.479   1.599   4.076 -0.2070 -0.3334 -0.3956
  266MOL    C8732417   0.524   1.669   4.197 -0.0012 -0.1386 -0.2158
  266MOL    H8832418   0.375   1.573   4.095  0.2108  0.5159  3.3655
  266MOL    H8932419   0.534   1.505   4.066 -0.7578 -0.9020  1.7248
  266MOL    H9032420   0.497   1.774   4.200  0.4213 -0.0198 -0.4723
  266MOL    H9132421   0.479   1.630   4.288  1.8990 -0.6702  0.5290
  266MOL    C9232422   0.679   1.659   4.219 -0.5085  0.3128  0.2687
  266MOL    C9332423   0.737   1.722   4.345 -0.2993  0.0540 -0.2991
  266MOL    H9432424   0.684   1.551   4.236 -0.1258  0.5610  1.8008
  266MOL    H9532425   0.736   1.683   4.130  0.9418  0.5105  1.2334
  266MOL    H9632426   0.728   1.829   4.324  3.4764  0.1784 -1.5996
  266MOL    H9732427   0.666   1.700   4.424 -0.6630 -0.1477 -0.6780
  266MOL    C9832428   0.877   1.680   4.385 -1.1030 -0.7369 -0.0716
  266MOL    C9932429   0.990   1.754   4.312  0.2438 -0.4087 -0.5416
  266MOL   H10032430   0.881   1.711   4.489 -0.1848 -0.0609 -0.2986
  266MOL   H10132431   0.883   1.571   4.389 -0.8866 -0.7000  0.7995
  266MOL   H10232432   0.974   1.733   4.207 -0.0979 -0.7400 -0.4248
  266MOL   H10332433   0.982   1.860   4.337  2.2065 -0.4662  0.4046
  266MOL   C10432434   1.126   1.692   4.360 -0.0596 -0.1183 -0.1904
  266MOL   C10532435   1.239   1.742   4.281 -0.3081  0.3465 -0.1667
  266MOL   H10632436   1.140   1.718   4.465  0.9150 -0.0142 -0.3463
  266MOL   H10732437   1.119   1.583   4.354 -2.5890 -0.0692  0.9733
  266MOL   H10832438   1.240   1.703   4.179  0.7550  0.0097 -0.0342
  266MOL   H10932439   1.226   1.851   4.274 -3.0255  0.3846  3.7461
  266MOL   C11032440   1.382   1.716   4.338 -0.0496  0.0798  0.3471
  266MOL   C11132441   1.473   1.808   4.256  0.4772  0.3601 -0.0758
  266MOL   H11232442   1.397   1.748   4.441  1.9205  0.6991 -0.1138
  266MOL   H11332443   1.419   1.614   4.330  2.1176  0.9400 -0.9864
  266MOL   H11432444   1.458   1.797   4.149  1.4854  0.3206 -0.2202
  266MOL   H11532445   1.431   1.903   4.290  1.3142  0.1232  1.7042
  266MOL   C11632446   1.624   1.797   4.290 -0.0939  0.3871 -1.0124
  266MOL   C11732447   1.709   1.905   4.222  0.3806 -0.8556 -0.6717
  266MOL   H11832448   1.628   1.824   4.396 -2.1469  1.4481 -1.1804
  266MOL   H11932449   1.664   1.696   4.282  1.3288  0.7907  0.7498
  266MOL   H12032450   1.812   1.899   4.257  0.6877  0.8406 -1.2139
  266MOL   H12132451   1.717   1.896   4.114 -1.0455  1.7360 -1.0458
  266MOL   H12232452   1.671   2.005   4.241 -2.0172 -1.7808 -0.4956
  267MOL     C132453   5.501   1.215   0.452  0.8042  0.4566 -0.1938
  267MOL     C232454   5.373   1.142   0.426  0.4044 -1.0041  0.3423
  267MOL     H332455   5.494   1.280   0.539 -0.6883 -1.4825  1.1716
  267MOL     H432456   5.525   1.275   0.364  0.4137  2.2449  0.9127
  267MOL     H532457   5.398   1.059   0.360 -0.8363  0.5497 -2.1423
  267MOL     H632458   5.337   1.103   0.521 -2.1715 -1.6179 -0.8397
  267MOL     H732459   5.573   1.134   0.467  0.6198 -0.0313 -1.8459
  267MOL     C832460   5.271   1.235   0.362  0.0408  0.1595  0.1802
  267MOL     C932461   5.128   1.166   0.361 -0.3446 -0.0696  0.1501
  267MOL    H1032462   5.275   1.331   0.414 -0.8197  0.9844 -1.2566
  267MOL    H1132463   5.292   1.249   0.256  0.0397  2.1725  0.4187
  267MOL    H1232464   5.115   1.105   0.271 -0.2427  0.1371 -0.0043
  267MOL    H1332465   5.118   1.097   0.445  0.5030 -2.9588 -2.0472
  267MOL    C1432466   5.014   1.267   0.369  0.8024 -0.3199 -0.0637
  267MOL    C1532467   4.881   1.204   0.390 -0.1083 -0.2681 -0.0846
  267MOL    H1632468   5.039   1.335   0.450 -1.4073  0.6935 -0.1901
  267MOL    H1732469   5.013   1.322   0.274 -0.4634 -1.0101 -0.4647
  267MOL    H1832470   4.852   1.129   0.316 -0.2510  0.3622 -0.6771
  267MOL    H1932471   4.893   1.154   0.485 -0.5714  0.1910  0.2200
  267MOL    C2032472   4.794   1.323   0.410 -0.4499 -0.1866 -0.0102
  267MOL    C2132473   4.646   1.281   0.446 -0.0317 -0.3572 -0.0276
  267MOL    H2232474   4.838   1.403   0.469  1.3409 -0.9066 -0.3261
  267MOL    H2332475   4.784   1.371   0.312 -0.9186 -1.2037 -0.4776
  267MOL    H2432476   4.613   1.199   0.383  2.4906 -0.6798 -0.9909
  267MOL    H2532477   4.646   1.240   0.547  0.2619 -0.8127 -0.2111
  267MOL    C2632478   4.546   1.396   0.446 -0.2474 -0.0618 -0.3394
  267MOL    C2732479   4.404   1.342   0.483  0.3211 -0.7496  0.2407
  267MOL    H2832480   4.583   1.476   0.510  0.2297 -0.0708 -0.6034
  267MOL    H2932481   4.548   1.460   0.358  0.5580  0.4196  0.0194
  267MOL    H3032482   4.374   1.259   0.419 -2.2336  1.1176 -1.0590
  267MOL    H3132483   4.397   1.297   0.582 -0.6708 -2.9072 -0.7819
  267MOL    C3232484   4.307   1.457   0.462  0.0342 -0.8821 -0.3303
  267MOL    C3332485   4.171   1.421   0.522 -0.4873 -0.3591  0.3537
  267MOL    H3432486   4.337   1.551   0.509 -0.1466 -1.9643  2.0236
  267MOL    H3532487   4.303   1.491   0.359  1.0600  0.5250  0.0767
  267MOL    H3632488   4.140   1.330   0.471  1.3370 -0.7605 -0.0868
  267MOL    H3732489   4.177   1.396   0.628 -0.2960  2.3740  1.0259
  267MOL    C3832490   4.058   1.519   0.497 -0.3379  0.5107 -0.2708
  267MOL    C3932491   3.924   1.469   0.565 -0.1060  0.4974  0.2199
  267MOL    H4032492   4.081   1.612   0.550  0.1082  0.6568 -0.7148
  267MOL    H4132493   4.049   1.545   0.391 -0.5374  1.4786 -0.0292
  267MOL    H4232494   3.884   1.390   0.502  0.1182  0.2467  0.3931
  267MOL    H4332495   3.951   1.440   0.667  0.1349 -1.3666 -0.3578
  267MOL    C4432496   3.812   1.578   0.568  0.0154 -1.0199  0.6802
  267MOL    C4532497   3.674   1.517   0.606  0.1227  0.4453  0.2182
  267MOL    H4632498   3.841   1.668   0.622 -1.0118 -0.3337  0.0974
  267MOL    H4732499   3.805   1.618   0.467  2.9621 -4.1123 -0.8658
  267MOL    H4832500   3.658   1.432   0.539 -0.0986  0.8797 -0.2797
  267MOL    H4932501   3.667   1.469   0.703 -4.2926 -0.6564 -0.5349
  267MOL    C5032502   3.555   1.613   0.609 -0.1192 -0.4503 -0.5962
  267MOL    C5132503   3.418   1.546   0.655  0.5651  0.1710 -0.2871
  267MOL    H5232504   3.572   1.701   0.671  0.2327  0.3105 -1.7614
  267MOL    H5332505   3.558   1.657   0.510 -1.6020  0.8080 -0.1039
  267MOL    H5432506   3.398   1.446   0.614 -1.4981  0.6271 -0.4257
  267MOL    H5532507   3.444   1.524   0.759  2.1420  2.2993 -0.1949
  267MOL    C5632508   3.304   1.650   0.638 -0.1584 -0.0187 -0.1961
  267MOL    C5732509   3.174   1.582   0.686  0.6232  0.2617  0.3505
  267MOL    H5832510   3.322   1.733   0.706 -0.0745 -0.0547 -0.1736
  267MOL    H5932511   3.293   1.686   0.536 -0.2084  0.5815  0.0212
  267MOL    H6032512   3.161   1.495   0.622 -0.2490  1.4207 -1.0708
  267MOL    H6132513   3.195   1.540   0.784 -0.9677  0.4676  0.7976
  267MOL    C6232514   3.047   1.664   0.687 -0.4784  0.1230  0.0386
  267MOL    C6332515   2.929   1.589   0.735  0.5688 -0.5698 -0.7720
  267MOL    H6432516   3.063   1.750   0.752  0.2758 -0.1842  0.2660
  267MOL    H6532517   3.025   1.722   0.597 -0.9324  0.5225  0.4046
  267MOL    H6632518   2.924   1.483   0.713 -3.9106 -0.9741  1.6495
  267MOL    H6732519   2.929   1.583   0.844 -1.6219  1.1573 -0.6353
  267MOL    C6832520   2.789   1.651   0.685 -0.3999  0.3671  0.7038
  267MOL    C6932521   2.659   1.614   0.763 -0.3610  0.0513 -0.2695
  267MOL    H7032522   2.805   1.759   0.684 -0.5282  0.3852 -1.4394
  267MOL    H7132523   2.786   1.613   0.583 -0.0187  2.1563  0.0161
  267MOL    H7232524   2.638   1.508   0.749  2.2399 -0.7428  1.4481
  267MOL    H7332525   2.668   1.629   0.871  0.2654 -1.1326 -0.1497
  267MOL    C7432526   2.544   1.689   0.703 -0.9647  0.4570  0.2756
  267MOL    C7532527   2.408   1.660   0.770  0.1972 -0.1583  0.4082
  267MOL    H7632528   2.572   1.794   0.704 -0.1344  0.2610 -0.7677
  267MOL    H7732529   2.543   1.674   0.595  0.9022 -0.5765  0.3769
  267MOL    H7832530   2.382   1.555   0.758  1.3063 -0.6779  2.3172
  267MOL    H7932531   2.412   1.690   0.875 -2.0390  0.1032  0.4345
  267MOL    C8032532   2.309   1.748   0.701  0.0350 -0.2032 -0.4821
  267MOL    C8132533   2.168   1.728   0.745  0.0151  0.1899  0.5401
  267MOL    H8232534   2.349   1.848   0.709 -0.7283  0.0624  0.0923
  267MOL    H8332535   2.312   1.730   0.593  0.2973 -0.0334 -0.5022
  267MOL    H8432536   2.156   1.620   0.743  2.5059 -0.0869 -2.6793
  267MOL    H8532537   2.156   1.769   0.846  0.9495  2.7374 -0.3489
  267MOL    C8632538   2.068   1.801   0.647  0.8838  0.6419 -0.3196
  267MOL    C8732539   1.925   1.764   0.674  0.0910 -0.2451 -0.2557
  267MOL    H8832540   2.083   1.909   0.646 -2.0268  1.0902 -0.2241
  267MOL    H8932541   2.104   1.773   0.548  0.3831  1.5490 -0.7649
  267MOL    H9032542   1.909   1.657   0.670 -0.4871 -0.4525  4.5535
  267MOL    H9132543   1.901   1.786   0.778 -0.6197  1.1074 -0.6981
  267MOL    C9232544   1.822   1.830   0.583 -0.0549 -0.1883 -0.3906
  267MOL    C9332545   1.683   1.784   0.619  0.2364  0.3762  0.1654
  267MOL    H9432546   1.826   1.939   0.591  3.2850 -0.3226  0.1153
  267MOL    H9532547   1.850   1.805   0.481  0.6140  1.1870 -0.5524
  267MOL    H9632548   1.671   1.676   0.610 -1.7216  0.5710  0.2431
  267MOL    H9732549   1.660   1.801   0.724  2.7566 -1.2545  0.9953
  267MOL    C9832550   1.572   1.835   0.532 -0.1215 -0.7734 -0.2158
  267MOL    C9932551   1.438   1.779   0.579  0.3280  0.0738  0.1871
  267MOL   H10032552   1.581   1.944   0.525  0.1927 -0.8831 -1.6169
  267MOL   H10132553   1.586   1.808   0.427 -0.5889 -0.0990 -0.4585
  267MOL   H10232554   1.448   1.684   0.631 -2.6021 -0.7976 -0.7521
  267MOL   H10332555   1.393   1.848   0.650  0.8958  1.1033 -0.4411
  267MOL   C10432556   1.332   1.766   0.461 -0.1401 -0.5226 -1.0790
  267MOL   C10532557   1.202   1.851   0.486 -0.1427  0.5818  0.3334
  267MOL   H10632558   1.387   1.803   0.374  0.9968 -1.9861 -1.0047
  267MOL   H10732559   1.311   1.661   0.441 -0.0642 -1.0690  1.5582
  267MOL   H10832560   1.171   1.832   0.588  0.0982  2.0745  0.6976
  267MOL   H10932561   1.230   1.956   0.493 -2.2393  1.1382  0.5471
  267MOL   C11032562   1.086   1.840   0.385 -0.3689  0.7444 -0.1819
  267MOL   C11132563   1.112   1.906   0.248 -0.8235 -0.3052 -0.0556
  267MOL   H11232564   1.084   1.736   0.354 -0.3494  0.5222  0.5603
  267MOL   H11332565   0.987   1.860   0.426  0.1426 -1.9474  2.4318
  267MOL   H11432566   1.216   1.928   0.227 -0.9201  1.0536  0.7906
  267MOL   H11532567   1.096   1.828   0.174 -0.4302 -1.0717  0.6619
  267MOL   C11632568   1.036   2.036   0.223 -0.0337  0.4413 -0.2969
  267MOL   C11732569   1.069   2.097   0.085  0.9846  0.3438 -0.4500
  267MOL   H11832570   0.934   2.003   0.203 -0.8431  0.8588  2.8981
  267MOL   H11932571   1.060   2.110   0.299  2.7890 -0.7883  0.1082
  267MOL   H12032572   1.059   2.205   0.076 -0.0088  0.4397  1.4672
  267MOL   H12132573   1.171   2.075   0.054  0.2859 -2.3671 -0.9579
  267MOL   H12232574   1.009   2.065   7.692  0.9770 -0.5096 -0.1274
  268MOL     C132575   0.222   3.204   5.394 -0.1860  0.1598 -0.4650
  268MOL     C232576   0.105   3.269   5.312 -0.4367  0.0283  0.2047
  268MOL     H332577   0.190   3.125   5.461  1.6319  0.9008  1.3570
  268MOL     H432578   0.270   3.280   5.457  0.5486 -0.4925 -0.2257
  268MOL     H532579   0.133   3.338   5.233 -1.9873  0.6367  0.1735
  268MOL     H632580   0.049   3.186   5.270  0.4856 -1.0346  1.0131
  268MOL     H732581   0.307   3.171   5.334  0.3783  0.8564 -0.0654
  268MOL     C832582   0.001   3.335   5.399  0.1972  0.2036  0.3587
  268MOL     C932583   7.582   3.411   5.326  0.2477 -0.2288  0.0535
  268MOL    H1032584   7.649   3.267   5.472 -1.0887 -0.7148 -1.2240
  268MOL    H1132585   0.060   3.411   5.450 -0.0572  1.5465 -1.2728
  268MOL    H1232586   7.528   3.467   5.403  0.8175  0.2213  0.1281
  268MOL    H1332587   7.617   3.488   5.258 -0.2051 -1.0398 -1.1017
  268MOL    C1432588   7.483   3.316   5.239 -0.3231  0.0903 -0.1036
  268MOL    C1532589   7.396   3.225   5.331 -0.1034 -0.2387 -0.2769
  268MOL    H1632590   7.430   3.377   5.165 -2.4756  0.5088  1.7383
  268MOL    H1732591   7.543   3.235   5.198 -1.2522 -0.2693 -0.7734
  268MOL    H1832592   7.358   3.140   5.276  2.2905 -1.5141 -0.0285
  268MOL    H1932593   7.457   3.186   5.412 -1.4923 -0.1745  0.8138
  268MOL    C2032594   7.267   3.299   5.384 -0.1091 -0.1483 -0.0629
  268MOL    C2132595   7.210   3.225   5.500 -0.1622  0.0742  0.0009
  268MOL    H2232596   7.297   3.399   5.414 -0.4348  0.0225 -0.3023
  268MOL    H2332597   7.196   3.306   5.302 -1.0469  1.5467  0.8766
  268MOL    H2432598   7.187   3.120   5.479 -0.3080 -0.0349  0.6895
  268MOL    H2532599   7.291   3.218   5.573  2.2970  0.2784 -2.6448
  268MOL    C2632600   7.086   3.285   5.559 -0.3215  0.2011  0.0704
  268MOL    C2732601   7.040   3.216   5.688  0.7596 -0.2861  0.2356
  268MOL    H2832602   7.114   3.386   5.589 -1.5041  0.2177  1.1958
  268MOL    H2932603   7.011   3.290   5.480 -0.1734  2.2620  0.0369
  268MOL    H3032604   6.990   3.121   5.668 -0.0456  0.4121 -1.1603
  268MOL    H3132605   7.128   3.198   5.750  1.1230 -3.1058 -0.9771
  268MOL    C3232606   6.928   3.290   5.762  0.1559  0.0818 -0.1753
  268MOL    C3332607   6.884   3.215   5.886 -0.3396  0.3796  0.6368
  268MOL    H3432608   6.954   3.389   5.801  2.2184 -0.5815  0.2412
  268MOL    H3532609   6.837   3.301   5.704  0.4794  0.1873 -0.6637
  268MOL    H3632610   6.872   3.109   5.863 -0.3065  0.6153 -0.4879
  268MOL    H3732611   6.957   3.228   5.966 -1.0040 -1.3166  1.5420
  268MOL    C3832612   6.747   3.264   5.951 -0.7991  0.1517 -0.0540
  268MOL    C3932613   6.695   3.177   6.069  0.4733 -0.5056  0.5346
  268MOL    H4032614   6.761   3.367   5.985 -0.6080  0.2452 -0.4126
  268MOL    H4132615   6.672   3.255   5.873  1.8971  1.4892 -2.9565
  268MOL    H4232616   6.697   3.071   6.044  1.5918  0.1772 -2.4322
  268MOL    H4332617   6.777   3.174   6.140  0.1844  1.6808  1.0093
  268MOL    C4432618   6.562   3.232   6.126  0.6904 -0.2701  0.9463
  268MOL    C4532619   6.507   3.164   6.251 -0.1111  0.3404  0.1990
  268MOL    H4632620   6.568   3.338   6.150 -1.1823  0.4100 -1.3343
  268MOL    H4732621   6.482   3.229   6.052 -2.1873  2.6456  3.7655
  268MOL    H4832622   6.507   3.057   6.230 -0.9901 -0.1224  2.3456
  268MOL    H4932623   6.578   3.180   6.332 -0.3222 -2.5398  1.0017
  268MOL    C5032624   6.363   3.205   6.290 -0.1741 -0.3845 -0.0981
  268MOL    C5132625   6.296   3.106   6.391 -0.2962  0.3809  0.4327
  268MOL    H5232626   6.375   3.305   6.332  2.0515  0.1581 -1.9407
  268MOL    H5332627   6.297   3.208   6.203 -1.1906 -1.3165  0.6373
  268MOL    H5432628   6.276   3.011   6.342  4.1014 -0.0125 -0.8678
  268MOL    H5532629   6.362   3.087   6.476 -1.4241  0.4547  1.3257
  268MOL    C5632630   6.175   3.162   6.465  0.6885 -0.9119 -0.9434
  268MOL    C5732631   6.134   3.075   6.590  0.4002  0.3432 -0.0713
  268MOL    H5832632   6.212   3.253   6.512 -0.0432 -0.9797 -0.2178
  268MOL    H5932633   6.100   3.185   6.389  2.1487  1.8275 -1.6375
  268MOL    H6032634   6.121   2.975   6.548 -1.7238  0.5203  0.0869
  268MOL    H6132635   6.205   3.081   6.672 -0.7765 -1.9065  1.1888
  268MOL    C6232636   6.004   3.130   6.656 -0.2822  0.5997  0.2107
  268MOL    C6332637   6.013   3.278   6.700  0.3179  0.3295  0.0721
  268MOL    H6432638   5.919   3.106   6.593 -1.3164  1.5353  1.2193
  268MOL    H6532639   5.973   3.059   6.733 -1.6550 -1.8145 -2.4970
  268MOL    H6632640   6.107   3.297   6.752  0.6097  1.0684 -0.7131
  268MOL    H6732641   6.021   3.333   6.607  1.8759  0.1421  0.0813
  268MOL    C6832642   5.894   3.311   6.787 -0.1982  0.9383  0.8720
  268MOL    C6932643   5.895   3.457   6.837  0.4134 -0.1389  0.2993
  268MOL    H7032644   5.803   3.272   6.741 -0.1078  0.6042  0.9728
  268MOL    H7132645   5.902   3.252   6.879 -0.3549  0.0429  0.3209
  268MOL    H7232646   5.979   3.464   6.906 -0.1588  1.7502  0.8484
  268MOL    H7332647   5.907   3.526   6.753  2.0734 -1.0145 -0.2037
  268MOL    C7432648   5.767   3.481   6.909 -0.1370 -0.1120 -0.7888
  268MOL    C7532649   5.751   3.627   6.945 -0.1173  0.3309  0.1041
  268MOL    H7632650   5.679   3.446   6.856 -1.1144 -2.5246  2.2559
  268MOL    H7732651   5.761   3.417   6.998 -0.0069  1.1837  0.1671
  268MOL    H7832652   5.843   3.664   6.990  0.9046 -0.4174 -1.3138
  268MOL    H7932653   5.727   3.679   6.852  0.2592  2.1915  1.0279
  268MOL    C8032654   5.640   3.655   7.054 -0.1939 -0.0402 -0.2044
  268MOL    C8132655   5.503   3.618   6.994 -0.5192 -0.0622 -0.2084
  268MOL    H8232656   5.656   3.605   7.150  2.5073  2.7713  0.8991
  268MOL    H8332657   5.640   3.759   7.085 -0.7829 -0.1447  0.1503
  268MOL    H8432658   5.497   3.682   6.906  0.8856  3.1875  2.0050
  268MOL    H8532659   5.493   3.517   6.952 -0.1219  0.1341 -0.7823
  268MOL    C8632660   5.386   3.660   7.089  0.6151  0.3628 -0.0520
  268MOL    C8732661   5.373   3.560   7.209  0.0944  0.7753 -0.2910
  268MOL    H8832662   5.389   3.760   7.132 -1.3759  2.2724 -4.0831
  268MOL    H8932663   5.294   3.642   7.033 -0.7272 -1.8344  2.7398
  268MOL    H9032664   5.414   3.463   7.180 -1.0143  0.5872 -1.2711
  268MOL    H9132665   5.436   3.602   7.287 -1.6231  0.3131  1.3999
  268MOL    C9232666   5.233   3.541   7.260  0.2441 -0.3266  0.6396
  268MOL    C9332667   5.225   3.489   7.400  0.1043  0.4125 -0.0873
  268MOL    H9432668   5.187   3.640   7.259 -1.9554 -1.3189 -0.7573
  268MOL    H9532669   5.176   3.482   7.188  1.4171 -0.6074 -0.0533
  268MOL    H9632670   5.253   3.555   7.482 -0.8721  0.7440 -0.0144
  268MOL    H9732671   5.118   3.481   7.420  0.4717 -0.0587  1.7562
  268MOL    C9832672   5.297   3.362   7.430 -0.2628 -0.1125  0.3214
  268MOL    C9932673   5.253   3.237   7.348 -0.3734  0.9971 -1.0811
  268MOL   H10032674   5.403   3.389   7.432 -0.0876 -0.7213 -0.3657
  268MOL   H10132675   5.291   3.326   7.533  5.6436  1.1834  1.3207
  268MOL   H10232676   5.144   3.236   7.340 -0.3698 -1.7426 -1.3056
  268MOL   H10332677   5.299   3.249   7.251  1.6767 -0.4257 -0.3236
  268MOL   C10432678   5.303   3.105   7.399 -0.8724 -0.3142  0.8795
  268MOL   C10532679   5.260   2.992   7.300 -0.5776 -0.3220  0.2157
  268MOL   H10632680   5.412   3.102   7.392 -0.8295 -0.0622  1.4383
  268MOL   H10732681   5.276   3.086   7.503 -2.7694  1.7205  0.7873
  268MOL   H10832682   5.160   2.999   7.256  0.3119 -1.2899 -2.0592
  268MOL   H10932683   5.323   2.987   7.211  0.0737 -1.3386  0.7263
  268MOL   C11032684   5.256   2.853   7.367 -0.4748  0.2405 -0.3296
  268MOL   C11132685   5.231   2.730   7.286  1.2172  0.6430 -0.3094
  268MOL   H11232686   5.346   2.846   7.428 -0.8277  0.5497  0.2261
  268MOL   H11332687   5.179   2.871   7.442 -0.5033 -0.5146 -0.1702
  268MOL   H11432688   5.142   2.748   7.225  2.0890 -1.8512 -2.4199
  268MOL   H11532689   5.316   2.730   7.217  1.7759 -0.7636  0.3622
  268MOL   C11632690   5.232   2.594   7.360 -0.0467 -0.1286 -0.5607
  268MOL   C11732691   5.187   2.475   7.277 -0.4267  0.3645  0.6305
  268MOL   H11832692   5.325   2.573   7.413 -1.3132 -3.0918  0.6021
  268MOL   H11932693   5.153   2.588   7.436  1.2111 -1.1001  0.6925
  268MOL   H12032694   5.182   2.382   7.334  1.8821 -0.0907  0.1468
  268MOL   H12132695   5.091   2.493   7.229 -0.9655 -2.6981  0.4600
  268MOL   H12232696   5.249   2.460   7.189 -3.1784  2.1937 -1.7120
  269MOL     C132697   0.711   3.294   0.074 -0.0575  0.6123  0.6666
  269MOL     C232698   0.855   3.308   0.044 -0.4153  0.0015 -0.1833
  269MOL     H332699   0.697   3.189   0.099  2.5180 -0.2989 -1.4778
  269MOL     H432700   0.637   3.314   7.688 -0.1648 -0.8935  0.3781
  269MOL     H532701   0.905   3.272   0.134  1.0071 -0.7482 -1.2489
  269MOL     H632702   0.882   3.250   7.648 -1.3514 -3.1354  1.5387
  269MOL     H732703   0.689   3.347   0.167 -0.7723  1.3800  0.0797
  269MOL     C832704   0.906   3.453   0.024  0.2009  1.2793  0.5897
  269MOL     C932705   1.050   3.475   7.655 -0.6662 -0.7849  0.0321
  269MOL    H1032706   0.827   3.513   7.672 -0.1305  0.1095 -0.4372
  269MOL    H1132707   0.925   3.489   0.125 -2.4781  0.6097  1.3523
  269MOL    H1232708   1.122   3.412   0.016  0.7904 -1.2952 -2.4654
  269MOL    H1332709   1.053   3.437   7.552  2.0024 -0.4607 -0.0454
  269MOL    C1432710   1.091   3.626   7.661  0.9547  0.0339  0.3109
  269MOL    C1532711   1.201   3.655   7.567 -0.4189 -0.1134 -0.2329
  269MOL    H1632712   1.005   3.684   7.626  0.0237 -0.6740  1.3804
  269MOL    H1732713   1.118   3.657   0.069  3.3911  0.7610 -0.5481
  269MOL    H1832714   1.283   3.593   7.604 -0.2162  0.5070  0.3792
  269MOL    H1932715   1.171   3.632   7.465 -0.9776 -0.8338  0.0890
  269MOL    C2032716   1.254   3.797   7.586  0.1929  0.2228 -0.1057
  269MOL    C2132717   1.350   3.833   7.468 -0.0752  0.0409 -0.6522
  269MOL    H2232718   1.186   3.882   7.589  0.3620  0.3424  0.4857
  269MOL    H2332719   1.304   3.804   7.683  2.3497  1.2777 -1.2678
  269MOL    H2432720   1.444   3.779   7.472 -0.1086  0.1742  3.2958
  269MOL    H2532721   1.311   3.801   7.371 -2.2477 -0.4032  0.3400
  269MOL    C2632722   1.386   3.991   7.469 -0.5543  0.1335 -0.5942
  269MOL    C2732723   1.476   4.034   7.592  0.4376 -0.1834  0.4400
  269MOL    H2832724   1.437   4.020   7.377  0.3078  1.4141  0.2670
  269MOL    H2932725   1.295   4.049   7.460 -1.2083 -0.6018  1.1441
  269MOL    H3032726   1.431   4.013   7.689 -0.6089  0.0941  0.0245
  269MOL    H3132727   1.570   3.979   7.586  1.1522  1.0432  0.2959
  269MOL    C3232728   1.507   4.178   7.594  0.1395  0.3705 -0.1405
  269MOL    C3332729   1.626   4.223   7.687  0.3881  0.2446  0.1003
  269MOL    H3432730   1.541   4.191   7.492 -0.1676  1.5035 -0.1096
  269MOL    H3532731   1.420   4.242   7.608 -1.1009 -1.0798 -1.0291
  269MOL    H3632732   1.599   4.211   0.100  2.0836 -0.4609  0.4676
  269MOL    H3732733   1.708   4.153   7.673 -2.2513 -3.2135  1.0738
  269MOL    C3832734   1.660   4.368   7.658  0.5797  0.6060  0.0273
  269MOL    C3932735   1.765   4.420   0.064 -0.1593  0.1659 -0.8337
  269MOL    H4032736   1.693   4.380   7.555  0.8982 -3.0100 -0.3646
  269MOL    H4132737   1.573   4.435   7.660  0.2960  0.2613 -0.5409
  269MOL    H4232738   1.724   4.412   0.165 -1.8547  0.0959 -1.5145
  269MOL    H4332739   1.856   4.361   0.062  0.3851  0.9303  0.4894
  269MOL    C4432740   1.811   4.559   0.033  0.3447  0.8134  0.8626
  269MOL    C4532741   1.926   4.602   0.134  0.4396  0.3708  0.2698
  269MOL    H4632742   1.856   4.570   7.626 -0.0742  0.7002  0.6582
  269MOL    H4732743   1.717   4.613   0.043  0.3076  1.1676 -1.1392
  269MOL    H4832744   1.888   4.589   0.235 -0.9592  0.9806 -0.1710
  269MOL    H4932745   2.012   4.536   0.125  1.8103  2.4327 -2.9612
  269MOL    C5032746   1.954   4.748   0.128  0.5111 -0.4716  0.9348
  269MOL    C5132747   2.043   4.801   0.245 -0.2360  0.2212  0.0653
  269MOL    H5232748   1.992   4.762   0.027  1.4706  1.4026  1.5282
  269MOL    H5332749   1.859   4.802   0.129  0.9024  0.3058 -1.4772
  269MOL    H5432750   2.005   4.766   0.341 -2.1258  1.4197 -0.2351
  269MOL    H5532751   2.142   4.757   0.235  0.8015  2.1179  1.6576
  269MOL    C5632752   2.047   4.956   0.247 -0.1836  0.7479 -0.0033
  269MOL    C5732753   2.114   5.013   0.373 -0.0229 -0.4365  0.4257
  269MOL    H5832754   2.097   4.996   0.158 -0.7177  1.2775 -0.0676
  269MOL    H5932755   1.943   4.988   0.253 -0.5836 -0.6868  0.7167
  269MOL    H6032756   2.124   5.121   0.366  0.4944 -0.4946  0.2196
  269MOL    H6132757   2.055   4.999   0.464  2.3766 -1.4504  1.9039
  269MOL    C6232758   2.254   4.957   0.405 -0.4099 -0.1459 -0.0555
  269MOL    C6332759   2.356   5.024   0.309 -0.1507  0.0547 -0.4461
  269MOL    H6432760   2.285   4.977   0.507  0.6836  0.2686 -0.4646
  269MOL    H6532761   2.265   4.849   0.399 -2.4227 -0.4565  1.4194
  269MOL    H6632762   2.341   5.003   0.203  2.4135  1.6622 -1.1875
  269MOL    H6732763   2.341   5.132   0.317  1.7347  0.2191  1.4000
  269MOL    C6832764   2.504   5.005   0.345  0.0651  0.1030 -0.1119
  269MOL    C6932765   2.580   4.887   0.281  0.0538 -0.4045 -0.0261
  269MOL    H7032766   2.547   5.100   0.314  1.8897 -1.0357 -1.1425
  269MOL    H7132767   2.511   4.999   0.453  0.3742 -0.3596 -0.1572
  269MOL    H7232768   2.612   4.923   0.183  2.2361 -1.1982  0.3677
  269MOL    H7332769   2.671   4.872   0.339  0.2538  0.7562 -0.0245
  269MOL    C7432770   2.514   4.749   0.269 -0.2881 -0.0756 -0.4038
  269MOL    C7532771   2.597   4.633   0.217  1.0056 -0.0557 -0.2535
  269MOL    H7632772   2.476   4.721   0.368  1.7723  0.6184  0.6122
  269MOL    H7732773   2.422   4.761   0.212 -0.8813  5.4804  1.4128
  269MOL    H7832774   2.676   4.655   0.145 -1.2120  0.4604 -2.5989
  269MOL    H7932775   2.651   4.596   0.304  0.9657  1.8047  0.5977
  269MOL    C8032776   2.510   4.532   0.152 -0.0798 -0.3450  0.7774
  269MOL    C8132777   2.431   4.462   0.258  0.0790 -0.4073 -0.3369
  269MOL    H8232778   2.447   4.589   0.084 -1.1267 -0.6562  1.4723
  269MOL    H8332779   2.573   4.461   0.098 -0.3959 -1.6966  2.1264
  269MOL    H8432780   2.481   4.449   0.354 -0.2157 -1.7683 -0.3483
  269MOL    H8532781   2.340   4.519   0.277  0.2526  0.5938 -2.4278
  269MOL    C8632782   2.393   4.323   0.202  0.2911 -1.1281 -0.2891
  269MOL    C8732783   2.283   4.245   0.291  0.0048 -0.0019  0.1913
  269MOL    H8832784   2.342   4.327   0.106 -0.2917  0.3199  0.0680
  269MOL    H8932785   2.477   4.255   0.188  0.5540 -0.6999 -0.8265
  269MOL    H9032786   2.259   4.146   0.253  1.9068 -1.2410  2.1186
  269MOL    H9132787   2.332   4.218   0.384  1.9017  1.4053 -0.3622
  269MOL    C9232788   2.150   4.318   0.298  0.4041 -0.0133 -0.3359
  269MOL    C9332789   2.022   4.239   0.329  0.1909  0.1627 -1.2133
  269MOL    H9432790   2.169   4.405   0.361 -0.6578  2.0788 -2.7662
  269MOL    H9532791   2.133   4.352   0.195 -3.3435 -2.4228 -0.6372
  269MOL    H9632792   1.931   4.298   0.319  0.1830  0.2058 -0.8759
  269MOL    H9732793   2.000   4.155   0.262  2.1227  1.0321 -2.9882
  269MOL    C9832794   2.030   4.186   0.476  0.3062  0.3688 -0.0471
  269MOL    C9932795   1.908   4.097   0.500 -0.0385  0.3455 -0.3354
  269MOL   H10032796   2.118   4.122   0.479 -0.8942 -1.3047  0.8742
  269MOL   H10132797   2.047   4.273   0.539 -0.1708  0.4873 -0.0763
  269MOL   H10232798   1.821   4.140   0.450  0.2849  0.5166 -0.7477
  269MOL   H10332799   1.927   4.003   0.449  1.9204 -0.4433  1.7663
  269MOL   C10432800   1.879   4.062   0.649  0.2750 -0.1769 -0.1397
  269MOL   C10532801   1.779   3.954   0.671  0.6646  0.3178 -0.2874
  269MOL   H10632802   1.979   4.040   0.688  1.6753  2.2588 -2.2010
  269MOL   H10732803   1.839   4.148   0.704  2.0289 -0.2590  1.2954
  269MOL   H10832804   1.750   3.947   0.776  0.3765  4.2631 -0.0145
  269MOL   H10932805   1.691   3.977   0.610  0.3184 -2.4721 -0.8925
  269MOL   C11032806   1.827   3.814   0.634  0.0199 -0.5398  0.6557
  269MOL   C11132807   1.704   3.718   0.654 -0.5935 -0.5868 -0.1746
  269MOL   H11232808   1.863   3.806   0.531 -0.5639  0.6005  0.3588
  269MOL   H11332809   1.907   3.771   0.695  0.1817  1.3550  1.8129
  269MOL   H11432810   1.651   3.741   0.746  3.1729  0.4609  1.8523
  269MOL   H11532811   1.645   3.739   0.564 -2.0405  0.1834  0.9359
  269MOL   C11632812   1.734   3.571   0.658 -0.3440 -0.1552 -0.0902
  269MOL   C11732813   1.616   3.482   0.648  0.0647  0.2284  0.0930
  269MOL   H11832814   1.798   3.543   0.575  0.5290 -1.1795  0.9032
  269MOL   H11932815   1.802   3.553   0.741  0.3079  0.0007 -0.5854
  269MOL   H12032816   1.626   3.386   0.699 -3.4021 -0.0000  0.4355
  269MOL   H12132817   1.531   3.527   0.699 -0.6366 -0.6759 -0.2626
  269MOL   H12232818   1.596   3.457   0.544 -3.6416 -0.1844  0.8468
  270MOL     C132819   1.458   5.743   0.104  0.2699  0.1064 -0.2147
  270MOL     C232820   1.375   5.618   0.123  0.3687  0.0432 -0.0576
  270MOL     H332821   1.415   5.815   0.035  0.6068  0.8383  0.3269
  270MOL     H432822   1.555   5.719   0.060 -1.0643 -3.0082 -1.5811
  270MOL     H532823   1.298   5.630   0.199 -0.3136  2.1297 -1.0297
  270MOL     H632824   1.328   5.598   0.027 -1.3522 -0.0006  0.7803
  270MOL     H732825   1.489   5.782   0.202 -1.4354 -0.8307  0.7131
  270MOL     C832826   1.460   5.499   0.166 -0.0473  0.2878  0.7603
  270MOL     C932827   1.392   5.367   0.148  0.1066  0.0506 -0.2219
  270MOL    H1032828   1.559   5.488   0.121 -0.6038 -0.2636 -0.3517
  270MOL    H1132829   1.487   5.509   0.271 -0.5310  0.5593  0.8618
  270MOL    H1232830   1.289   5.365   0.184 -0.2343  1.2537 -1.1106
  270MOL    H1332831   1.380   5.352   0.040  0.1964  0.8664 -0.3435
  270MOL    C1432832   1.474   5.251   0.194 -0.2492  0.3113 -0.0416
  270MOL    C1532833   1.411   5.109   0.184  0.2296  0.6580 -0.2229
  270MOL    H1632834   1.571   5.252   0.145  0.5149 -0.5707  1.4229
  270MOL    H1732835   1.503   5.262   0.299  2.3388 -0.3356 -0.6780
  270MOL    H1832836   1.479   5.036   0.227 -0.3347 -0.4136 -1.0882
  270MOL    H1932837   1.322   5.108   0.247 -1.6530  2.2953 -2.7535
  270MOL    C2032838   1.370   5.066   0.041 -0.3046  0.3616  0.3797
  270MOL    C2132839   1.336   4.919   0.041 -0.0231 -0.0327 -0.1404
  270MOL    H2232840   1.294   5.130   7.687  0.6073 -0.0111 -1.7318
  270MOL    H2332841   1.460   5.086   7.675 -0.5986 -0.1881 -0.2751
  270MOL    H2432842   1.411   4.857   0.090  0.4381 -0.8674 -1.8393
  270MOL    H2532843   1.243   4.890   0.090  1.1519 -0.3582  1.9483
  270MOL    C2632844   1.312   4.862   7.596  0.5639 -0.1853  0.2922
  270MOL    C2732845   1.325   4.712   7.594 -0.1135  0.1115  0.1401
  270MOL    H2832846   1.213   4.885   7.557  0.8799 -0.7464 -0.8621
  270MOL    H2932847   1.389   4.914   7.541 -0.4135  1.3121  0.3206
  270MOL    H3032848   1.424   4.696   7.638  1.5779  0.8807 -3.2621
  270MOL    H3132849   1.257   4.669   7.668  1.9218 -0.2485  1.8692
  270MOL    C3232850   1.302   4.649   7.458  0.6821  0.0378  0.0047
  270MOL    C3332851   1.287   4.500   7.470 -0.2515  0.3508 -0.0562
  270MOL    H3432852   1.210   4.684   7.411  0.2181  0.2520  1.0608
  270MOL    H3532853   1.383   4.676   7.392  1.4370 -0.3713  0.7564
  270MOL    H3632854   1.390   4.470   7.489 -0.5478 -0.6854 -0.0682
  270MOL    H3732855   1.226   4.485   7.559  1.1144  0.5320  0.9263
  270MOL    C3832856   1.239   4.438   7.338  0.0634 -0.4435 -0.5672
  270MOL    C3932857   1.245   4.283   7.336 -1.0111 -0.3744  0.1117
  270MOL    H4032858   1.139   4.478   7.323 -0.3781 -1.0220  0.7568
  270MOL    H4132859   1.295   4.473   7.251  1.0284  0.3758  0.3716
  270MOL    H4232860   1.344   4.248   7.362 -0.7994 -0.2367 -0.4914
  270MOL    H4332861   1.177   4.257   7.417 -0.7350 -0.9696  0.1541
  270MOL    C4432862   1.198   4.221   7.198  0.3743  0.3170 -0.0971
  270MOL    C4532863   1.190   4.073   7.192  0.2417  0.5574  0.3789
  270MOL    H4632864   1.099   4.251   7.163 -0.0953 -0.6213  0.4199
  270MOL    H4732865   1.268   4.266   7.128  2.8989 -0.7828  1.6398
  270MOL    H4832866   1.294   4.047   7.213  0.0716  0.4822  1.1283
  270MOL    H4932867   1.128   4.031   7.271 -2.4918  0.0760 -1.9424
  270MOL    C5032868   1.156   4.014   7.050  0.0399  0.8628 -0.5347
  270MOL    C5132869   1.162   3.860   7.042 -0.1027  0.6208 -0.5220
  270MOL    H5232870   1.055   4.043   7.020 -0.6808 -1.7772 -0.8239
  270MOL    H5332871   1.222   4.059   6.976 -0.9922  1.9595 -0.8103
  270MOL    H5432872   1.255   3.830   7.089 -1.4960 -1.8051  0.7799
  270MOL    H5532873   1.071   3.822   7.089 -1.4377  3.2002 -0.9233
  270MOL    C5632874   1.156   3.792   6.905 -0.1077 -0.0891 -0.5912
  270MOL    C5732875   1.154   3.641   6.914 -0.1012  0.2423  0.5857
  270MOL    H5832876   1.076   3.826   6.840 -0.5744  1.9936  1.0416
  270MOL    H5932877   1.245   3.828   6.854  0.5126 -0.2514  0.3594
  270MOL    H6032878   1.143   3.621   7.020 -1.1608  0.2550  0.4772
  270MOL    H6132879   1.069   3.597   6.863  0.9616 -0.7281 -0.4010
  270MOL    C6232880   1.279   3.576   6.842  0.5437 -0.4456  0.4096
  270MOL    C6332881   1.411   3.588   6.916 -0.5625 -0.4792  0.8465
  270MOL    H6432882   1.256   3.470   6.827 -4.7795  0.4353  1.6272
  270MOL    H6532883   1.282   3.612   6.739 -3.8735  0.2517  0.4615
  270MOL    H6632884   1.444   3.692   6.912 -1.3142 -0.2808 -0.3805
  270MOL    H6732885   1.387   3.566   7.021  0.9119  0.2321  1.3410
  270MOL    C6832886   1.521   3.492   6.884 -0.3209 -0.5388  0.2477
  270MOL    C6932887   1.638   3.518   6.979  0.2621  0.3402 -0.0305
  270MOL    H7032888   1.492   3.388   6.886 -3.0608  0.1458 -1.5518
  270MOL    H7132889   1.567   3.517   6.788  0.5210 -0.5037  0.6548
  270MOL    H7232890   1.642   3.626   6.972  0.9898  0.3026 -0.1508
  270MOL    H7332891   1.608   3.494   7.081  1.7860  1.7122  0.7515
  270MOL    C7432892   1.771   3.444   6.942 -0.7366  0.2237  0.2891
  270MOL    C7532893   1.898   3.494   7.015 -0.4980 -0.3308  0.4322
  270MOL    H7632894   1.763   3.336   6.946 -0.4087  0.1034 -1.7913
  270MOL    H7732895   1.794   3.457   6.836  0.3829 -1.7724  0.2734
  270MOL    H7832896   1.920   3.601   7.014  3.2382 -1.0367  0.2198
  270MOL    H7932897   1.867   3.481   7.118  0.7355 -1.4121  0.6920
  270MOL    C8032898   2.023   3.412   6.968 -0.0927  0.7072  0.5666
  270MOL    C8132899   2.143   3.443   7.056  0.1769 -0.7069 -0.3373
  270MOL    H8232900   2.007   3.304   6.965 -1.2650  0.9198 -1.5142
  270MOL    H8332901   2.039   3.441   6.864  1.5022 -0.1654  0.5479
  270MOL    H8432902   2.144   3.549   7.083  2.6656 -0.4425 -1.2709
  270MOL    H8532903   2.135   3.388   7.149 -4.2728  1.2255  0.5284
  270MOL    C8632904   2.276   3.408   6.996  0.0838 -0.0102  0.1722
  270MOL    C8732905   2.402   3.442   7.076 -0.2213 -0.3546  0.6108
  270MOL    H8832906   2.270   3.305   6.960  1.7449  0.6499 -2.1707
  270MOL    H8932907   2.279   3.457   6.898  2.2101 -0.7393 -0.1613
  270MOL    H9032908   2.385   3.527   7.141  0.3654 -1.6896  2.5540
  270MOL    H9132909   2.426   3.359   7.143 -1.4328  0.4999  2.1261
  270MOL    C9232910   2.528   3.465   7.000 -0.6086  0.1004  0.4819
  270MOL    C9332911   2.632   3.546   7.081 -0.6467 -0.1006 -0.0271
  270MOL    H9432912   2.580   3.377   6.962 -0.0053  0.5367  0.2951
  270MOL    H9532913   2.494   3.521   6.913  1.8324  2.8812  1.2236
  270MOL    H9632914   2.715   3.582   7.019 -0.2402 -0.8895  0.0511
  270MOL    H9732915   2.575   3.636   7.102 -0.8347 -0.5361  1.3346
  270MOL    C9832916   2.683   3.474   7.208  0.1729  0.3393 -0.3500
  270MOL    C9932917   2.784   3.554   7.286 -0.4443  0.3147  0.4432
  270MOL   H10032918   2.598   3.442   7.268  0.0730 -2.7048 -2.0194
  270MOL   H10132919   2.740   3.386   7.179  1.8746  1.6932 -1.2281
  270MOL   H10232920   2.819   3.499   7.373  0.7662  1.3140  0.5911
  270MOL   H10332921   2.871   3.565   7.222 -2.1765  0.4930 -1.9223
  270MOL   C10432922   2.724   3.685   7.333 -0.2289  0.3019  0.2694
  270MOL   C10532923   2.818   3.752   7.428 -0.5624 -0.5446  0.8099
  270MOL   H10632924   2.713   3.746   7.243  0.6393 -0.9973 -0.7394
  270MOL   H10732925   2.625   3.680   7.378 -0.1402 -1.7585  0.3038
  270MOL   H10832926   2.906   3.775   7.369 -1.5522  2.5558  0.4320
  270MOL   H10932927   2.766   3.846   7.448 -0.5785 -0.4287  0.2237
  270MOL   C11032928   2.841   3.683   7.565  0.9173 -0.7249 -0.8808
  270MOL   C11132929   2.886   3.783   7.671  0.4050  0.7899  0.2620
  270MOL   H11232930   2.748   3.643   7.604  0.5415  0.0723 -0.9419
  270MOL   H11332931   2.909   3.598   7.559  0.7895 -0.6786 -3.2060
  270MOL   H11432932   2.967   3.851   7.644  2.2104 -0.7764  1.6659
  270MOL   H11532933   2.802   3.848   0.002  1.7589  2.4262  0.7325
  270MOL   C11632934   2.940   3.710   0.096 -0.7242  0.0702 -0.1910
  270MOL   C11732935   2.995   3.802   0.204  0.0418 -0.0855  0.3079
  270MOL   H11832936   2.863   3.638   0.126 -2.0163  1.4736 -0.0809
  270MOL   H11932937   3.017   3.639   0.066  1.9853  1.2750  3.5491
  270MOL   H12032938   3.071   3.867   0.161  0.8455 -0.2731  1.4149
  270MOL   H12132939   2.912   3.863   0.239 -0.0927  0.7714 -1.4561
  270MOL   H12232940   3.047   3.750   0.284  0.5280 -1.4612 -0.8842
  271MOL     C132941   7.357   0.248   7.093 -0.2767 -0.8394  0.0416
  271MOL     C232942   7.328   0.144   6.979  0.3768  0.2095 -0.0688
  271MOL     H332943   7.277   0.322   7.101  0.8445  0.5353 -1.1605
  271MOL     H432944   7.443   0.314   7.080 -0.8182 -0.6234 -2.7043
  271MOL     H532945   7.396   0.060   6.996 -1.1882 -1.4350 -1.7593
  271MOL     H632946   7.228   0.107   6.999  0.1830  0.5715 -0.3637
  271MOL     H732947   7.362   0.208   7.194  1.6923  0.6144  0.5710
  271MOL     C832948   7.314   0.202   6.835  0.4318 -0.0336 -0.1336
  271MOL     C932949   7.269   0.101   6.729 -0.2438 -0.0848 -0.0693
  271MOL    H1032950   7.237   0.278   6.844  0.6525  0.3340 -1.3085
  271MOL    H1132951   7.403   0.260   6.808  0.2382  0.1610 -0.3498
  271MOL    H1232952   7.336   0.016   6.745  0.9327  0.6666 -0.9729
  271MOL    H1332953   7.171   0.064   6.760 -0.8484  0.5440 -1.1829
  271MOL    C1432954   7.267   0.141   6.583  0.6672  0.1099 -0.4428
  271MOL    C1532955   7.261   0.027   6.481  0.4516 -0.2670 -0.4204
  271MOL    H1632956   7.178   0.203   6.576 -1.2112 -2.5063 -0.3107
  271MOL    H1732957   7.352   0.207   6.565  1.2617 -0.6336 -0.4030
  271MOL    H1832958   7.355   7.664   6.469  0.0455 -1.0674  0.0126
  271MOL    H1932959   7.196   7.640   6.517 -0.4239  0.2540 -0.8566
  271MOL    C2032960   7.210   0.069   6.339  0.4182 -0.5479 -0.3461
  271MOL    C2132961   7.226   7.657   6.229 -0.5495 -0.2726 -0.1568
  271MOL    H2232962   7.109   0.109   6.346  0.9643  0.5019  2.8172
  271MOL    H2332963   7.269   0.159   6.320 -2.3879  1.8057  1.5902
  271MOL    H2432964   7.333   7.635   6.234 -0.6053 -0.6061 -0.3919
  271MOL    H2532965   7.169   7.574   6.271 -4.3155  3.4549  2.4823
  271MOL    C2632966   7.172   7.685   6.087  0.0320 -0.1702 -0.0338
  271MOL    C2732967   7.145   7.551   6.016 -0.3845  0.0762 -0.2095
  271MOL    H2832968   7.085   0.059   6.086 -1.1655 -1.5841  3.1126
  271MOL    H2932969   7.250   0.050   6.037  0.0562  0.3398  0.5746
  271MOL    H3032970   7.238   7.494   6.015 -0.4499 -0.0247 -1.7143
  271MOL    H3132971   7.081   7.484   6.072 -1.9522  2.0900  0.4956
  271MOL    C3232972   7.092   7.565   5.872 -0.7159  0.1402 -0.4317
  271MOL    C3332973   7.096   7.440   5.781 -0.1728 -0.1323 -0.1312
  271MOL    H3432974   6.992   7.604   5.888 -0.9647 -1.0218  0.8838
  271MOL    H3532975   7.138   7.651   5.821 -1.8268  1.9180  1.4823
  271MOL    H3632976   7.200   7.413   5.762  0.4927  1.4879  1.0623
  271MOL    H3732977   7.042   7.352   5.817 -0.4892 -0.0292 -0.3554
  271MOL    C3832978   7.035   7.469   5.636  0.0668 -0.5203 -0.9577
  271MOL    C3932979   7.064   7.360   5.530  0.3145  0.3066 -0.7589
  271MOL    H4032980   6.927   7.477   5.633  0.0853  0.3988  0.3017
  271MOL    H4132981   7.069   7.567   5.600 -1.8410  0.8735  0.9017
  271MOL    H4232982   7.166   7.324   5.541 -0.0025 -0.4391 -0.2491
  271MOL    H4332983   6.995   7.278   5.550  1.6855 -1.0672 -1.6029
  271MOL    C4432984   7.056   7.398   5.381  0.2227  0.4822 -0.2184
  271MOL    C4532985   7.076   7.280   5.283 -0.0263  0.1020  0.6669
  271MOL    H4632986   6.957   7.443   5.371 -0.8779 -1.8428 -0.0098
  271MOL    H4732987   7.135   7.468   5.355  1.0253 -0.0099  0.9112
  271MOL    H4832988   7.176   7.240   5.297  0.2736 -0.0286 -1.7353
  271MOL    H4932989   7.003   7.199   5.293 -1.3407  1.0403 -1.0721
  271MOL    C5032990   7.071   7.325   5.139  0.0459 -0.0167  0.5805
  271MOL    C5132991   7.107   7.217   5.032  0.0459  0.3088 -0.1625
  271MOL    H5232992   6.969   7.357   5.122 -0.5062 -2.9244 -2.3063
  271MOL    H5332993   7.131   7.416   5.132 -2.5145  1.7866  1.5888
  271MOL    H5432994   7.202   7.169   5.056 -1.1585 -1.5416  1.0670
  271MOL    H5532995   7.035   7.135   5.037 -1.1212  1.2658 -0.8544
  271MOL    C5632996   7.102   7.262   4.885 -0.4106 -0.4876  0.3548
  271MOL    C5732997   7.136   7.148   4.790  0.0151 -0.4261  0.0068
  271MOL    H5832998   7.004   7.307   4.871  0.6258  1.4573 -0.9994
  271MOL    H5932999   7.163   7.352   4.875 -0.2293 -0.7435 -0.9261
  271MOL    H6033000   7.242   7.125   4.795  0.1274  0.2728  0.9026
  271MOL    H6133001   7.085   7.061   4.830  2.1457 -1.5253  0.4125
  271MOL    C6233002   7.104   7.181   4.650  0.5307  0.0443  0.3823
  271MOL    C6333003   7.070   7.060   4.566  0.0100  0.1217  0.2962
  271MOL    H6433004   7.014   7.241   4.657 -0.1278 -0.5662 -2.3000
  271MOL    H6533005   7.182   7.245   4.607  0.9371 -0.0194  1.0086
  271MOL    H6633006   7.156   7.000   4.596  0.4545  0.0590 -1.0589
  271MOL    H6733007   6.975   7.009   4.581  0.1727 -0.1095  0.5495
  271MOL    C6833008   7.093   7.090   4.423  0.3171 -0.0727 -0.7833
  271MOL    C6933009   7.128   6.958   4.351 -0.2880  0.1914 -0.3230
  271MOL    H7033010   7.000   7.130   4.383 -0.4960 -0.1716  0.9509
  271MOL    H7133011   7.175   7.157   4.398  1.4175 -0.3531  1.8828
  271MOL    H7233012   7.219   6.918   4.395  0.1692  2.7161  1.1359
  271MOL    H7333013   7.047   6.889   4.374  0.3198 -0.1346  0.8826
  271MOL    C7433014   7.135   6.976   4.201 -0.1923  0.8381  0.4108
  271MOL    C7533015   7.114   6.846   4.123 -0.1979  0.1665  0.7349
  271MOL    H7633016   7.056   7.046   4.178 -3.2711 -2.8727 -0.7656
  271MOL    H7733017   7.223   7.036   4.177 -1.4985  2.0866 -1.3513
  271MOL    H7833018   7.190   6.775   4.156 -1.3536 -1.3356  0.2203
  271MOL    H7933019   7.015   6.817   4.158 -0.7611  0.3396 -0.7020
  271MOL    C8033020   7.097   6.878   3.976 -0.0471 -0.0126  0.2848
  271MOL    C8133021   7.073   6.750   3.895  0.3475  0.0539 -0.3426
  271MOL    H8233022   7.016   6.950   3.965  0.5879  1.3794  4.0816
  271MOL    H8333023   7.182   6.932   3.935 -0.2033  2.2010  2.7911
  271MOL    H8433024   7.163   6.689   3.906 -0.6224 -1.3885 -0.2787
  271MOL    H8533025   6.986   6.690   3.922  0.0735  0.2353 -0.8172
  271MOL    C8633026   7.061   6.789   3.748  0.3815 -0.0521  0.4368
  271MOL    C8733027   6.943   6.873   3.695 -0.4095  0.1235  0.4821
  271MOL    H8833028   7.153   6.845   3.734  0.0061  0.4223 -0.1204
  271MOL    H8933029   7.057   6.710   3.673 -3.5720  0.3258  0.1414
  271MOL    H9033030   6.949   6.974   3.736 -0.7096  0.5576 -0.5127
  271MOL    H9133031   6.970   6.883   3.590 -2.3648  0.4953 -0.0098
  271MOL    C9233032   6.803   6.817   3.715 -0.3814 -0.3726  0.6996
  271MOL    C9333033   6.691   6.903   3.639 -0.5698  0.7311 -0.0906
  271MOL    H9433034   6.801   6.714   3.678 -1.9506  0.6651 -2.2202
  271MOL    H9533035   6.781   6.801   3.820 -0.4668 -2.4723  0.3809
  271MOL    H9633036   6.694   7.009   3.663  0.4996  1.0356 -1.4552
  271MOL    H9733037   6.716   6.916   3.533  1.7797  0.7964  0.4472
  271MOL    C9833038   6.554   6.863   3.673  0.1352  0.4360 -1.3084
  271MOL    C9933039   6.482   6.929   3.790  0.4337  0.8777 -0.0473
  271MOL   H10033040   6.494   6.881   3.584 -0.0175 -1.1753 -1.5466
  271MOL   H10133041   6.543   6.755   3.682 -0.7260  0.6645  0.5727
  271MOL   H10233042   6.504   6.887   3.888  2.1417  0.3726 -0.6152
  271MOL   H10333043   6.515   7.033   3.788  2.2102  0.3240 -0.5045
  271MOL   C10433044   6.329   6.911   3.782 -0.8556 -0.2633  0.4339
  271MOL   C10533045   6.253   6.984   3.892 -0.7219 -0.1316  0.3627
  271MOL   H10633046   6.295   6.935   3.681  2.9962  1.3074 -0.5778
  271MOL   H10733047   6.317   6.802   3.785 -2.2895 -0.1725 -1.1226
  271MOL   H10833048   6.159   6.933   3.910 -2.1384  1.4671 -2.2564
  271MOL   H10933049   6.302   6.979   3.990 -1.6904 -3.8791  0.7581
  271MOL   C11033050   6.230   7.132   3.853  0.1272  0.0262  0.3204
  271MOL   C11133051   6.140   7.208   3.951 -0.3138  0.2597 -0.4227
  271MOL   H11233052   6.328   7.180   3.864  0.1057  0.1593 -0.0677
  271MOL   H11333053   6.185   7.131   3.754  0.5964 -0.9237  0.1207
  271MOL   H11433054   6.046   7.155   3.963 -0.3733  0.3101 -0.6507
  271MOL   H11533055   6.190   7.203   4.048 -0.2890 -1.1314 -0.5012
  271MOL   C11633056   6.142   7.356   3.922  0.8670  0.2139  0.6779
  271MOL   C11733057   6.028   7.401   3.824 -0.0182  0.1740  0.4558
  271MOL   H11833058   6.122   7.403   4.018 -1.4557 -1.0879  0.8776
  271MOL   H11933059   6.237   7.387   3.878 -0.0975  0.9240 -0.9657
  271MOL   H12033060   6.019   7.506   3.795  0.2440  0.2555  0.6666
  271MOL   H12133061   6.021   7.344   3.731 -1.0577  0.3953  0.3987
  271MOL   H12233062   5.933   7.383   3.873 -0.4433  3.2459  0.8206
  272MOL     C133063   5.784   6.589   0.515 -0.1222 -0.4811  0.0412
  272MOL     C233064   5.896   6.688   0.548 -0.7247  0.2575  0.4953
  272MOL     H333065   5.813   6.495   0.563  0.1517  1.1901  3.2753
  272MOL     H433066   5.792   6.595   0.406  0.9063  0.2861  0.1463
  272MOL     H533067   5.905   6.704   0.655 -0.5371  0.4961  0.4437
  272MOL     H633068   5.995   6.661   0.513  0.2067  0.4254  2.9479
  272MOL     H733069   5.690   6.616   0.562  0.3917 -0.6370  1.1728
  272MOL     C833070   5.872   6.826   0.492  0.3446  0.3726 -0.4171
  272MOL     C933071   5.962   6.937   0.546 -0.2908  0.7941  0.0052
  272MOL    H1033072   5.855   6.824   0.384  1.6087  0.3677 -0.6210
  272MOL    H1133073   5.773   6.850   0.532 -0.0315 -0.2749 -0.9413
  272MOL    H1233074   5.967   6.926   0.654  1.5896  2.0268  0.0789
  272MOL    H1333075   6.065   6.921   0.513 -0.6659 -0.1449 -0.7048
  272MOL    C1433076   5.911   7.074   0.512 -0.2245  0.2923  0.0040
  272MOL    C1533077   6.022   7.176   0.554  0.1019  0.2954  0.3850
  272MOL    H1633078   5.892   7.080   0.405  0.7934  1.3493 -0.1285
  272MOL    H1733079   5.815   7.093   0.561 -0.4426  0.9852 -0.6826
  272MOL    H1833080   6.045   7.181   0.661  1.1851  0.7156  0.1499
  272MOL    H1933081   6.118   7.150   0.509 -0.5237 -1.3299 -0.0259
  272MOL    C2033082   5.974   7.314   0.520  0.5489  0.4356  0.1675
  272MOL    C2133083   6.076   7.417   0.554  0.1665  0.0602 -0.1582
  272MOL    H2233084   5.955   7.326   0.414 -0.9326  0.8353  0.4693
  272MOL    H2333085   5.876   7.329   0.565 -0.7955  2.0052 -3.1655
  272MOL    H2433086   6.083   7.419   0.663  2.4533 -0.2516 -0.2690
  272MOL    H2533087   6.176   7.392   0.520  0.1805  1.4094 -1.1847
  272MOL    C2633088   6.035   7.554   0.498  0.0445  0.5247 -0.4528
  272MOL    C2733089   6.143   7.657   0.546 -0.5043 -1.4849 -0.2113
  272MOL    H2833090   6.031   7.554   0.389 -1.3882  0.0115 -0.4141
  272MOL    H2933091   5.938   7.577   0.541  0.0415  0.7936 -0.6054
  272MOL    H3033092   6.240   7.613   0.527  0.0354 -0.3174 -0.2057
  272MOL    H3133093   6.125   0.053   0.485  2.3503 -1.3249 -0.8629
  272MOL    C3233094   6.130   0.004   0.691  0.4835  0.2546  0.4761
  272MOL    C3333095   6.221   0.115   0.736 -0.0936  0.2505  0.3652
  272MOL    H3433096   6.030   0.039   0.719 -0.2487 -0.6990 -0.8963
  272MOL    H3533097   6.139   7.609   0.756  1.3970 -0.2801 -0.3634
  272MOL    H3633098   6.324   0.107   0.701  0.2395  0.1098  1.3498
  272MOL    H3733099   6.190   0.200   0.677 -0.7894 -0.8688 -0.8930
  272MOL    C3833100   6.217   0.158   0.876 -0.1632  0.6334 -0.1044
  272MOL    C3933101   6.268   0.054   0.978  0.3109 -0.1113  0.1398
  272MOL    H4033102   6.292   0.237   0.889 -1.8937  2.0447  1.5096
  272MOL    H4133103   6.128   0.205   0.917 -2.1445 -0.9821 -2.3889
  272MOL    H4233104   6.207   7.656   0.982 -2.5920  1.7807  0.2104
  272MOL    H4333105   6.367   0.021   0.946  0.3898 -0.4330  0.7017
  272MOL    C4433106   6.269   0.102   1.123  0.3480  0.6272  0.6739
  272MOL    C4533107   6.242   7.687   1.228  0.0604 -0.7723 -0.9992
  272MOL    H4633108   6.367   0.147   1.141  1.2393 -1.0005 -0.0172
  272MOL    H4733109   6.204   0.189   1.131 -0.0465  0.6778 -2.5298
  272MOL    H4833110   6.149   7.637   1.197 -2.3971  0.7878  3.4715
  272MOL    H4933111   6.319   7.610   1.225  1.4002  0.4085  2.1618
  272MOL    C5033112   6.229   0.051   1.378  0.4743 -0.1402  0.1599
  272MOL    C5133113   6.236   7.620   1.478  0.2504 -0.5593  0.0973
  272MOL    H5233114   6.310   0.121   1.402  1.3081 -1.1154  0.2396
  272MOL    H5333115   6.140   0.112   1.389  0.1178 -0.2351 -2.0683
  272MOL    H5433116   6.152   7.558   1.447  1.1600 -1.0060 -1.5703
  272MOL    H5533117   6.325   7.563   1.450  0.4087  0.7993 -2.3353
  272MOL    C5633118   6.242   7.655   1.628 -0.1634  0.0464 -0.2381
  272MOL    C5733119   6.102   7.680   1.689 -0.7901 -0.0641 -0.2068
  272MOL    H5833120   6.290   7.571   1.677 -0.3401 -1.3165 -2.3578
  272MOL    H5933121   6.309   0.048   1.641 -1.6986  1.5561 -1.8417
  272MOL    H6033122   6.034   0.007   1.606 -0.5499  0.8896 -0.1966
  272MOL    H6133123   6.067   7.582   1.721 -1.6413 -0.3209 -1.8573
  272MOL    C6233124   6.090   0.103   1.788 -0.3285  0.0305  0.6609
  272MOL    C6333125   6.173   0.082   1.907  0.3533 -0.3624  0.6310
  272MOL    H6433126   6.124   0.197   1.745 -0.2009  0.8669  2.5599
  272MOL    H6533127   5.985   0.120   1.813 -0.2814 -0.0388  0.9082
  272MOL    H6633128   6.151   7.671   1.934 -0.1347 -0.3095  0.4519
  272MOL    H6733129   6.279   0.077   1.884  0.1458 -4.2302  0.2037
  272MOL    C6833130   6.142   0.173   2.020  0.3851  0.0203  0.6178
  272MOL    C6933131   6.221   0.133   2.145  0.2684  0.4263 -0.5400
  272MOL    H7033132   6.161   0.277   1.994  0.5602 -0.1757 -0.0538
  272MOL    H7133133   6.039   0.172   2.055  0.3725 -0.0741  0.5771
  272MOL    H7233134   6.169   0.051   2.194 -0.3835  0.0883 -1.7790
  272MOL    H7333135   6.317   0.093   2.111  0.6371  2.5087 -2.0872
  272MOL    C7433136   6.246   0.239   2.252 -0.2043  0.1290  0.4745
  272MOL    C7533137   6.287   0.178   2.381  0.3773  0.0902 -0.0804
  272MOL    H7633138   6.313   0.318   2.216  1.5653 -1.6940 -0.3237
  272MOL    H7733139   6.154   0.296   2.265 -1.5626 -1.9211  0.0372
  272MOL    H7833140   6.207   0.123   2.431  0.1224 -0.5417 -1.1678
  272MOL    H7933141   6.359   0.099   2.358  0.3689  0.1993 -0.4909
  272MOL    C8033142   6.324   0.290   2.478 -0.0626 -0.4996  0.5184
  272MOL    C8133143   6.373   0.247   2.619  0.1602 -0.1912  0.6959
  272MOL    H8233144   6.404   0.351   2.436 -0.8261 -0.3108 -0.6653
  272MOL    H8333145   6.237   0.355   2.476  0.6200  0.5769  3.0729
  272MOL    H8433146   6.327   0.154   2.651  3.3552 -1.7937  0.8176
  272MOL    H8533147   6.481   0.235   2.611  0.1333  0.9029 -1.8499
  272MOL    C8633148   6.348   0.355   2.725 -0.1183 -1.2035 -0.0874
  272MOL    C8733149   6.417   0.325   2.858  0.2804 -0.5843 -0.0642
  272MOL    H8833150   6.390   0.447   2.684 -0.3304 -2.1782 -2.5508
  272MOL    H8933151   6.243   0.381   2.733 -0.2256 -1.6161 -0.1440
  272MOL    H9033152   6.357   0.247   2.904 -0.6404  0.4965  0.5906
  272MOL    H9133153   6.518   0.288   2.842 -0.3195 -1.2117 -2.6061
  272MOL    C9233154   6.427   0.457   2.940 -0.5636  0.5370  0.8936
  272MOL    C9333155   6.496   0.430   3.072  0.2410  0.0944 -1.5336
  272MOL    H9433156   6.479   0.525   2.873 -2.3983  0.1358 -1.0162
  272MOL    H9533157   6.329   0.499   2.963 -1.5149 -0.5582 -0.9482
  272MOL    H9633158   6.457   0.333   3.104 -0.0305  0.0920 -1.8700
  272MOL    H9733159   6.603   0.411   3.065  0.4730  1.0628 -0.7501
  272MOL    C9833160   6.476   0.548   3.175 -0.5282  0.0950  0.1179
  272MOL    C9933161   6.533   0.499   3.316  0.1135  0.2593 -0.3734
  272MOL   H10033162   6.533   0.636   3.146 -2.3075  1.1746 -0.1684
  272MOL   H10133163   6.369   0.570   3.181 -0.5895 -0.2143  0.1624
  272MOL   H10233164   6.477   0.411   3.349 -0.8504  0.6820 -0.8578
  272MOL   H10333165   6.637   0.465   3.312  0.2051  0.1229  2.1562
  272MOL   C10433166   6.536   0.602   3.429 -0.2918 -0.5266 -0.1644
  272MOL   C10533167   6.607   0.548   3.561 -0.5305 -0.5350 -0.5363
  272MOL   H10633168   6.589   0.692   3.395  1.0621 -0.7084  1.3666
  272MOL   H10733169   6.434   0.634   3.448  0.1785  2.4200 -2.1811
  272MOL   H10833170   6.572   0.446   3.576 -2.2702  0.0982 -0.1382
  272MOL   H10933171   6.713   0.537   3.542 -0.5753 -0.9348 -0.5450
  272MOL   C11033172   6.581   0.644   3.679 -0.5268  0.9035 -0.4188
  272MOL   C11133173   6.674   0.611   3.798  0.2269 -0.3957  0.0387
  272MOL   H11233174   6.587   0.748   3.648  0.3689  0.9488 -0.0922
  272MOL   H11333175   6.480   0.623   3.715  0.1765 -0.6135  0.7222
  272MOL   H11433176   6.707   0.509   3.781 -0.6110 -0.4432 -1.3821
  272MOL   H11533177   6.757   0.682   3.797 -0.3056  0.2372 -1.7476
  272MOL   C11633178   6.611   0.596   3.936 -0.1164 -0.1594  0.1160
  272MOL   C11733179   6.713   0.577   4.043  0.4273 -0.0992  0.1254
  272MOL   H11833180   6.545   0.681   3.957 -0.6540 -0.2997 -0.9418
  272MOL   H11933181   6.536   0.517   3.930  0.4792 -0.7983  1.1121
  272MOL   H12033182   6.753   0.671   4.081  1.4591 -0.7573  0.7098
  272MOL   H12133183   6.696   0.517   4.132 -0.4975  0.5300  0.3816
  272MOL   H12233184   6.809   0.546   4.001  1.2339  2.7075 -0.2007
  273MOL     C133185   1.691   7.320   0.486  0.3219  0.1949 -0.8582
  273MOL     C233186   1.678   7.182   0.551  0.5241 -0.1461 -0.7441
  273MOL     H333187   1.611   7.387   0.519 -0.2728 -0.4125 -1.0651
  273MOL     H433188   1.696   7.318   0.377 -0.3476 -1.7537 -0.8741
  273MOL     H533189   1.758   7.116   0.520 -0.5892 -2.1167  0.4702
  273MOL     H633190   1.700   7.197   0.657 -1.2994  0.0563 -0.3806
  273MOL     H733191   1.781   7.376   0.512  1.2871 -2.6381  2.0761
  273MOL     C833192   1.552   7.107   0.518 -0.3114  0.7572  0.3807
  273MOL     C933193   1.530   6.984   0.603 -0.3235  0.6717 -0.4046
  273MOL    H1033194   1.480   7.184   0.545 -0.2559  0.9218  0.0653
  273MOL    H1133195   1.545   7.089   0.411 -0.9207  0.6716  0.4351
  273MOL    H1233196   1.592   6.899   0.572 -0.4246 -0.0741  1.3744
  273MOL    H1333197   1.571   7.002   0.702 -0.5690 -3.7591  0.6355
  273MOL    C1433198   1.388   6.945   0.628 -0.0086 -0.2722 -0.6173
  273MOL    C1533199   1.389   6.814   0.712  0.1274 -0.5614 -0.0711
  273MOL    H1633200   1.321   7.024   0.660  1.7132  1.1071 -0.3565
  273MOL    H1733201   1.342   6.917   0.533  1.2105 -0.7890 -1.0628
  273MOL    H1833202   1.452   6.736   0.669 -1.7419 -0.5920 -2.9086
  273MOL    H1933203   1.431   6.846   0.807  2.0108 -1.1245 -0.6807
  273MOL    C2033204   1.241   6.766   0.721  0.1444  0.5289  0.4252
  273MOL    C2133205   1.221   6.629   0.796  0.7431 -0.0370 -0.2982
  273MOL    H2233206   1.173   6.843   0.756  1.0490  0.2229  2.9105
  273MOL    H2333207   1.210   6.746   0.618  0.7084 -0.4545  0.4409
  273MOL    H2433208   1.296   6.560   0.758  1.4210 -0.0926  1.1105
  273MOL    H2533209   1.222   6.638   0.905  1.8666 -0.6623 -0.2519
  273MOL    C2633210   1.081   6.568   0.770 -0.1957  0.8195  0.4187
  273MOL    C2733211   1.074   6.425   0.841  0.2679  0.0613 -0.2139
  273MOL    H2833212   1.010   6.636   0.817  1.7521  3.7076 -0.7005
  273MOL    H2933213   1.067   6.553   0.663 -1.8458  0.4327  0.6711
  273MOL    H3033214   1.148   6.353   0.807  2.5890  1.0575  2.5216
  273MOL    H3133215   1.088   6.433   0.949 -2.3338  0.5594  0.1153
  273MOL    C3233216   0.939   6.364   0.817  0.0136  0.3356  0.7020
  273MOL    C3333217   0.948   6.214   0.859 -0.1751  0.9461 -0.0958
  273MOL    H3433218   0.866   6.414   0.881 -1.6128 -0.7345 -0.2987
  273MOL    H3533219   0.907   6.368   0.713  0.0261  0.5819  0.7075
  273MOL    H3633220   1.017   6.165   0.791  1.0151 -1.5244  2.8098
  273MOL    H3733221   0.993   6.214   0.958  0.3852  2.3061 -0.3304
  273MOL    C3833222   0.804   6.147   0.867 -0.2675 -0.8535 -0.5690
  273MOL    C3933223   0.827   6.006   0.923  0.3658  0.0386  0.4357
  273MOL    H4033224   0.735   6.210   0.923  0.0663 -1.8349  0.9968
  273MOL    H4133225   0.753   6.156   0.772 -1.4783  0.2428  0.1638
  273MOL    H4233226   0.903   5.959   0.860 -1.3971 -1.7476 -0.3740
  273MOL    H4333227   0.869   6.014   1.023 -0.8164  0.4188  0.9112
  273MOL    C4433228   0.707   5.912   0.917  0.0597 -0.6515  0.2695
  273MOL    C4533229   0.742   5.773   0.976 -0.3551 -0.5082 -0.2926
  273MOL    H4633230   0.629   5.958   0.978 -0.3309  1.2325 -1.5804
  273MOL    H4733231   0.650   5.916   0.825 -0.0901  0.0112  0.3908
  273MOL    H4833232   0.833   5.732   0.933  0.9109  0.2837  1.5313
  273MOL    H4933233   0.769   5.782   1.081 -1.3253  0.7598 -0.1400
  273MOL    C5033234   0.628   5.666   0.979  0.2352  0.2112  0.4910
  273MOL    C5133235   0.577   5.628   0.840 -0.7025 -1.1481  0.5483
  273MOL    H5233236   0.675   5.589   1.041 -0.3395 -1.0924 -0.6879
  273MOL    H5333237   0.537   5.690   1.033 -0.9207 -1.1838 -0.8257
  273MOL    H5433238   0.508   5.709   0.817 -0.2775 -0.6276  1.0810
  273MOL    H5533239   0.649   5.633   0.758 -0.7273 -0.2976  0.5735
  273MOL    C5633240   0.497   5.497   0.821  0.6601  0.0483  0.9094
  273MOL    C5733241   0.450   5.483   0.678  0.1187 -0.0527  0.0981
  273MOL    H5833242   0.559   5.410   0.847 -0.0951 -0.3031  1.5426
  273MOL    H5933243   0.413   5.499   0.890 -0.4161 -0.6135 -0.3609
  273MOL    H6033244   0.394   5.567   0.637  0.8924  0.0001 -0.8645
  273MOL    H6133245   0.536   5.465   0.614 -0.0868 -1.5613  0.2125
  273MOL    C6233246   0.367   5.357   0.652 -0.0174 -0.1049 -0.0884
  273MOL    C6333247   0.304   5.341   0.511 -0.0297 -0.2661  0.3281
  273MOL    H6433248   0.421   5.270   0.688 -2.0409 -0.7839  1.3560
  273MOL    H6533249   0.283   5.368   0.720  0.8758  2.6216  0.6249
  273MOL    H6633250   0.245   5.431   0.492 -3.0302 -2.1656  0.2556
  273MOL    H6733251   0.388   5.347   0.442 -1.2899  0.9741 -1.1539
  273MOL    C6833252   0.203   5.228   0.495 -0.2816  0.2658 -0.3012
  273MOL    C6933253   0.144   5.233   0.350 -0.5145  0.2671  0.3809
  273MOL    H7033254   0.259   5.137   0.515 -1.5018 -0.3224  0.4927
  273MOL    H7133255   0.124   5.241   0.570  0.2401  0.4275  0.2311
  273MOL    H7233256   0.131   5.339   0.330  0.0399  0.5735  1.6119
  273MOL    H7333257   0.208   5.192   0.271 -0.4539  1.6342 -0.2938
  273MOL    C7433258   0.011   5.153   0.342  0.0922 -0.8773  1.0209
  273MOL    C7533259   7.651   5.133   0.198  0.5934 -0.1875 -0.2966
  273MOL    H7633260   0.039   5.059   0.389  1.3571 -1.3440 -0.6396
  273MOL    H7733261   7.618   5.184   0.403 -0.5522  0.3549 -0.4609
  273MOL    H7833262   7.657   5.229   0.146  2.2576  0.2901  0.7365
  273MOL    H7933263   0.024   5.067   0.142 -1.0832 -1.8156 -0.3793
  273MOL    C8033264   7.506   5.075   0.196 -0.0953 -0.5135 -0.0412
  273MOL    C8133265   7.431   5.085   0.061  1.1524  0.4306 -0.1473
  273MOL    H8233266   7.513   4.974   0.237 -1.7258 -0.2059  1.0468
  273MOL    H8333267   7.458   5.141   0.268  1.5558 -0.9989  1.5375
  273MOL    H8433268   7.328   5.055   0.078  0.8218  1.5866 -0.0390
  273MOL    H8533269   7.430   5.192   0.038  0.1080  0.7071  1.1194
  273MOL    C8633270   7.481   5.002   7.633  0.0022  0.1577 -0.0473
  273MOL    C8733271   7.451   4.856   7.655  0.2391 -0.5588 -0.5983
  273MOL    H8833272   7.449   5.041   7.536  1.4859  2.5238  0.3665
  273MOL    H8933273   7.589   5.015   7.631 -0.1533  2.2129  2.3111
  273MOL    H9033274   7.484   4.816   0.059 -0.0673 -0.9700 -0.6607
  273MOL    H9133275   7.344   4.839   7.669  0.4636 -0.8937  0.7916
  273MOL    C9233276   7.512   4.765   7.544 -0.2549  1.0575 -0.0170
  273MOL    C9333277   7.420   4.752   7.421 -0.2068 -0.0846  0.7386
  273MOL    H9433278   7.603   4.814   7.509 -0.3916  1.1123 -0.2990
  273MOL    H9533279   7.532   4.670   7.593  1.5284  0.4077 -1.9172
  273MOL    H9633280   7.323   4.706   7.443 -0.7942  0.5583 -0.4612
  273MOL    H9733281   7.401   4.851   7.381 -1.0375 -1.1505 -1.5979
  273MOL    C9833282   7.479   4.668   7.301  0.2435  0.2798  0.3696
  273MOL    C9933283   7.384   4.656   7.169 -0.2925 -0.5360  0.1614
  273MOL   H10033284   7.572   4.713   7.268 -0.1008  0.6663 -0.0885
  273MOL   H10133285   7.499   4.565   7.333  1.6518  0.2892 -0.4338
  273MOL   H10233286   7.440   4.600   7.095  1.4371 -1.7343  2.3020
  273MOL   H10333287   7.298   4.591   7.188 -0.8545 -0.0269 -0.6339
  273MOL   C10433288   7.345   4.788   7.106  0.1647 -0.6613  0.0738
  273MOL   C10533289   7.460   4.879   7.070 -0.0892 -0.1809 -0.5944
  273MOL   H10633290   7.283   4.756   7.023  1.2369 -1.8017 -0.3077
  273MOL   H10733291   7.278   4.836   7.178  1.3326  1.4987 -0.2288
  273MOL   H10833292   7.515   4.926   7.152 -1.0148  0.1889 -0.1800
  273MOL   H10933293   7.533   4.826   7.010  0.8138 -1.9977  2.0151
  273MOL   C11033294   7.412   5.000   6.994 -0.1757 -0.3330  0.4896
  273MOL   C11133295   7.513   5.100   6.928  0.2459 -0.1079 -0.2046
  273MOL   H11233296   7.345   4.964   6.916  1.3586 -2.0579 -0.0852
  273MOL   H11333297   7.357   5.067   7.059 -0.6081 -0.3759  0.1662
  273MOL   H11433298   7.583   5.120   7.009  0.6384  0.0961 -0.5949
  273MOL   H11533299   7.579   5.051   6.856 -1.3885 -2.2625 -0.2856
  273MOL   C11633300   7.457   5.232   6.871 -0.3075 -0.1145  0.0239
  273MOL   C11733301   7.559   5.345   6.848  0.3820  0.5783  0.2346
  273MOL   H11833302   7.415   5.218   6.772 -0.3971  0.9863 -0.1071
  273MOL   H11933303   7.378   5.267   6.939  0.2109 -2.1991  1.7457
  273MOL   H12033304   7.607   5.397   6.930  0.2186  1.8061 -0.4324
  273MOL   H12133305   7.644   5.309   6.791 -1.8532 -2.0456 -1.5487
  273MOL   H12233306   7.516   5.408   6.770 -0.4238 -1.1371 -0.7343
  274MOL     C133307   4.803   4.178   5.605  0.5524  0.0424 -0.3947
  274MOL     C233308   4.874   4.059   5.548  0.5395  0.5129 -0.0867
  274MOL     H333309   4.800   4.186   5.714  0.0166  2.2749 -0.5330
  274MOL     H433310   4.701   4.197   5.573  0.9703 -0.5605 -2.1092
  274MOL     H533311   4.968   4.036   5.599 -0.5396 -0.0467  1.6890
  274MOL     H633312   4.809   3.978   5.581  1.8791 -1.0721 -1.1716
  274MOL     H733313   4.868   4.260   5.574  0.1571  0.8907  0.9528
  274MOL     C833314   4.889   4.062   5.386  0.2736 -0.6105  0.6461
  274MOL     C933315   4.760   4.067   5.298 -0.2606  0.6150  0.7392
  274MOL    H1033316   4.940   4.157   5.369 -1.0527  0.0709  0.4023
  274MOL    H1133317   4.961   3.989   5.350 -0.3155 -1.0087  0.2818
  274MOL    H1233318   4.699   3.977   5.303  3.9765 -2.4799 -0.5085
  274MOL    H1333319   4.697   4.151   5.330 -1.2253  1.1394 -2.3393
  274MOL    C1433320   4.800   4.083   5.151 -0.1434  0.7919  0.0057
  274MOL    C1533321   4.690   4.087   5.046 -0.0046  0.0222 -0.2673
  274MOL    H1633322   4.866   4.170   5.146  0.8686  0.0924  1.0365
  274MOL    H1733323   4.867   4.002   5.122 -0.4756  0.7529 -0.6773
  274MOL    H1833324   4.627   4.000   5.062 -3.3244  2.4250  0.3481
  274MOL    H1933325   4.621   4.171   5.057 -0.3714 -0.1029 -1.4978
  274MOL    C2033326   4.733   4.081   4.901  0.6800 -0.7925  1.0022
  274MOL    C2133327   4.833   4.193   4.861 -0.2431 -0.2253  0.1676
  274MOL    H2233328   4.782   3.986   4.879  0.0726 -0.5261 -1.6004
  274MOL    H2333329   4.647   4.101   4.838  0.3631 -0.7870  1.4362
  274MOL    H2433330   4.782   4.282   4.896 -1.0281 -0.1530 -1.1083
  274MOL    H2533331   4.924   4.178   4.918 -0.7367 -0.2032  0.9589
  274MOL    C2633332   4.869   4.205   4.709  0.2376 -0.4270 -0.8419
  274MOL    C2733333   4.751   4.239   4.622 -0.4001  0.1880 -0.2040
  274MOL    H2833334   4.945   4.283   4.702  1.0345 -1.1655 -0.5286
  274MOL    H2933335   4.912   4.108   4.684 -0.0057 -0.7564 -0.0343
  274MOL    H3033336   4.685   4.152   4.615  0.2679 -0.4440  1.2043
  274MOL    H3133337   4.689   4.310   4.675 -0.0722 -0.2410  0.7548
  274MOL    C3233338   4.801   4.278   4.480 -0.5860  0.0081  0.6539
  274MOL    C3333339   4.699   4.371   4.408 -0.3677 -0.4633  0.2377
  274MOL    H3433340   4.885   4.346   4.486  0.6312 -1.6443  3.3828
  274MOL    H3533341   4.813   4.195   4.411  0.2824  2.3652 -2.1333
  274MOL    H3633342   4.682   4.463   4.464  1.1639  0.4910 -0.8400
  274MOL    H3733343   4.734   4.392   4.307 -0.2314 -0.9678  0.1759
  274MOL    C3833344   4.561   4.306   4.393 -0.8199 -0.0611  0.0074
  274MOL    C3933345   4.465   4.385   4.306 -0.8783 -0.4689 -0.1438
  274MOL    H4033346   4.583   4.212   4.343 -0.6072  0.3359 -0.6505
  274MOL    H4133347   4.513   4.278   4.487  0.0361  1.3016  0.8626
  274MOL    H4233348   4.517   4.429   4.221 -0.9995  0.4028  0.2258
  274MOL    H4333349   4.395   4.317   4.260  1.2847 -1.8319 -1.5125
  274MOL    C4433350   4.397   4.491   4.391  0.2162  0.6171  0.6988
  274MOL    C4533351   4.286   4.559   4.304 -0.7097  0.3622  0.2310
  274MOL    H4633352   4.355   4.453   4.484 -1.0012 -2.9261 -1.2284
  274MOL    H4733353   4.477   4.565   4.405 -0.9104  2.0634 -0.3578
  274MOL    H4833354   4.327   4.619   4.224 -0.6164  0.7876  0.5931
  274MOL    H4933355   4.207   4.502   4.256 -1.0715 -0.2126  1.4879
  274MOL    C5033356   4.209   4.657   4.396  0.2880  0.2248  0.6606
  274MOL    C5133357   4.122   4.758   4.316 -0.1175 -1.0336 -0.3316
  274MOL    H5233358   4.141   4.601   4.460  0.7257 -1.7317 -0.5381
  274MOL    H5333359   4.282   4.707   4.459  2.0796 -1.8989  0.3203
  274MOL    H5433360   4.202   4.810   4.262 -1.5600  1.1197 -0.4662
  274MOL    H5533361   4.055   4.723   4.238  1.4136 -1.3121 -1.5407
  274MOL    C5633362   4.071   4.865   4.400  0.1916  0.1750 -0.1708
  274MOL    C5733363   3.952   4.834   4.495 -0.7494  0.0947 -0.3301
  274MOL    H5833364   4.156   4.901   4.458 -1.1298 -0.4445  2.2315
  274MOL    H5933365   4.034   4.953   4.347  0.8232  0.1754 -0.6132
  274MOL    H6033366   3.856   4.800   4.456 -1.9337  2.1513  0.6972
  274MOL    H6133367   3.988   4.750   4.553  2.8735  0.7933 -1.4181
  274MOL    C6233368   3.918   4.944   4.590 -0.1318  0.4894 -0.3018
  274MOL    C6333369   3.880   4.909   4.740  0.1361  0.2199  0.1017
  274MOL    H6433370   3.998   5.018   4.583  2.2369 -2.1237 -1.7240
  274MOL    H6533371   3.836   5.003   4.549 -0.3517 -0.6728 -1.5805
  274MOL    H6633372   3.822   4.817   4.745 -1.0088  0.7897 -2.0859
  274MOL    H6733373   3.965   4.859   4.787  1.0278  0.0369 -1.6613
  274MOL    C6833374   3.808   5.019   4.832 -0.1040 -0.0941 -0.2119
  274MOL    C6933375   3.829   4.997   4.984  0.1587  1.0188  0.0167
  274MOL    H7033376   3.845   5.118   4.805 -1.0252  0.4777  0.6273
  274MOL    H7133377   3.704   5.031   4.803  0.0200  0.1729 -0.5657
  274MOL    H7233378   3.776   4.905   5.010  0.1040  0.8618 -0.6320
  274MOL    H7333379   3.933   4.979   5.010 -0.4386 -0.1034  1.7164
  274MOL    C7433380   3.784   5.127   5.055 -0.6463  0.1841 -0.0166
  274MOL    C7533381   3.887   5.241   5.055 -0.3537 -0.2293  0.5476
  274MOL    H7633382   3.689   5.165   5.018 -0.8671  0.6128  0.9647
  274MOL    H7733383   3.759   5.109   5.160  0.1845  0.3305  0.2172
  274MOL    H7833384   3.987   5.204   5.080 -0.7212 -2.0032 -0.5645
  274MOL    H7933385   3.901   5.285   4.956 -1.7710 -1.9058 -0.4282
  274MOL    C8033386   3.841   5.356   5.143 -0.8242  0.5647 -0.2769
  274MOL    C8133387   3.936   5.476   5.149 -0.1434 -0.4386  0.8285
  274MOL    H8233388   3.748   5.403   5.111 -0.2878  1.2270 -0.8930
  274MOL    H8333389   3.823   5.307   5.238  1.9907 -0.7511 -0.3499
  274MOL    H8433390   4.035   5.456   5.190  1.2263  0.6986 -1.7701
  274MOL    H8533391   3.950   5.514   5.047 -0.8530  0.1350  0.9404
  274MOL    C8633392   3.878   5.589   5.228 -0.0269  0.7347  0.0563
  274MOL    C8733393   3.977   5.685   5.259  0.2329  0.2176 -0.0855
  274MOL    H8833394   3.789   5.642   5.194 -1.0292 -0.0080  1.4327
  274MOL    H8933395   3.848   5.546   5.324 -0.6875 -0.8606 -0.8473
  274MOL    H9033396   4.071   5.645   5.297  0.8045  1.6817  0.0963
  274MOL    H9133397   4.012   5.728   5.165 -1.0949 -0.4355 -0.8909
  274MOL    C9233398   3.934   5.793   5.364 -0.6977  0.8478  0.3911
  274MOL    C9333399   4.049   5.880   5.416 -0.4244 -0.0917  0.2900
  274MOL    H9433400   3.856   5.856   5.321 -2.7812 -1.6130  0.4253
  274MOL    H9533401   3.891   5.744   5.450  0.8027 -0.2389  0.5455
  274MOL    H9633402   4.139   5.831   5.453  0.6636  2.0400  0.5128
  274MOL    H9733403   4.083   5.942   5.334 -2.4069 -1.4400 -1.6078
  274MOL    C9833404   3.986   5.964   5.535 -0.0012  0.1286  0.5646
  274MOL    C9933405   4.074   6.078   5.588  0.5649  0.2637 -0.3130
  274MOL   H10033406   3.890   6.003   5.500  0.6216 -1.6015 -3.3227
  274MOL   H10133407   3.954   5.892   5.609  3.4608 -3.6878 -1.4629
  274MOL   H10233408   4.169   6.031   5.616  0.9224  1.5532  0.7230
  274MOL   H10333409   4.093   6.153   5.511 -0.1902 -0.4022 -1.1592
  274MOL   C10433410   4.012   6.141   5.709 -0.1112  0.3322 -0.2568
  274MOL   C10533411   4.105   6.244   5.774  0.5626  0.1419 -0.6836
  274MOL   H10633412   3.918   6.188   5.680 -0.7323 -1.4819 -1.2725
  274MOL   H10733413   3.975   6.068   5.781 -0.7217 -1.0355 -1.9101
  274MOL   H10833414   4.187   6.200   5.832 -0.0576  2.0465  1.7412
  274MOL   H10933415   4.151   6.286   5.684  1.0279 -3.0417 -1.9947
  274MOL   C11033416   4.032   6.339   5.858 -0.1004  0.1603  0.5516
  274MOL   C11133417   4.129   6.444   5.908 -0.0767 -0.2057  0.5180
  274MOL   H11233418   3.942   6.379   5.813  0.0510 -0.0655  0.0443
  274MOL   H11333419   4.000   6.287   5.949 -2.6234  1.8322  0.6591
  274MOL   H11433420   4.233   6.409   5.915 -0.1717 -0.4698  0.6568
  274MOL   H11533421   4.114   6.524   5.836  0.7790  0.8125  1.4594
  274MOL   C11633422   4.078   6.505   6.034  0.4873  0.3498 -0.0869
  274MOL   C11733423   3.943   6.575   6.023 -0.0742 -0.0702  0.6719
  274MOL   H11833424   4.062   6.438   6.119 -0.1507  0.3332 -0.2207
  274MOL   H11933425   4.155   6.578   6.059  2.0797  0.2553 -4.3531
  274MOL   H12033426   3.869   6.497   6.007  0.1268 -0.1575  0.1540
  274MOL   H12133427   3.917   6.638   6.108  0.7920 -0.7289  1.4341
  274MOL   H12233428   3.944   6.639   5.935 -0.8031  0.8083  1.2984
  275MOL     C133429   0.048   2.333   2.626  0.0705  0.3087 -0.7082
  275MOL     C233430   0.040   2.485   2.581  0.6802  0.5644 -0.1287
  275MOL     H333431   0.052   2.329   2.735 -2.7155  1.2295 -0.5351
  275MOL     H433432   0.141   2.291   2.589 -0.2037  0.8639 -2.0289
  275MOL     H533433   0.067   2.489   2.476  0.8580  1.6427 -0.0543
  275MOL     H633434   7.631   2.525   2.593  0.5129  0.3431 -0.8145
  275MOL     H733435   7.666   2.259   2.595 -2.1672  2.7391 -1.3609
  275MOL     C833436   0.133   2.584   2.651  0.0606  0.1464  0.2901
  275MOL     C933437   0.127   2.720   2.581 -0.2875  0.6018 -0.4643
  275MOL    H1033438   0.091   2.601   2.750 -1.0580 -1.1123  0.0566
  275MOL    H1133439   0.236   2.550   2.659  0.4478  1.1610 -0.2886
  275MOL    H1233440   0.168   2.710   2.480  0.5121 -2.9830  0.1373
  275MOL    H1333441   0.022   2.740   2.562 -0.6713 -0.0335  0.8970
  275MOL    C1433442   0.186   2.842   2.657  0.0524  0.4009  0.7445
  275MOL    C1533443   0.179   2.965   2.557  0.2913  0.2848 -0.1071
  275MOL    H1633444   0.139   2.858   2.754  0.1173  0.8965  0.6946
  275MOL    H1733445   0.287   2.809   2.680  0.1053  0.4063  0.5173
  275MOL    H1833446   0.161   2.926   2.457 -2.1651  0.2784  0.3166
  275MOL    H1933447   0.090   3.019   2.587 -0.1750  0.8083 -2.3711
  275MOL    C2033448   0.296   3.062   2.559 -0.0179  0.1229 -0.9360
  275MOL    C2133449   0.302   3.167   2.445 -0.3337  0.6233  0.3426
  275MOL    H2233450   0.283   3.108   2.657 -0.8747 -2.9172  0.4515
  275MOL    H2333451   0.389   3.005   2.564  0.9422  1.7493  0.4575
  275MOL    H2433452   0.401   3.212   2.444  0.0795 -0.2430  1.0087
  275MOL    H2533453   0.313   3.121   2.347  0.5446  0.7562  0.3721
  275MOL    C2633454   0.186   3.258   2.442 -0.3266  0.0100 -0.7272
  275MOL    C2733455   0.181   3.359   2.327 -0.4915 -0.2657 -1.1596
  275MOL    H2833456   0.097   3.195   2.438 -0.1237 -0.5679  2.5134
  275MOL    H2933457   0.171   3.313   2.535 -2.3246  0.7438 -1.4490
  275MOL    H3033458   0.158   3.301   2.237  1.7301 -2.3939 -0.4139
  275MOL    H3133459   0.092   3.419   2.345  0.1793  0.6841 -1.0101
  275MOL    C3233460   0.309   3.446   2.313 -0.2800 -0.9431 -0.4117
  275MOL    C3333461   0.290   3.545   2.198  0.3949  0.6083  0.1803
  275MOL    H3433462   0.324   3.501   2.406  1.6701 -0.9065 -0.7222
  275MOL    H3533463   0.390   3.374   2.299 -0.1990 -1.5610  2.8561
  275MOL    H3633464   0.270   3.499   2.101 -0.1410  1.3209 -0.0574
  275MOL    H3733465   0.192   3.594   2.205  0.2454  0.4507 -0.7105
  275MOL    C3833466   0.416   3.627   2.190 -0.0063 -0.1273  0.1830
  275MOL    C3933467   0.421   3.706   2.062 -0.1698  0.4853 -0.0884
  275MOL    H4033468   0.428   3.693   2.276  0.0777 -2.1085  1.7388
  275MOL    H4133469   0.499   3.556   2.187  2.0236  2.2579 -1.1838
  275MOL    H4233470   0.386   3.643   1.980  1.4101 -0.4732 -0.0520
  275MOL    H4333471   0.337   3.774   2.076  1.0892  1.8890  0.8484
  275MOL    C4433472   0.556   3.770   2.035  0.3031  0.1872 -0.2004
  275MOL    C4533473   0.606   3.873   2.144 -0.1702 -0.2814  0.1413
  275MOL    H4633474   0.634   3.697   2.014  2.2728  2.2838 -0.3313
  275MOL    H4733475   0.556   3.816   1.936  1.5961 -0.6563 -0.5987
  275MOL    H4833476   0.529   3.941   2.180 -0.0699 -0.0140 -0.1490
  275MOL    H4933477   0.641   3.819   2.232 -2.0139 -1.4413  0.1924
  275MOL    C5033478   0.719   3.952   2.085  0.3091 -0.2284 -0.6886
  275MOL    C5133479   0.810   4.019   2.186 -0.3937 -0.1833 -0.3521
  275MOL    H5233480   0.784   3.884   2.030  1.7141  0.7089 -0.2203
  275MOL    H5333481   0.671   4.020   2.014  1.3565  0.0571 -1.1301
  275MOL    H5433482   0.846   3.944   2.257  0.3861  0.9373  0.4579
  275MOL    H5533483   0.898   4.044   2.126  0.5925 -2.5004  0.0680
  275MOL    C5633484   0.756   4.133   2.271 -0.1887  0.0204  0.4303
  275MOL    C5733485   0.837   4.153   2.400 -0.5706  0.0357  0.8099
  275MOL    H5833486   0.758   4.230   2.222  4.0477 -1.0565 -1.6898
  275MOL    H5933487   0.650   4.125   2.298 -0.6496 -0.2693 -1.4079
  275MOL    H6033488   0.813   4.075   2.473  2.3036  1.6435  3.6011
  275MOL    H6133489   0.944   4.162   2.382 -0.8165  3.7301  0.7166
  275MOL    C6233490   0.805   4.289   2.467  0.0702 -0.5175 -0.2177
  275MOL    C6333491   0.889   4.305   2.594 -0.0358  0.5834  0.6728
  275MOL    H6433492   0.823   4.376   2.405 -0.4046  0.3546  0.8638
  275MOL    H6533493   0.698   4.300   2.484  0.4241  0.6814  1.3969
  275MOL    H6633494   0.884   4.223   2.666 -0.2711  0.9727  1.1011
  275MOL    H6733495   0.992   4.302   2.556 -0.4513  0.2243 -0.4460
  275MOL    C6833496   0.862   4.436   2.667 -0.1352  0.0817  0.0897
  275MOL    C6933497   0.938   4.447   2.800  0.2345 -0.6589 -0.2500
  275MOL    H7033498   0.895   4.521   2.606  4.3543 -0.9305  0.9200
  275MOL    H7133499   0.755   4.452   2.680  0.1891  2.1156  0.3597
  275MOL    H7233500   0.911   4.365   2.866  0.0969  0.8727  1.6754
  275MOL    H7333501   1.045   4.451   2.782  0.2628  1.4367  0.2547
  275MOL    C7433502   0.897   4.582   2.870 -0.3590 -0.3264  0.8777
  275MOL    C7533503   0.970   4.616   3.001 -0.4533  0.4695 -0.5997
  275MOL    H7633504   0.900   4.668   2.804 -2.2043 -0.0575  1.1283
  275MOL    H7733505   0.794   4.575   2.905 -0.4816  0.4640  0.6843
  275MOL    H7833506   0.951   4.534   3.070  1.6044 -0.6492 -1.3368
  275MOL    H7933507   1.078   4.610   2.986 -0.4347  0.9529 -0.6794
  275MOL    C8033508   0.922   4.746   3.076 -0.1327  0.4718  0.0909
  275MOL    C8133509   1.016   4.796   3.189  0.1402 -0.3419  0.2079
  275MOL    H8233510   0.906   4.819   2.997 -0.9495  1.4750  1.1527
  275MOL    H8333511   0.819   4.727   3.109  0.1417  0.6747  1.0937
  275MOL    H8433512   1.059   4.722   3.256 -0.5070 -1.1753 -0.2908
  275MOL    H8533513   1.106   4.837   3.144 -0.4319  0.8519  0.1342
  275MOL    C8633514   0.952   4.904   3.265 -0.2041 -0.7573 -0.0565
  275MOL    C8733515   1.041   4.968   3.370  0.0767  0.3551 -0.2149
  275MOL    H8833516   0.905   4.970   3.193  1.4154  0.4485 -0.0073
  275MOL    H8933517   0.865   4.860   3.315 -1.9988  0.7644 -1.7602
  275MOL    H9033518   1.092   4.891   3.427  0.5427 -0.7400 -2.0652
  275MOL    H9133519   1.117   5.029   3.321 -2.2230  3.3257 -0.1858
  275MOL    C9233520   0.968   5.062   3.467 -0.0262  0.2850  0.1499
  275MOL    C9333521   1.060   5.139   3.566 -0.6569  0.1955  0.3825
  275MOL    H9433522   0.911   5.137   3.412 -0.4106 -0.5801 -0.6374
  275MOL    H9533523   0.890   5.012   3.525 -1.5948 -0.7459 -2.7701
  275MOL    H9633524   1.137   5.076   3.610 -0.2785  1.2742  1.2822
  275MOL    H9733525   1.121   5.216   3.519 -0.1618 -0.4733 -0.0894
  275MOL    C9833526   0.990   5.215   3.685 -0.4853  0.2699  0.5330
  275MOL    C9933527   1.075   5.263   3.800  0.2397  0.2523 -0.0811
  275MOL   H10033528   0.927   5.293   3.645 -1.5506 -0.9089 -0.1162
  275MOL   H10133529   0.908   5.160   3.731  1.9308 -0.4794  4.2409
  275MOL   H10233530   1.125   5.174   3.839 -0.2585  0.6522  1.4865
  275MOL   H10333531   1.156   5.321   3.756 -0.2264  0.5378 -0.5724
  275MOL   C10433532   1.007   5.345   3.909  0.3158  0.5500 -0.2612
  275MOL   C10533533   1.111   5.397   4.013  0.5952  0.3361 -0.2059
  275MOL   H10633534   0.961   5.436   3.870 -1.6355  0.8351  2.5743
  275MOL   H10733535   0.930   5.282   3.954 -0.7192  0.0160 -2.6598
  275MOL   H10833536   1.178   5.316   4.042 -0.3345 -1.7871 -3.6785
  275MOL   H10933537   1.171   5.468   3.958  0.6808  1.8811  1.8169
  275MOL   C11033538   1.035   5.461   4.133  0.3027 -0.2587  0.0747
  275MOL   C11133539   1.125   5.506   4.239 -0.0214 -0.3762  0.5541
  275MOL   H11233540   0.976   5.543   4.090  0.6372 -0.6662 -1.1754
  275MOL   H11333541   0.955   5.396   4.169 -0.0292  1.1299  1.9270
  275MOL   H11433542   1.176   5.425   4.291 -1.5406  0.6117  3.7113
  275MOL   H11533543   1.205   5.575   4.212  1.0568 -1.7290  0.2729
  275MOL   C11633544   1.052   5.569   4.354 -0.2326 -0.5032 -0.4281
  275MOL   C11733545   1.150   5.622   4.468 -0.1142 -0.5172 -0.0937
  275MOL   H11833546   1.000   5.661   4.325 -0.9338  0.0851  2.5356
  275MOL   H11933547   0.984   5.498   4.401 -1.8405 -0.5249 -2.6550
  275MOL   H12033548   1.102   5.667   4.555 -1.0674 -3.5360  1.0319
  275MOL   H12133549   1.199   5.532   4.506  1.9394  0.1032 -1.1806
  275MOL   H12233550   1.224   5.691   4.428 -1.0195  0.2395 -0.4590
  276MOL     C133551   0.305   2.013   4.947 -0.3494  0.3176  0.1477
  276MOL     C233552   0.456   1.995   4.911 -0.3103 -0.3054  0.2071
  276MOL     H333553   0.284   1.968   5.044  0.5765  1.2050  0.7710
  276MOL     H433554   0.246   1.972   4.866  0.4044  0.9943 -0.7612
  276MOL     H533555   0.466   2.050   4.818  0.3232 -3.4721 -1.6613
  276MOL     H633556   0.524   2.052   4.974  0.5754 -0.6309 -0.4472
  276MOL     H733557   0.276   2.118   4.950  0.7682  0.6427 -0.3606
  276MOL     C833558   0.492   1.843   4.892  0.3493 -0.0422  0.8969
  276MOL     C933559   0.642   1.821   4.869 -1.0639 -0.4029 -1.1200
  276MOL    H1033560   0.470   1.786   4.983  2.1061 -0.3878  1.1216
  276MOL    H1133561   0.437   1.804   4.807  1.0597  1.1991 -0.1579
  276MOL    H1233562   0.693   1.860   4.957 -1.7636  1.1162 -1.3694
  276MOL    H1333563   0.660   1.715   4.884 -1.4199 -0.1657  1.2299
  276MOL    C1433564   0.696   1.890   4.741 -0.9884  0.9901  0.4813
  276MOL    C1533565   0.848   1.904   4.726  0.2052  0.5721 -0.2425
  276MOL    H1633566   0.659   1.850   4.647  0.5097  1.9089 -0.5258
  276MOL    H1733567   0.657   1.992   4.739 -0.9711  1.0293  1.7147
  276MOL    H1833568   0.902   1.937   4.814 -0.4712 -0.3013  0.5153
  276MOL    H1933569   0.892   1.809   4.694 -0.6369  0.2076 -0.3571
  276MOL    C2033570   0.883   2.009   4.620  0.0271 -0.0862  0.1117
  276MOL    C2133571   1.039   2.014   4.590  0.2310  0.6915 -0.3509
  276MOL    H2233572   0.837   1.982   4.525 -0.4608 -2.6043  1.0373
  276MOL    H2333573   0.853   2.107   4.655  0.7698  0.2759 -0.2405
  276MOL    H2433574   1.095   2.005   4.683 -0.4831 -0.7834 -0.0548
  276MOL    H2533575   1.066   1.921   4.540  1.0919 -0.6116  2.4574
  276MOL    C2633576   1.076   2.130   4.500 -0.1756  0.0061  0.3219
  276MOL    C2733577   1.225   2.153   4.476  1.2406 -1.0078  0.1984
  276MOL    H2833578   1.024   2.128   4.404  0.3417  0.3726  0.0256
  276MOL    H2933579   1.043   2.222   4.549 -1.3490  0.0530 -0.5281
  276MOL    H3033580   1.288   2.157   4.564  3.0160 -0.4711 -1.0644
  276MOL    H3133581   1.258   2.072   4.411  3.3622  0.6384 -0.8456
  276MOL    C3233582   1.252   2.282   4.387  0.7851 -0.1916  0.3781
  276MOL    C3333583   1.407   2.290   4.347  0.3265 -0.6379 -0.4110
  276MOL    H3433584   1.174   2.289   4.311  1.6877  3.6170 -0.3308
  276MOL    H3533585   1.234   2.372   4.447  3.2076  0.7047 -0.2029
  276MOL    H3633586   1.471   2.292   4.435  0.5821  1.9261 -0.6373
  276MOL    H3733587   1.433   2.198   4.293  1.1366  0.7686 -2.4568
  276MOL    C3833588   1.431   2.409   4.251  0.2299 -0.5970  0.1621
  276MOL    C3933589   1.583   2.420   4.219 -0.2122  0.6121 -0.0226
  276MOL    H4033590   1.376   2.400   4.157  1.9131 -1.4807 -0.7654
  276MOL    H4133591   1.412   2.499   4.309  2.4731  0.4278 -0.6426
  276MOL    H4233592   1.642   2.454   4.304  1.3261 -2.3065  0.1333
  276MOL    H4333593   1.615   2.318   4.201  1.0149  0.7824  1.1036
  276MOL    C4433594   1.625   2.524   4.110  0.4451 -0.0210  0.1912
  276MOL    C4533595   1.766   2.509   4.062  0.7638 -0.0209  0.2883
  276MOL    H4633596   1.555   2.500   4.031 -1.3491  0.3203  1.6393
  276MOL    H4733597   1.597   2.624   4.141  2.7242  0.3513  1.2264
  276MOL    H4833598   1.832   2.562   4.132 -0.4036  1.0782  0.5787
  276MOL    H4933599   1.792   2.403   4.059 -0.5822 -0.3152 -1.1032
  276MOL    C5033600   1.782   2.582   3.922 -0.2793 -0.2909 -0.0266
  276MOL    C5133601   1.768   2.735   3.934  0.1511  0.2266  0.8387
  276MOL    H5233602   1.883   2.565   3.886  0.1871  0.0930  1.0695
  276MOL    H5333603   1.713   2.548   3.844  1.1121 -2.4069 -0.3876
  276MOL    H5433604   1.663   2.761   3.947 -0.4342 -1.4411 -0.2794
  276MOL    H5533605   1.817   2.767   4.025 -0.4654  1.3210  0.7935
  276MOL    C5633606   1.822   2.815   3.809  0.3363  0.4175 -0.3456
  276MOL    C5733607   1.807   2.970   3.836 -0.1736 -0.1659 -0.9580
  276MOL    H5833608   1.923   2.783   3.785  0.2820  0.1302 -0.1977
  276MOL    H5933609   1.759   2.791   3.723 -0.2899 -2.3675  0.8316
  276MOL    H6033610   1.705   2.992   3.867  0.3062 -0.0890  0.6178
  276MOL    H6133611   1.873   2.988   3.921 -1.0511 -2.6206  0.2708
  276MOL    C6233612   1.838   3.043   3.707 -0.1529  0.9528 -0.2315
  276MOL    C6333613   1.846   3.190   3.732 -0.4487 -0.0658 -0.7737
  276MOL    H6433614   1.931   3.016   3.657 -0.5237 -1.5248  0.3533
  276MOL    H6533615   1.758   3.011   3.640 -0.0710  0.3836 -0.0609
  276MOL    H6633616   1.782   3.232   3.809  1.9176  2.5907 -0.1834
  276MOL    H6733617   1.944   3.213   3.775  0.0875 -2.2721 -0.7318
  276MOL    C6833618   1.813   3.269   3.599  0.4464 -0.5269 -0.4407
  276MOL    C6933619   1.812   3.419   3.631  0.1745  0.1800  0.6494
  276MOL    H7033620   1.887   3.253   3.520 -0.4608 -2.6344 -0.9092
  276MOL    H7133621   1.714   3.242   3.561  1.0763 -0.5368 -2.1201
  276MOL    H7233622   1.723   3.443   3.689 -0.4867 -1.8330  0.5159
  276MOL    H7333623   1.906   3.441   3.681  1.3851 -0.0984 -1.4568
  276MOL    C7433624   1.806   3.506   3.503  0.3816  0.0818 -0.3923
  276MOL    C7533625   1.754   3.651   3.541  0.0175  0.0193 -0.1606
  276MOL    H7633626   1.895   3.504   3.440  1.1305  1.6924  0.5805
  276MOL    H7733627   1.729   3.465   3.438  0.4342 -1.0248  0.2455
  276MOL    H7833628   1.652   3.648   3.580 -0.3375 -1.1268 -1.1224
  276MOL    H7933629   1.812   3.676   3.629  2.1758 -0.5247 -1.3988
  276MOL    C8033630   1.790   3.740   3.419  0.3788  0.0651  0.5103
  276MOL    C8133631   1.718   3.872   3.454 -0.1388  0.9648  0.2671
  276MOL    H8233632   1.894   3.747   3.387 -0.0831 -0.4749 -1.1660
  276MOL    H8333633   1.746   3.700   3.328 -0.1556 -0.3479  0.9468
  276MOL    H8433634   1.611   3.856   3.469 -0.2624 -0.3789 -1.9056
  276MOL    H8533635   1.752   3.900   3.554 -0.7754 -1.1421  1.1059
  276MOL    C8633636   1.732   3.981   3.358  0.1875  0.3142 -0.1576
  276MOL    C8733637   1.684   4.112   3.413 -0.3325  0.5183 -0.0086
  276MOL    H8833638   1.836   3.983   3.325 -0.0798  0.6785 -0.9926
  276MOL    H8933639   1.677   3.955   3.268  1.3972  0.4711 -0.9585
  276MOL    H9033640   1.580   4.101   3.445 -0.1399 -1.0424  0.0940
  276MOL    H9133641   1.749   4.143   3.494 -0.5638  1.8063 -0.2992
  276MOL    C9233642   1.692   4.225   3.312 -0.1624 -0.2107  0.3272
  276MOL    C9333643   1.585   4.220   3.207  0.1234 -0.3034 -0.1693
  276MOL    H9433644   1.678   4.314   3.373  1.3880 -0.5055  1.1566
  276MOL    H9533645   1.796   4.238   3.279  1.2162  0.0812  4.4654
  276MOL    H9633646   1.609   4.152   3.125 -1.2454  0.6019 -1.3345
  276MOL    H9733647   1.488   4.190   3.248  1.0498 -0.6189  1.8692
  276MOL    C9833648   1.558   4.358   3.155 -0.4850 -0.0917 -0.4264
  276MOL    C9933649   1.415   4.415   3.187  0.5709 -0.3314  0.7970
  276MOL   H10033650   1.645   4.417   3.183 -0.5835  0.6493 -1.6559
  276MOL   H10133651   1.554   4.342   3.047  0.9464 -1.0085 -0.3571
  276MOL   H10233652   1.412   4.512   3.137  0.4193 -0.8429 -0.1927
  276MOL   H10333653   1.336   4.349   3.151 -0.5448 -0.5711  3.5402
  276MOL   C10433654   1.386   4.427   3.337 -0.7649 -0.9612  0.3247
  276MOL   C10533655   1.238   4.452   3.373 -0.0705 -1.2086  0.8280
  276MOL   H10633656   1.403   4.327   3.377 -1.6154 -1.9651 -1.7768
  276MOL   H10733657   1.458   4.501   3.374  1.1128 -1.2215 -2.6895
  276MOL   H10833658   1.213   4.533   3.304  1.1959  0.6358  2.4597
  276MOL   H10933659   1.180   4.365   3.344  0.3543 -1.3668  0.4361
  276MOL   C11033660   1.212   4.500   3.519 -0.1531  0.4973  0.1927
  276MOL   C11133661   1.073   4.557   3.549  0.7470 -0.8964 -0.1465
  276MOL   H11233662   1.248   4.423   3.587 -0.1487 -0.9141 -1.3622
  276MOL   H11333663   1.288   4.575   3.538  0.6149 -0.3113  0.3407
  276MOL   H11433664   1.049   4.648   3.494 -0.5067 -0.0282  1.7926
  276MOL   H11533665   1.009   4.478   3.509  0.4657 -0.5029 -0.4708
  276MOL   C11633666   1.065   4.563   3.700 -0.5740 -0.0790 -0.2133
  276MOL   C11733667   0.918   4.588   3.749  0.1476 -0.6140 -0.0838
  276MOL   H11833668   1.094   4.471   3.749  0.3017 -0.0619 -0.6890
  276MOL   H11933669   1.131   4.643   3.736 -1.9818  0.4937  1.1220
  276MOL   H12033670   0.896   4.691   3.719 -0.6830 -1.0050 -0.8284
  276MOL   H12133671   0.842   4.537   3.690 -1.3578 -0.1007  1.3553
  276MOL   H12233672   0.909   4.576   3.857  2.4338  0.4090  0.2525
  277MOL     C133673   5.792   1.885   0.139 -0.0941 -0.0764 -1.1237
  277MOL     C233674   5.796   1.755   0.222  0.2455 -0.0037  0.1877
  277MOL     H333675   5.889   1.900   0.091  1.5263 -0.4239  1.8537
  277MOL     H433676   5.766   1.967   0.205 -0.5233 -0.8581 -0.3065
  277MOL     H533677   5.874   1.766   0.297  0.7703  0.3880 -0.4084
  277MOL     H633678   5.696   1.735   0.262  0.1096  0.9961  0.3717
  277MOL     H733679   5.717   1.872   0.062 -0.4344  0.6643 -0.9156
  277MOL     C833680   5.832   1.636   0.128 -0.1826 -0.1376 -0.6897
  277MOL     C933681   5.863   1.509   0.200 -0.3244 -1.3175 -0.0046
  277MOL    H1033682   5.749   1.631   0.058 -0.9614  0.8310  0.1337
  277MOL    H1133683   5.907   1.668   0.056 -0.9339 -0.1042 -1.4581
  277MOL    H1233684   5.941   1.536   0.271 -0.2959  2.6009 -1.4229
  277MOL    H1333685   5.776   1.475   0.257 -1.7799  0.6168 -0.9966
  277MOL    C1433686   5.911   1.394   0.117 -0.5387  0.3207  0.5254
  277MOL    C1533687   5.952   1.268   0.188 -0.2170  0.0125  0.6924
  277MOL    H1633688   5.830   1.366   0.050  0.0547  1.7978 -0.8627
  277MOL    H1733689   5.996   1.422   0.055 -1.5056  2.5193  0.1419
  277MOL    H1833690   6.024   1.293   0.266 -1.6287 -0.9166  2.3201
  277MOL    H1933691   5.871   1.221   0.244  0.2500  0.7845  2.0286
  277MOL    C2033692   6.024   1.169   0.100  0.2328 -0.0853  0.8064
  277MOL    C2133693   6.102   1.053   0.173 -0.3526 -0.1063  0.5577
  277MOL    H2233694   5.956   1.121   0.029  1.8934 -0.3093 -0.6696
  277MOL    H2333695   6.092   1.216   0.028  0.6072 -2.0118 -0.1265
  277MOL    H2433696   6.189   1.097   0.220 -1.1864  0.3613  1.6867
  277MOL    H2533697   6.059   1.008   0.262  0.1033  0.4382  1.0568
  277MOL    C2633698   6.151   0.946   0.080  0.2110  0.4469 -0.3167
  277MOL    C2733699   6.263   0.988   7.677  0.7407  0.0179 -0.1810
  277MOL    H2833700   6.185   0.860   0.138 -1.0547 -0.4831 -0.9318
  277MOL    H2933701   6.061   0.903   0.036 -0.0738 -0.0608  0.7343
  277MOL    H3033702   6.206   1.045   7.604 -0.2328  1.2453  1.5148
  277MOL    H3133703   6.331   1.039   0.054  0.5161  0.1547 -0.0608
  277MOL    C3233704   6.332   0.874   7.606 -0.0621  0.1962 -0.2032
  277MOL    C3333705   6.435   0.915   7.508 -0.0076 -1.1488  0.3957
  277MOL    H3433706   6.377   0.801   7.673 -0.4710  1.0241  0.9837
  277MOL    H3533707   6.260   0.804   7.564  1.5298  0.0540 -2.8343
  277MOL    H3633708   6.400   1.000   7.449  1.2248 -1.1755 -0.3849
  277MOL    H3733709   6.516   0.965   7.561  0.0081 -2.3967  1.5846
  277MOL    C3833710   6.503   0.816   7.414  0.2521  0.4122  0.2594
  277MOL    C3933711   6.404   0.726   7.333 -0.6240 -0.0370  0.0934
  277MOL    H4033712   6.571   0.874   7.352 -3.4248  1.6729 -2.7508
  277MOL    H4133713   6.570   0.750   7.470 -1.3604 -0.0342  1.7050
  277MOL    H4233714   6.342   0.663   7.397 -1.5707  1.4303  0.6438
  277MOL    H4333715   6.323   0.781   7.286 -2.5666 -2.3658  0.6287
  277MOL    C4433716   6.479   0.638   7.234 -0.7726 -0.2546  0.5184
  277MOL    C4533717   6.391   0.555   7.140 -0.5608  0.2632  0.3513
  277MOL    H4633718   6.554   0.692   7.176 -0.4123 -1.0570  0.2251
  277MOL    H4733719   6.542   0.572   7.293  0.1204  1.1483  1.1647
  277MOL    H4833720   6.311   0.512   7.200  1.0314 -3.3319 -0.0163
  277MOL    H4933721   6.351   0.625   7.066 -1.3054  0.6154  1.0649
  277MOL    C5033722   6.459   0.448   7.058  0.5540 -0.5382 -0.1780
  277MOL    C5133723   6.377   0.393   6.939 -0.2469 -0.7416 -0.4811
  277MOL    H5233724   6.540   0.500   7.006  0.4064 -1.6212 -1.5385
  277MOL    H5333725   6.499   0.369   7.121 -1.2686 -3.0730 -2.0675
  277MOL    H5433726   6.288   0.352   6.987 -1.1839  0.8030 -0.8576
  277MOL    H5533727   6.340   0.471   6.872  0.4050  1.1594  1.2859
  277MOL    C5633728   6.443   0.266   6.875 -0.1168  0.4649 -0.2068
  277MOL    C5733729   6.358   0.224   6.756  0.4567 -0.8301 -0.4575
  277MOL    H5833730   6.543   0.273   6.832 -0.1596  2.2906 -0.0484
  277MOL    H5933731   6.459   0.191   6.952  0.9695 -1.0181 -1.8029
  277MOL    H6033732   6.266   0.181   6.797  0.0521  1.4969  1.1639
  277MOL    H6133733   6.332   0.307   6.690  1.6763  1.7827  2.2463
  277MOL    C6233734   6.412   0.109   6.657  0.2914  0.2152 -0.8115
  277MOL    C6333735   6.301   0.081   6.556  0.6958  0.4971  0.8771
  277MOL    H6433736   6.508   0.140   6.616  0.3604  0.3442 -0.5536
  277MOL    H6533737   6.425   0.024   6.723 -1.3654  0.0666 -0.6525
  277MOL    H6633738   6.217   0.036   6.609  0.1071 -0.4604 -0.8106
  277MOL    H6733739   6.267   0.176   6.516  2.7339  0.5693 -0.8152
  277MOL    C6833740   6.348   7.658   6.462  0.0599 -0.5202 -0.1633
  277MOL    C6933741   6.237   7.608   6.364 -0.5739 -0.8738 -0.3240
  277MOL    H7033742   6.438   7.688   6.408 -0.3377  0.3822 -0.3363
  277MOL    H7133743   6.374   7.572   6.523  0.1230 -1.6896 -1.7933
  277MOL    H7233744   6.140   7.591   6.410 -1.4816  0.5255 -1.6348
  277MOL    H7333745   6.215   0.002   6.301  0.0237 -2.1862 -2.3825
  277MOL    C7433746   6.293   7.490   6.287 -0.8809 -0.0935 -0.2825
  277MOL    C7533747   6.204   7.437   6.177 -0.6377  0.0141 -0.3555
  277MOL    H7633748   6.391   7.515   6.245 -2.3843 -0.3430 -4.0999
  277MOL    H7733749   6.317   7.410   6.358  1.7467  1.5287  0.7585
  277MOL    H7833750   6.111   7.397   6.217 -1.6074  0.1397 -2.4068
  277MOL    H7933751   6.167   7.518   6.114  0.1631 -1.0777 -2.2509
  277MOL    C8033752   6.277   7.324   6.100 -0.5622  0.6015  0.6319
  277MOL    C8133753   6.193   7.258   5.988  0.0411 -0.2577 -0.3497
  277MOL    H8233754   6.365   7.377   6.063  1.8508 -2.4444  1.7487
  277MOL    H8333755   6.315   7.249   6.171 -0.3310  0.1005 -0.0176
  277MOL    H8433756   6.104   7.230   6.045  0.9841  1.5820  2.1319
  277MOL    H8533757   6.149   7.330   5.918 -1.1421 -1.7253 -1.1535
  277MOL    C8633758   6.277   7.150   5.920 -0.3390 -0.1050  0.2002
  277MOL    C8733759   6.199   7.106   5.798  0.9420 -0.9356  0.7767
  277MOL    H8833760   6.361   7.207   5.881  0.9144 -1.0178  1.5435
  277MOL    H8933761   6.301   7.066   5.985  1.9973  1.7592  1.7774
  277MOL    H9033762   6.106   7.063   5.833  0.0529  0.4231  0.1091
  277MOL    H9133763   6.159   7.186   5.737  0.0202 -1.4513  0.6999
  277MOL    C9233764   6.271   7.013   5.708  0.4358  0.0347  0.3435
  277MOL    C9333765   6.213   7.005   5.571  0.2511  0.1549 -0.6563
  277MOL    H9433766   6.378   7.034   5.714  0.6639 -1.2030  0.8233
  277MOL    H9533767   6.281   6.916   5.756 -0.8257  1.1902  3.0221
  277MOL    H9633768   6.123   6.946   5.588 -0.1225  0.8027 -0.3770
  277MOL    H9733769   6.191   7.102   5.526  2.8917  1.0881 -0.0455
  277MOL    C9833770   6.311   6.923   5.484  0.0423  0.6699  0.1355
  277MOL    C9933771   6.255   6.898   5.344  0.3893  0.4062  0.2310
  277MOL   H10033772   6.410   6.966   5.472 -0.0082  0.9515  0.7020
  277MOL   H10133773   6.332   6.828   5.534 -0.4872  1.0798  1.1552
  277MOL   H10233774   6.166   6.837   5.360  0.6114  0.1651  0.5666
  277MOL   H10333775   6.231   6.998   5.307 -0.8096  0.6988  1.7261
  277MOL   C10433776   6.346   6.831   5.249  0.2742  0.3961 -0.2178
  277MOL   C10533777   6.274   6.791   5.120  0.2532 -0.4898  0.4900
  277MOL   H10633778   6.421   6.908   5.230  1.5803 -1.1048 -1.2731
  277MOL   H10733779   6.398   6.746   5.295 -0.6503  0.1940  0.4641
  277MOL   H10833780   6.219   6.697   5.131 -1.8166  0.8376  1.5587
  277MOL   H10933781   6.182   6.847   5.114  1.1274  0.9056 -0.0216
  277MOL   C11033782   6.366   6.774   4.997 -0.2687 -0.2111 -0.1631
  277MOL   C11133783   6.282   6.780   4.860  0.0886 -0.2653  0.0018
  277MOL   H11233784   6.437   6.857   5.002 -0.7850  0.2679 -0.5885
  277MOL   H11333785   6.434   6.689   4.996  1.1058  0.8670  0.3595
  277MOL   H11433786   6.180   6.743   4.872 -0.2763  0.0847 -1.9768
  277MOL   H11533787   6.251   6.883   4.843  1.2712 -0.1526 -1.4783
  277MOL   C11633788   6.346   6.722   4.731  0.8092 -0.1575  0.3204
  277MOL   C11733789   6.379   6.577   4.739  0.2199  0.3932  0.8868
  277MOL   H11833790   6.275   6.737   4.650 -0.3999 -2.8015  0.8318
  277MOL   H11933791   6.435   6.770   4.690  0.3651 -0.0085 -0.4781
  277MOL   H12033792   6.473   6.569   4.794  0.4032 -1.3978  0.3241
  277MOL   H12133793   6.302   6.512   4.779  1.0518 -1.5056 -0.5502
  277MOL   H12233794   6.390   6.538   4.638  0.1859 -3.2550  2.2195
  278MOL     C133795   7.213   5.928   6.437  0.4176  0.9203 -0.5965
  278MOL     C233796   7.328   6.009   6.509 -1.1296  0.2189 -0.0866
  278MOL     H333797   7.120   5.984   6.429 -2.2467 -2.9770  1.6423
  278MOL     H433798   7.196   5.839   6.498  2.4263 -0.0607 -1.4384
  278MOL     H533799   7.323   6.108   6.463 -0.2559  0.7509  0.9566
  278MOL     H633800   7.307   6.020   6.615  0.7353  1.0829  0.2020
  278MOL     H733801   7.247   5.909   6.335 -0.6369 -1.0311 -0.5990
  278MOL     C833802   7.471   5.950   6.497  0.1603 -0.2333 -0.2705
  278MOL     C933803   7.581   6.019   6.572  0.2270 -0.1090  0.3915
  278MOL    H1033804   7.465   5.844   6.522  1.5300 -0.2601 -0.0332
  278MOL    H1133805   7.506   5.949   6.393 -1.6949 -0.5125 -0.9109
  278MOL    H1233806   7.565   6.127   6.568  2.9775  0.3485  1.3983
  278MOL    H1333807   7.580   5.987   6.676  0.8547 -1.8101 -0.1057
  278MOL    C1433808   0.030   5.988   6.511  0.3860  0.8148  0.3222
  278MOL    C1533809   0.144   6.027   6.598 -0.7153 -0.1203  0.3009
  278MOL    H1633810   0.029   5.884   6.477 -4.4066  0.5873  0.8350
  278MOL    H1733811   0.053   6.049   6.424  0.6077  0.1799 -0.0610
  278MOL    H1833812   0.123   6.126   6.638  0.7054  0.7571 -1.0621
  278MOL    H1933813   0.138   5.962   6.685  2.6039  1.8158  2.1053
  278MOL    C2033814   0.273   6.038   6.519  0.3784  0.4267 -0.3109
  278MOL    C2133815   0.332   5.904   6.468 -0.8353 -0.1794  0.5600
  278MOL    H2233816   0.267   6.114   6.441 -0.6747  1.5013  0.7919
  278MOL    H2333817   0.352   6.066   6.588 -1.1452  3.2565  0.3471
  278MOL    H2433818   0.347   5.844   6.558  0.1059 -1.4069 -0.4102
  278MOL    H2533819   0.257   5.854   6.407 -0.7111 -0.2124  0.4355
  278MOL    C2633820   0.458   5.923   6.383  0.0849  0.9641 -0.3515
  278MOL    C2733821   0.537   5.797   6.329  0.0005 -0.4080 -0.1281
  278MOL    H2833822   0.438   5.984   6.295 -2.7660  2.1219  1.0278
  278MOL    H2933823   0.529   5.984   6.438  0.9920 -1.1668  0.8962
  278MOL    H3033824   0.474   5.710   6.312 -1.5174  0.1924  2.2089
  278MOL    H3133825   0.566   5.834   6.231 -1.6167 -1.6400 -1.1043
  278MOL    C3233826   0.656   5.749   6.415  0.1213  0.2121 -0.0019
  278MOL    C3333827   0.725   5.634   6.342 -0.2078  0.1742  0.7465
  278MOL    H3433828   0.735   5.822   6.432 -0.1127  0.8298 -1.4907
  278MOL    H3533829   0.613   5.710   6.507  1.4618  2.2736  1.5263
  278MOL    H3633830   0.659   5.549   6.326 -0.3022  0.5752 -1.2101
  278MOL    H3733831   0.745   5.653   6.236 -0.8985 -0.3930  0.5094
  278MOL    C3833832   0.863   5.580   6.387  0.3042  0.1424  0.3736
  278MOL    C3933833   0.973   5.684   6.405 -0.5862 -0.1673  0.7080
  278MOL    H4033834   0.853   5.518   6.476  1.2677  1.1668  1.2136
  278MOL    H4133835   0.892   5.508   6.311  0.4208  0.6745 -0.0917
  278MOL    H4233836   0.974   5.763   6.329 -4.1572 -0.5532  0.1594
  278MOL    H4333837   0.959   5.738   6.498  1.6172 -0.2408  1.1130
  278MOL    C4433838   1.122   5.633   6.410 -0.0497 -0.0487  0.5245
  278MOL    C4533839   1.219   5.746   6.451  0.8849  0.0229  0.5536
  278MOL    H4633840   1.137   5.556   6.486  1.7549  2.0173  2.3392
  278MOL    H4733841   1.150   5.591   6.313 -0.6088 -0.8330  0.6962
  278MOL    H4833842   1.207   5.827   6.378 -1.0554 -0.7353 -0.0127
  278MOL    H4933843   1.179   5.797   6.539  2.8317  0.5183  1.1900
  278MOL    C5033844   1.355   5.693   6.460 -0.4004 -0.9828  1.3914
  278MOL    C5133845   1.453   5.808   6.502  0.2936  0.1127 -0.5876
  278MOL    H5233846   1.366   5.624   6.544  0.9043  1.1611  3.0486
  278MOL    H5333847   1.393   5.651   6.367 -0.0254  2.3589 -0.0088
  278MOL    H5433848   1.442   5.898   6.441 -1.6731  0.1304 -0.2596
  278MOL    H5533849   1.438   5.839   6.606  0.5518  0.1635 -0.5664
  278MOL    C5633850   1.597   5.769   6.489  0.3400 -0.3421 -1.3208
  278MOL    C5733851   1.688   5.873   6.553  0.2553 -0.1513  0.2617
  278MOL    H5833852   1.611   5.678   6.547 -0.2296  1.8180  2.3402
  278MOL    H5933853   1.612   5.754   6.382 -2.7130 -0.0226 -1.8407
  278MOL    H6033854   1.679   5.967   6.498  1.1097  0.8982  1.8952
  278MOL    H6133855   1.656   5.910   6.650  0.0192  0.5987 -0.0972
  278MOL    C6233856   1.835   5.828   6.549 -0.3812 -0.5941  0.3273
  278MOL    C6333857   1.938   5.924   6.624  0.0695  0.0953  0.0292
  278MOL    H6433858   1.857   5.730   6.592 -0.0653 -1.2381 -1.2610
  278MOL    H6533859   1.869   5.815   6.446  0.5705  0.4743  0.5054
  278MOL    H6633860   1.930   6.024   6.580  3.5658 -0.7679 -2.7260
  278MOL    H6733861   1.918   5.938   6.731 -1.2204 -3.6518  0.3604
  278MOL    C6833862   2.080   5.894   6.613 -0.0842  0.5455 -0.0884
  278MOL    C6933863   2.183   5.975   6.683 -0.2021  0.0822 -0.3523
  278MOL    H7033864   2.087   5.794   6.655  1.2793  0.3602 -0.7291
  278MOL    H7133865   2.109   5.883   6.509  0.4060 -0.9202  0.1886
  278MOL    H7233866   2.170   6.078   6.651 -1.3928  0.4819  1.3810
  278MOL    H7333867   2.159   5.958   6.787  1.1859 -2.1425 -0.3417
  278MOL    C7433868   2.325   5.930   6.662 -0.5661  1.4336  0.2807
  278MOL    C7533869   2.435   5.990   6.747 -0.2166 -0.3222  0.1372
  278MOL    H7633870   2.332   5.823   6.681  0.7189  1.4788  0.0519
  278MOL    H7733871   2.344   5.947   6.556  0.1967 -2.5687 -0.2968
  278MOL    H7833872   2.531   5.950   6.716 -0.9493 -0.8937 -1.4513
  278MOL    H7933873   2.447   6.097   6.727 -2.1904 -0.3220 -1.1163
  278MOL    C8033874   2.414   5.974   6.899 -0.0040 -0.0073 -0.2577
  278MOL    C8133875   2.543   5.931   6.974 -0.0123 -0.3513  0.5310
  278MOL    H8233876   2.372   6.064   6.942 -2.1471 -1.3732  0.5728
  278MOL    H8333877   2.346   5.891   6.919 -0.1116  0.2395  0.3959
  278MOL    H8433878   2.594   5.848   6.928 -1.7739 -0.6460 -0.9510
  278MOL    H8533879   2.617   6.010   6.972 -0.2131 -0.1721  0.0520
  278MOL    C8633880   2.522   5.900   7.129  0.0922  0.0880  0.4294
  278MOL    C8733881   2.651   5.900   7.206 -0.7074 -0.6485  0.6327
  278MOL    H8833882   2.461   5.979   7.174 -2.3304 -1.2399 -0.4254
  278MOL    H8933883   2.482   5.802   7.156  3.3631 -1.1995  0.8843
  278MOL    H9033884   2.713   5.815   7.176 -0.4837 -1.4264  3.2007
  278MOL    H9133885   2.716   5.985   7.185  2.4537 -3.3098 -0.9771
  278MOL    C9233886   2.629   5.878   7.356  0.4449 -0.1454  0.6785
  278MOL    C9333887   2.750   5.865   7.451 -0.6499  0.2992  0.7100
  278MOL    H9433888   2.573   5.960   7.400  1.4458  1.6200 -1.3052
  278MOL    H9533889   2.560   5.794   7.368  0.3680  0.1126  2.1081
  278MOL    H9633890   2.827   5.940   7.433  0.7422 -1.5218 -1.0916
  278MOL    H9733891   2.723   5.871   7.556 -1.8669 -0.3951  0.4530
  278MOL    C9833892   2.817   5.725   7.432  0.4267 -0.8338  1.0972
  278MOL    C9933893   2.920   5.691   7.537 -0.1035 -0.4231  0.1457
  278MOL   H10033894   2.736   5.653   7.448  0.0294 -0.7640 -0.5477
  278MOL   H10133895   2.851   5.708   7.330  0.9754  0.3450  1.0705
  278MOL   H10233896   2.995   5.769   7.545  1.9400 -2.3276  0.1882
  278MOL   H10333897   2.859   5.682   7.626 -1.1412  0.7336 -0.4328
  278MOL   C10433898   2.988   5.551   7.512  0.0064  0.2788 -0.3883
  278MOL   C10533899   3.091   5.547   7.399  0.5478 -0.2263  0.1411
  278MOL   H10633900   3.031   5.519   7.607 -1.3243  1.6300  0.6834
  278MOL   H10733901   2.913   5.476   7.486  0.5844 -0.4005 -0.1335
  278MOL   H10833902   3.032   5.572   7.310 -1.6689 -0.8886  1.3940
  278MOL   H10933903   3.171   5.621   7.408  1.2616 -0.8649 -0.8555
  278MOL   C11033904   3.135   5.399   7.382  0.6877  0.5487 -0.1165
  278MOL   C11133905   3.198   5.325   7.503  0.1941 -0.7493  0.0672
  278MOL   H11233906   3.042   5.346   7.360 -0.0998  1.3724  1.1132
  278MOL   H11333907   3.209   5.384   7.304  2.2497  0.0263  1.4216
  278MOL   H11433908   3.128   5.309   7.585  1.2297 -1.0864  0.8862
  278MOL   H11533909   3.223   5.222   7.475  0.0310 -0.8375  0.2383
  278MOL   C11633910   3.318   5.388   7.569  0.0556 -0.8754  0.0674
  278MOL   C11733911   3.347   5.333   0.014 -0.3825  0.7504 -0.2724
  278MOL   H11833912   3.400   5.359   7.503  0.4447 -2.0147  1.0398
  278MOL   H11933913   3.302   5.495   7.586 -2.6286 -1.0083 -1.4692
  278MOL   H12033914   3.372   5.228   0.001 -0.9172  0.7617 -1.4776
  278MOL   H12133915   3.422   5.396   0.062 -1.4501  0.4419  1.8485
  278MOL   H12233916   3.261   5.344   0.081  0.7172  2.0522  0.9703
  279MOL     C133917   3.040   2.139   2.966  0.1289  0.9895  0.2847
  279MOL     C233918   3.178   2.132   2.909  0.5036  0.2671 -0.2349
  279MOL     H333919   3.038   2.210   3.048  0.6191  1.1219  0.1866
  279MOL     H433920   2.999   2.044   3.002  2.5861  0.3159  1.4670
  279MOL     H533921   3.174   2.143   2.801 -0.6160  0.6556 -0.1615
  279MOL     H633922   3.225   2.225   2.940 -0.3965  0.5491  0.3250
  279MOL     H733923   2.985   2.179   2.882 -0.3787 -1.2801 -0.5147
  279MOL     C833924   3.265   2.015   2.956 -0.8211  1.0081  1.2961
  279MOL     C933925   3.406   2.025   2.893 -0.1126  0.5629 -0.0352
  279MOL    H1033926   3.279   2.011   3.064 -0.0473  1.1126  1.2040
  279MOL    H1133927   3.218   1.924   2.920  1.2992  1.0653 -1.8062
  279MOL    H1233928   3.383   2.028   2.787 -0.2188 -1.2739 -0.0781
  279MOL    H1333929   3.445   2.117   2.936 -1.6886  0.3694  1.8606
  279MOL    C1433930   3.496   1.910   2.927 -0.0412  0.0129  0.0339
  279MOL    C1533931   3.641   1.923   2.878 -0.8511  0.9806 -0.1882
  279MOL    H1633932   3.488   1.902   3.036 -0.7726  4.0683  0.3677
  279MOL    H1733933   3.449   1.821   2.886 -0.4921  0.3241 -0.1250
  279MOL    H1833934   3.634   1.933   2.770 -0.2150 -0.4225 -0.3693
  279MOL    H1933935   3.697   2.010   2.913 -0.9827  2.3020 -3.1461
  279MOL    C2033936   3.724   1.798   2.893  0.6108 -0.0978  0.0259
  279MOL    C2133937   3.844   1.790   2.808 -0.3614 -0.0194 -1.0117
  279MOL    H2233938   3.751   1.779   2.997  0.6927 -1.4213 -0.2224
  279MOL    H2333939   3.658   1.717   2.861  1.4530  0.1515 -2.4701
  279MOL    H2433940   3.865   1.684   2.797  1.8889  0.4645 -1.5866
  279MOL    H2533941   3.813   1.817   2.707 -1.3393 -0.9804 -0.9794
  279MOL    C2633942   3.959   1.878   2.857  0.1620  0.6447 -0.0792
  279MOL    C2733943   4.073   1.870   2.757  1.0119  0.5441 -0.3050
  279MOL    H2833944   3.917   1.978   2.867  1.2721  1.3843 -2.4347
  279MOL    H2933945   3.982   1.847   2.959  0.8312 -0.3351 -0.5207
  279MOL    H3033946   4.086   1.764   2.735 -1.2121  0.3420 -0.8500
  279MOL    H3133947   4.043   1.912   2.661 -0.6351  1.1035  0.4242
  279MOL    C3233948   4.191   1.949   2.803  0.5062  0.5876 -0.2298
  279MOL    C3333949   4.302   1.957   2.699 -0.6964 -0.2363 -0.4236
  279MOL    H3433950   4.159   2.044   2.845 -2.6325 -0.0152 -1.1014
  279MOL    H3533951   4.240   1.899   2.887 -0.8506  1.1393  0.9167
  279MOL    H3633952   4.328   1.860   2.656 -0.6578 -0.5140  0.2201
  279MOL    H3733953   4.260   2.008   2.612  0.9974  0.9626 -0.5543
  279MOL    C3833954   4.434   2.032   2.726  0.4023 -0.5923 -0.6041
  279MOL    C3933955   4.530   2.019   2.608 -0.0592  0.4074  0.1738
  279MOL    H4033956   4.410   2.137   2.746 -2.2374 -1.1159 -0.7798
  279MOL    H4133957   4.470   1.996   2.822  2.0828  1.0047 -0.6008
  279MOL    H4233958   4.534   1.912   2.587  0.9299  0.1814  1.4552
  279MOL    H4333959   4.489   2.072   2.521 -1.3927  0.0279  0.5554
  279MOL    C4433960   4.664   2.073   2.647 -0.7630  0.1207  0.1905
  279MOL    C4533961   4.754   2.100   2.528  0.0048  0.4941  0.4195
  279MOL    H4633962   4.661   2.172   2.693 -0.8139  0.0895  0.2536
  279MOL    H4733963   4.699   1.996   2.715 -0.8837 -0.0232  0.0879
  279MOL    H4833964   4.759   2.003   2.478 -0.2267  1.1773 -0.9661
  279MOL    H4933965   4.710   2.169   2.455  1.2818  1.3598  0.4522
  279MOL    C5033966   4.899   2.150   2.578 -0.4621  0.3253  0.6249
  279MOL    C5133967   5.007   2.146   2.469  0.0921  0.3777 -0.1050
  279MOL    H5233968   4.878   2.253   2.608 -3.6676  0.0545 -0.4498
  279MOL    H5333969   4.930   2.099   2.670  0.7562 -2.2161 -1.1393
  279MOL    H5433970   5.007   2.046   2.425 -0.7654  0.8267 -1.1677
  279MOL    H5533971   4.991   2.213   2.384  2.2625 -0.8832 -1.5413
  279MOL    C5633972   5.144   2.176   2.520  0.3037  0.0608 -0.0093
  279MOL    C5733973   5.234   2.159   2.397  0.0520 -0.3938 -0.2189
  279MOL    H5833974   5.153   2.273   2.570  3.3628 -0.2262  0.1320
  279MOL    H5933975   5.173   2.103   2.595 -0.3642 -1.2434 -1.0104
  279MOL    H6033976   5.242   2.054   2.369  1.8356 -0.6856  1.2632
  279MOL    H6133977   5.197   2.209   2.307  0.0266  0.2644  0.1507
  279MOL    C6233978   5.375   2.207   2.436 -0.2803 -0.5426  0.4039
  279MOL    C6333979   5.472   2.223   2.322  0.4427 -0.5699 -0.6800
  279MOL    H6433980   5.363   2.307   2.478  2.3534 -0.3627  0.8245
  279MOL    H6533981   5.419   2.135   2.507  0.5062  1.2447  1.7768
  279MOL    H6633982   5.472   2.130   2.264 -0.9172 -0.1136 -1.4508
  279MOL    H6733983   5.422   2.291   2.252  1.3982  1.4021  0.5156
  279MOL    C6833984   5.604   2.281   2.365 -0.0911 -0.0837 -0.1540
  279MOL    C6933985   5.697   2.305   2.244  0.6201  0.3413  0.1026
  279MOL    H7033986   5.584   2.376   2.413 -0.8830 -0.3921  0.1329
  279MOL    H7133987   5.650   2.216   2.439  1.1242  0.3577 -0.5121
  279MOL    H7233988   5.699   2.221   2.175  0.0850 -1.7678  2.6018
  279MOL    H7333989   5.632   2.378   2.195 -2.2682 -0.4607  2.5973
  279MOL    C7433990   5.839   2.363   2.278  0.6319 -0.0010  0.5577
  279MOL    C7533991   5.918   2.259   2.366  0.2272  0.5778 -0.4575
  279MOL    H7633992   5.888   2.384   2.183  1.0242 -0.3390  0.6859
  279MOL    H7733993   5.824   2.459   2.326  2.1169  0.3359  0.3697
  279MOL    H7833994   5.882   2.232   2.465 -0.1662  0.9683 -0.4927
  279MOL    H7933995   5.916   2.163   2.314  1.2826 -0.1886  0.8987
  279MOL    C8033996   6.059   2.308   2.381  0.1566 -0.8500  0.2272
  279MOL    C8133997   6.074   2.411   2.497 -0.3107 -0.5905  0.5359
  279MOL    H8233998   6.123   2.221   2.396  0.3014 -0.8284 -0.2768
  279MOL    H8333999   6.098   2.359   2.293 -0.1435  1.1620  1.2209
  279MOL    H8434000   5.993   2.484   2.488  0.3416 -0.0239 -0.9593
  279MOL    H8534001   6.054   2.363   2.593  1.5385 -2.8411 -0.1709
  279MOL    C8634002   6.209   2.480   2.492  0.1269  0.6451 -0.1957
  279MOL    C8734003   6.294   2.467   2.627  0.5724 -0.5199 -0.5320
  279MOL    H8834004   6.270   2.443   2.409  1.1430  0.9396  0.4062
  279MOL    H8934005   6.177   2.582   2.475 -3.2230 -0.3035  0.1262
  279MOL    H9034006   6.240   2.507   2.714  1.3928 -0.2877 -0.1216
  279MOL    H9134007   6.316   2.362   2.647  0.0157 -0.7252 -0.9830
  279MOL    C9234008   6.416   2.555   2.604 -0.4259 -0.3678  0.3141
  279MOL    C9334009   6.536   2.529   2.696  0.3438 -0.1344 -0.4592
  279MOL    H9434010   6.445   2.553   2.499 -1.6288 -0.2681 -0.0305
  279MOL    H9534011   6.386   2.658   2.622  0.0501 -0.8367  4.3665
  279MOL    H9634012   6.510   2.553   2.799  1.2050  2.1136 -0.7407
  279MOL    H9734013   6.570   2.426   2.704  0.0960 -0.1269  0.8034
  279MOL    C9834014   6.653   2.627   2.665 -0.8383 -0.0555 -0.5344
  279MOL    C9934015   6.784   2.559   2.705 -0.3820  0.4470  0.0201
  279MOL   H10034016   6.651   2.640   2.556  0.1562  2.7686 -0.2596
  279MOL   H10134017   6.631   2.721   2.714  1.6803  0.6386 -0.6540
  279MOL   H10234018   6.809   2.554   2.811  0.3098 -3.9249 -0.2609
  279MOL   H10334019   6.782   2.456   2.669 -1.8034  0.2627  0.6072
  279MOL   C10434020   6.907   2.626   2.652 -0.2245  0.2698 -0.2151
  279MOL   C10534021   6.908   2.787   2.678 -0.5603  0.6436 -0.2024
  279MOL   H10634022   6.999   2.592   2.699 -1.4598 -0.2344  1.8921
  279MOL   H10734023   6.917   2.625   2.543  0.3019  0.0493 -0.1668
  279MOL   H10834024   6.811   2.825   2.646 -0.0325  2.4326  0.2579
  279MOL   H10934025   6.911   2.812   2.784  1.2265  4.0137 -0.9688
  279MOL   C11034026   7.034   2.862   2.627 -0.6023 -0.1281  0.7727
  279MOL   C11134027   7.038   3.014   2.646  0.3180  0.0644 -0.1663
  279MOL   H11234028   7.122   2.817   2.673  0.3834  0.0542 -0.9045
  279MOL   H11334029   7.048   2.850   2.520 -3.8467 -1.2022  0.4150
  279MOL   H11434030   7.141   3.040   2.621  0.2092  0.8443  0.1523
  279MOL   H11534031   6.968   3.058   2.574  0.8606  0.3490 -0.5277
  279MOL   C11634032   7.013   3.058   2.790 -0.2832  0.1270  0.0230
  279MOL   C11734033   7.034   3.203   2.816  0.2188 -0.2985  0.1109
  279MOL   H11834034   6.910   3.040   2.817 -1.4643  0.2801 -3.9973
  279MOL   H11934035   7.076   2.998   2.856 -0.0058 -0.2734 -0.5939
  279MOL   H12034036   6.966   3.261   2.753 -1.0699 -1.2340  0.6143
  279MOL   H12134037   7.004   3.232   2.917  0.5528 -0.4653  0.2584
  279MOL   H12234038   7.136   3.225   2.784 -0.1572 -0.9835 -1.6006
  280MOL     C134039   5.343   6.934   4.968 -0.2284 -0.3872  0.0972
  280MOL     C234040   5.353   7.017   5.096 -0.1118 -0.3438  0.4615
  280MOL     H334041   5.284   6.987   4.894 -0.9746 -0.1860  0.8238
  280MOL     H434042   5.301   6.834   4.975  0.3041 -0.6130  0.0298
  280MOL     H534043   5.417   6.970   5.171  2.2911 -0.4087 -1.5728
  280MOL     H634044   5.405   7.112   5.077 -1.4868  0.1908 -0.7195
  280MOL     H734045   5.441   6.925   4.921  0.0520 -2.5628  1.0352
  280MOL     C834046   5.219   7.047   5.168 -0.1223  0.5252 -0.1511
  280MOL     C934047   5.225   7.175   5.258 -0.3329 -0.2493 -0.3346
  280MOL    H1034048   5.151   7.067   5.085  0.6425 -2.9908 -1.6964
  280MOL    H1134049   5.175   6.959   5.214  0.6261 -0.7017 -1.7626
  280MOL    H1234050   5.295   7.161   5.340  1.4344  1.5614 -1.5025
  280MOL    H1334051   5.250   7.260   5.195 -1.9227  0.4442 -0.0532
  280MOL    C1434052   5.091   7.200   5.323  0.1422  0.0291 -0.0177
  280MOL    C1534053   5.076   7.314   5.417 -0.3179 -0.1879 -0.4416
  280MOL    H1634054   5.020   7.211   5.240 -1.7914  1.7357  1.8038
  280MOL    H1734055   5.056   7.110   5.373  2.1121 -1.0502 -0.5541
  280MOL    H1834056   5.143   7.274   5.494 -0.1105  0.0531 -0.4954
  280MOL    H1934057   5.115   7.405   5.372 -1.4144  0.1958 -0.6270
  280MOL    C2034058   4.935   7.340   5.472  0.0822 -0.0100  0.2633
  280MOL    C2134059   4.909   7.483   5.523 -0.6394 -0.0920 -0.3332
  280MOL    H2234060   4.858   7.322   5.396 -1.2313 -0.2325  1.6270
  280MOL    H2334061   4.921   7.270   5.555 -3.4960  0.9697  0.5628
  280MOL    H2434062   4.940   7.557   5.448 -0.4301  0.0278 -0.1261
  280MOL    H2534063   4.803   7.511   5.523 -1.1211 -1.8813 -0.7699
  280MOL    C2634064   5.007   7.524   5.643  0.0809 -0.0912 -0.4438
  280MOL    C2734065   4.981   7.671   5.679  0.1562 -0.0326  0.4467
  280MOL    H2834066   4.972   7.461   5.724 -0.5082 -2.1317 -2.2408
  280MOL    H2934067   5.108   7.492   5.619 -0.0229  0.2276 -1.3347
  280MOL    H3034068   5.008   0.038   5.592 -0.1757  0.4081  0.6431
  280MOL    H3134069   4.877   0.010   5.690  0.1979  0.0088  0.7306
  280MOL    C3234070   5.070   0.050   5.785  0.0922  0.3682  0.3205
  280MOL    C3334071   5.042   0.204   5.786 -0.6222 -0.0406  0.0179
  280MOL    H3434072   5.051   0.000   5.880  0.8340 -0.8744 -0.1608
  280MOL    H3534073   5.172   0.038   5.748  0.3071  2.4671  0.1960
  280MOL    H3634074   5.071   0.244   5.689  0.6898  0.2144  0.5022
  280MOL    H3734075   4.935   0.213   5.804 -0.4640  0.9836  0.4673
  280MOL    C3834076   5.130   0.277   5.885 -0.0978  0.4185  0.2865
  280MOL    C3934077   5.120   0.431   5.888  0.5126  0.3923  0.0717
  280MOL    H4034078   5.119   0.233   5.984  1.4206  0.6789  0.5744
  280MOL    H4134079   5.234   0.253   5.864 -0.1932 -1.1723  1.5951
  280MOL    H4234080   5.109   0.458   5.783 -1.5111 -4.0911 -0.9698
  280MOL    H4334081   5.031   0.469   5.939  0.7047 -0.1505  0.8213
  280MOL    C4434082   5.242   0.489   5.954  0.6360 -0.6524 -1.0027
  280MOL    C4534083   5.251   0.647   5.945 -0.4502 -0.3737  0.0509
  280MOL    H4634084   5.232   0.464   6.059  1.7957  1.7931 -0.2680
  280MOL    H4734085   5.343   0.453   5.933  1.7801  2.2089 -0.5981
  280MOL    H4834086   5.292   0.661   5.845 -1.0826 -2.1504 -0.4610
  280MOL    H4934087   5.154   0.697   5.938 -0.5406 -0.3971  0.9717
  280MOL    C5034088   5.333   0.708   6.055 -0.4612  0.3372  0.2091
  280MOL    C5134089   5.379   0.852   6.021 -0.1553  0.6397 -0.2935
  280MOL    H5234090   5.283   0.711   6.152  1.0140  0.3032  0.9990
  280MOL    H5334091   5.426   0.650   6.061 -0.3967  0.4705  0.5236
  280MOL    H5434092   5.413   0.853   5.917  0.7288  0.3029 -0.0141
  280MOL    H5534093   5.291   0.917   6.019 -0.0945  0.7301 -0.0823
  280MOL    C5634094   5.482   0.903   6.119  0.5068  0.3805  0.1564
  280MOL    C5734095   5.519   1.053   6.093 -0.3432  0.0203 -0.5987
  280MOL    H5834096   5.458   0.881   6.223  2.8755  0.8964  0.8299
  280MOL    H5934097   5.568   0.840   6.102 -0.0398 -0.5103  0.6456
  280MOL    H6034098   5.425   1.109   6.096  0.0748  0.6373  1.1198
  280MOL    H6134099   5.565   1.090   6.184 -0.1623  1.2100 -1.1680
  280MOL    C6234100   5.606   1.073   5.968 -0.0291  0.1813 -0.3582
  280MOL    C6334101   5.635   1.212   5.923  0.1792  0.2818 -0.7675
  280MOL    H6434102   5.701   1.032   6.002 -1.0819 -2.2434 -0.1985
  280MOL    H6534103   5.568   1.011   5.887  0.1640 -2.4170  1.4587
  280MOL    H6634104   5.549   1.270   5.890 -0.3799 -0.5905 -0.8550
  280MOL    H6734105   5.684   1.263   6.006  1.7902 -3.3747  0.6108
  280MOL    C6834106   5.735   1.229   5.811 -1.3400  0.0798  0.7088
  280MOL    C6934107   5.692   1.177   5.672 -0.3934  0.0207 -0.4272
  280MOL    H7034108   5.770   1.332   5.800  1.7028 -1.1692 -1.8727
  280MOL    H7134109   5.827   1.175   5.831 -0.8197  0.3345 -0.8935
  280MOL    H7234110   5.711   1.070   5.664 -0.4725  0.1511 -2.7443
  280MOL    H7334111   5.587   1.195   5.650  0.1792  1.3848 -2.2295
  280MOL    C7434112   5.772   1.235   5.556 -0.1804 -0.1216 -0.4755
  280MOL    C7534113   5.919   1.198   5.561  0.2265  0.2248 -0.4131
  280MOL    H7634114   5.724   1.199   5.465 -1.6877 -1.1177  0.7002
  280MOL    H7734115   5.759   1.343   5.561  1.0592 -0.0489  1.7540
  280MOL    H7834116   5.968   1.266   5.493  0.3838 -1.2816 -1.8474
  280MOL    H7934117   5.977   1.225   5.649 -0.0484  1.0320 -0.4755
  280MOL    C8034118   5.950   1.050   5.512 -0.7354  0.6295  0.0048
  280MOL    C8134119   6.092   1.031   5.466 -0.0541 -0.5351  0.3553
  280MOL    H8234120   5.917   0.975   5.584  0.7812 -0.9671 -0.8984
  280MOL    H8334121   5.886   1.012   5.433 -2.3938  0.9170  1.1881
  280MOL    H8434122   6.117   1.091   5.379 -0.4504  0.1741  0.7307
  280MOL    H8534123   6.163   1.051   5.546 -1.8749  0.7113  1.7088
  280MOL    C8634124   6.105   0.893   5.427  0.5523  0.5386 -0.4120
  280MOL    C8734125   6.252   0.850   5.411  0.4290 -0.0636 -0.3880
  280MOL    H8834126   6.066   0.823   5.500 -2.0725  1.5607 -0.7783
  280MOL    H8934127   6.055   0.878   5.331  1.4093 -0.0695 -0.7680
  280MOL    H9034128   6.315   0.886   5.492 -1.3728 -0.4468  1.2314
  280MOL    H9134129   6.262   0.741   5.409  2.4709 -0.0790  3.7482
  280MOL    C9234130   6.310   0.897   5.276 -0.1217  0.1220 -0.6832
  280MOL    C9334131   6.429   0.809   5.230  0.2932 -0.0268  0.0377
  280MOL    H9434132   6.237   0.881   5.196  1.8993  0.6942 -2.6984
  280MOL    H9534133   6.319   1.005   5.261 -0.6377  0.1257 -0.9622
  280MOL    H9634134   6.512   0.818   5.300 -0.8182 -0.7919  1.4685
  280MOL    H9734135   6.399   0.704   5.228  1.4021 -0.3639  0.6496
  280MOL    C9834136   6.488   0.846   5.093  0.8880 -0.5163  0.4042
  280MOL    C9934137   6.612   0.762   5.061  1.0039 -0.3105  0.8456
  280MOL   H10034138   6.413   0.812   5.022 -1.5275  1.3121  1.9710
  280MOL   H10134139   6.505   0.953   5.076  0.7914 -0.2632  1.8128
  280MOL   H10234140   6.689   0.776   5.136  1.8742  0.7119 -0.2134
  280MOL   H10334141   6.583   0.657   5.057  1.0196 -0.2749 -0.3846
  280MOL   C10434142   6.697   0.811   4.937  1.0096 -1.0613 -0.4327
  280MOL   C10534143   6.827   0.740   4.927  0.7571  0.4786  0.4193
  280MOL   H10634144   6.635   0.802   4.847 -1.9306  2.2597  1.1614
  280MOL   H10734145   6.706   0.917   4.956  1.4760 -1.2510  0.4174
  280MOL   H10834146   6.875   0.719   5.022  3.3566 -0.0344 -0.9715
  280MOL   H10934147   6.810   0.646   4.874 -3.1209  0.0992  2.1272
  280MOL   C11034148   6.924   0.820   4.841  0.4037 -0.0427 -0.2664
  280MOL   C11134149   7.059   0.757   4.838  0.2591 -0.4573  0.4825
  280MOL   H11234150   6.884   0.835   4.741  0.2901  0.1697 -0.1899
  280MOL   H11334151   6.942   0.921   4.879 -0.7251  0.7127 -1.7223
  280MOL   H11434152   7.110   0.770   4.933  0.1414 -2.7835  0.9131
  280MOL   H11534153   7.048   0.648   4.844  0.9459 -0.6832 -1.7656
  280MOL   C11634154   7.144   0.813   4.722 -0.2778 -0.1510 -0.3381
  280MOL   C11734155   7.280   0.750   4.710 -0.9416  0.3223 -1.1746
  280MOL   H11834156   7.086   0.806   4.630  0.2768  0.8208 -0.7675
  280MOL   H11934157   7.159   0.917   4.748  0.4848  0.2284 -2.2164
  280MOL   H12034158   7.271   0.644   4.685 -1.8174  0.0498  0.2337
  280MOL   H12134159   7.346   0.812   4.649 -1.5031  0.8414 -1.2517
  280MOL   H12234160   7.327   0.750   4.808 -2.3788 -2.8225 -0.4167
  281MOL     C134161   4.787   2.395   0.908  0.1171  0.3953  0.4207
  281MOL     C234162   4.897   2.346   0.818  0.1705 -0.5032 -0.2466
  281MOL     H334163   4.776   2.503   0.913 -2.0702  0.3149 -1.6260
  281MOL     H434164   4.814   2.356   1.007 -1.2841 -0.1746  0.5936
  281MOL     H534165   4.912   2.239   0.828 -0.6529 -0.8021 -2.0370
  281MOL     H634166   4.875   2.354   0.712  0.1180  1.2161 -0.1205
  281MOL     H734167   4.695   2.342   0.885  0.9674 -0.7611 -0.3880
  281MOL     C834168   5.032   2.421   0.853 -0.0908 -0.2006 -0.3543
  281MOL     C934169   5.122   2.401   0.733 -0.6421 -0.1658  0.2136
  281MOL    H1034170   5.027   2.529   0.868  0.7369 -0.0092 -1.3680
  281MOL    H1134171   5.085   2.378   0.938  2.2436  0.6565 -1.3202
  281MOL    H1234172   5.155   2.298   0.737  0.1185 -0.0900 -3.0055
  281MOL    H1334173   5.070   2.407   0.637  2.0328  1.0824 -1.2075
  281MOL    C1434174   5.234   2.503   0.724  0.0087 -0.4508 -0.3054
  281MOL    C1534175   5.348   2.467   0.823 -0.1901 -0.3899 -0.0576
  281MOL    H1634176   5.257   2.518   0.619  2.3316 -0.3678  0.1851
  281MOL    H1734177   5.204   2.602   0.758 -1.2719 -1.1080  0.5079
  281MOL    H1834178   5.306   2.419   0.911 -2.2314  0.4599 -0.5322
  281MOL    H1934179   5.405   2.387   0.775 -1.2444 -1.6426  0.7719
  281MOL    C2034180   5.440   2.590   0.854 -0.9372  0.0826 -0.3453
  281MOL    C2134181   5.550   2.556   0.955  0.3129 -0.5654  0.2405
  281MOL    H2234182   5.493   2.616   0.763 -0.7699  2.1821  0.3280
  281MOL    H2334183   5.377   2.674   0.885 -0.1379  0.3317  0.6289
  281MOL    H2434184   5.585   2.465   0.908  0.6576 -1.3541  1.9799
  281MOL    H2534185   5.632   2.627   0.950 -0.4269  0.4368  1.8456
  281MOL    C2634186   5.498   2.548   1.107  0.0909  0.7559 -0.0305
  281MOL    C2734187   5.598   2.491   1.208  0.6323  0.0185  0.4602
  281MOL    H2834188   5.467   2.638   1.160  0.1820  0.5295  0.4042
  281MOL    H2934189   5.408   2.488   1.098  0.3561  0.0930  1.7206
  281MOL    H3034190   5.687   2.553   1.218 -1.0651  2.4529  0.7596
  281MOL    H3134191   5.545   2.480   1.302 -0.6346  0.5240 -0.1855
  281MOL    C3234192   5.647   2.350   1.161  0.0248 -0.7425  0.3194
  281MOL    C3334193   5.758   2.310   1.254 -0.1432 -0.0344  0.2793
  281MOL    H3434194   5.578   2.266   1.153  0.5884 -1.1829  0.0404
  281MOL    H3534195   5.695   2.350   1.063 -0.4244 -0.1346  0.1050
  281MOL    H3634196   5.838   2.384   1.266  0.3275 -0.6742  1.1579
  281MOL    H3734197   5.716   2.305   1.355  1.3804 -1.5541  0.8389
  281MOL    C3834198   5.823   2.178   1.215  0.5450  0.2223  0.0050
  281MOL    C3934199   5.919   2.185   1.090 -0.4813 -0.0803  0.1971
  281MOL    H4034200   5.893   2.146   1.291  0.7402 -0.8780 -0.6307
  281MOL    H4134201   5.753   2.095   1.209  0.8553 -0.1788  1.6353
  281MOL    H4234202   5.849   2.195   1.007 -1.7834 -0.1695  1.2646
  281MOL    H4334203   5.979   2.275   1.105 -0.9600  0.2625  0.0647
  281MOL    C4434204   6.018   2.069   1.079 -0.0520 -0.0784 -0.2448
  281MOL    C4534205   6.120   2.092   0.964 -0.2512 -0.2181  0.1889
  281MOL    H4634206   6.068   2.047   1.173 -0.6073  1.9996  0.5592
  281MOL    H4734207   5.944   1.992   1.053 -0.6935  0.9162 -1.4172
  281MOL    H4834208   6.059   2.132   0.882 -1.5128 -0.5453  0.9469
  281MOL    H4934209   6.193   2.164   1.001  0.5616 -0.8718 -0.1329
  281MOL    C5034210   6.186   1.964   0.905 -0.2314  0.4131  0.3797
  281MOL    C5134211   6.294   1.989   0.806 -0.8082  0.2083 -0.1717
  281MOL    H5234212   6.227   1.908   0.989 -2.1556 -0.7223  0.5935
  281MOL    H5334213   6.111   1.901   0.857  2.6675 -2.8860  0.0109
  281MOL    H5434214   6.371   2.057   0.842 -0.6725  0.2083 -0.4578
  281MOL    H5534215   6.349   1.896   0.793 -0.8430  0.1005  0.4428
  281MOL    C5634216   6.251   2.031   0.661  0.1781  0.6201 -0.2291
  281MOL    C5734217   6.374   2.074   0.582  0.0395  0.0183  0.2760
  281MOL    H5834218   6.196   1.952   0.610 -0.5337  1.0195 -0.0961
  281MOL    H5934219   6.173   2.107   0.660 -2.3838 -1.8945 -2.9240
  281MOL    H6034220   6.442   2.125   0.650 -1.5507  0.6358  1.4327
  281MOL    H6134221   6.435   1.987   0.558  2.2843  2.1881 -2.0648
  281MOL    C6234222   6.336   2.147   0.452  0.1989 -0.3465 -0.9733
  281MOL    C6334223   6.442   2.142   0.344 -0.4081  0.2185  0.6237
  281MOL    H6434224   6.245   2.106   0.409  0.2076 -0.2912 -1.0438
  281MOL    H6534225   6.321   2.250   0.485  2.4033 -0.3009  0.0231
  281MOL    H6634226   6.543   2.163   0.380 -0.8248  2.3561  0.6198
  281MOL    H6734227   6.449   2.042   0.303  1.1437  0.4106  0.3795
  281MOL    C6834228   6.423   2.256   0.243 -0.7855  0.0988  0.2751
  281MOL    C6934229   6.513   2.235   0.119 -0.3518 -0.5087 -0.7899
  281MOL    H7034230   6.321   2.263   0.206 -0.3813  0.0922 -0.8750
  281MOL    H7134231   6.440   2.354   0.288 -1.7997 -0.6963  2.4621
  281MOL    H7234232   6.611   2.221   0.165 -1.1371  0.9168  1.4002
  281MOL    H7334233   6.494   2.140   0.069 -2.1799  0.1090 -1.3205
  281MOL    C7434234   6.496   2.354   0.015 -0.3167  0.1544 -1.0650
  281MOL    C7534235   6.552   2.483   0.074 -0.1095  0.3324 -0.6637
  281MOL    H7634236   6.564   2.329   7.624  1.6006  1.8828 -0.0612
  281MOL    H7734237   6.407   2.374   7.648 -0.2714  0.4843 -1.0229
  281MOL    H7834238   6.476   2.524   0.141 -3.1856 -0.8973 -3.2933
  281MOL    H7934239   6.636   2.455   0.138  0.0505  0.5360 -0.7811
  281MOL    C8034240   6.565   2.592   7.662  0.5198 -0.1293 -0.3354
  281MOL    C8134241   6.579   2.728   0.030 -1.0253  0.9288 -0.5275
  281MOL    H8234242   6.637   2.571   7.583  2.2813 -0.1361  1.2259
  281MOL    H8334243   6.468   2.603   7.614 -0.0395 -2.8650  0.0847
  281MOL    H8434244   6.504   2.736   0.109 -0.0412  1.2642  0.3734
  281MOL    H8534245   6.675   2.726   0.081 -1.4572 -0.6396  0.2278
  281MOL    C8634246   6.566   2.853   7.625  0.1333 -0.0061 -0.2907
  281MOL    C8734247   6.595   3.001   7.685  0.5404 -0.2692 -0.5649
  281MOL    H8834248   6.627   2.840   7.536  0.5151 -0.4380  0.0318
  281MOL    H8934249   6.460   2.846   7.602  0.0246  0.4014  0.0823
  281MOL    H9034250   6.529   3.034   0.073  1.2678 -1.7859  0.6861
  281MOL    H9134251   6.697   3.013   0.030  0.5072 -0.0362 -0.5512
  281MOL    C9234252   6.592   3.106   7.568 -0.3365  0.2518  0.2435
  281MOL    C9334253   6.452   3.127   7.518 -0.4311 -0.0408  0.4322
  281MOL    H9434254   6.622   3.207   7.594  0.9940 -0.4315  1.4300
  281MOL    H9534255   6.654   3.073   7.484 -2.8592 -0.8261 -1.2809
  281MOL    H9634256   6.406   3.030   7.501 -0.9705  0.2872 -0.0096
  281MOL    H9734257   6.387   3.177   7.589 -2.9160  1.5434 -2.8134
  281MOL    C9834258   6.440   3.228   7.401  0.3503  0.2781  0.2960
  281MOL    C9934259   6.468   3.161   7.269  0.0089 -0.2831 -1.2041
  281MOL   H10034260   6.336   3.260   7.403 -0.3176 -1.8325  2.1260
  281MOL   H10134261   6.487   3.325   7.417 -1.2053  0.9424  0.9431
  281MOL   H10234262   6.576   3.152   7.260  0.0795 -1.2578  0.3569
  281MOL   H10334263   6.434   3.057   7.272  1.1546 -0.6500  3.7475
  281MOL   C10434264   6.418   3.240   7.154  0.1229  0.1925 -0.2283
  281MOL   C10534265   6.446   3.166   7.024 -0.2677 -0.2469 -0.1599
  281MOL   H10634266   6.310   3.250   7.159  0.1079 -0.0525 -0.0854
  281MOL   H10734267   6.464   3.338   7.165  0.2995  0.4505 -2.8882
  281MOL   H10834268   6.552   3.150   7.007  0.0699 -2.1094  3.2088
  281MOL   H10934269   6.380   3.080   7.034 -1.4979  0.7157  0.0689
  281MOL   C11034270   6.394   3.249   6.911 -0.0015 -0.0294 -0.0199
  281MOL   C11134271   6.456   3.384   6.890 -0.2960  0.4354 -0.5062
  281MOL   H11234272   6.409   3.177   6.830  1.4734 -0.7304  0.8548
  281MOL   H11334273   6.286   3.255   6.920 -0.0362 -0.6304 -0.0027
  281MOL   H11434274   6.446   3.435   6.986  0.5329 -1.3442  0.5478
  281MOL   H11534275   6.562   3.373   6.866  0.1308 -2.0492  2.3013
  281MOL   C11634276   6.387   3.477   6.791 -0.2889  0.8539 -0.2185
  281MOL   C11734277   6.471   3.604   6.764 -0.2693 -0.4660 -0.5635
  281MOL   H11834278   6.396   3.427   6.694 -1.2921  0.9293 -0.3465
  281MOL   H11934279   6.280   3.496   6.795 -1.3903 -4.2539 -1.9442
  281MOL   H12034280   6.508   3.646   6.858  0.1470  0.1313 -0.9909
  281MOL   H12134281   6.557   3.585   6.701 -1.4295 -1.8849 -1.7478
  281MOL   H12234282   6.412   3.686   6.724  0.5104 -0.3373 -1.4592
  282MOL     C134283   2.784   6.841   5.830  0.1039 -0.5790 -0.7813
  282MOL     C234284   2.702   6.969   5.873 -0.0195 -0.0485 -0.1820
  282MOL     H334285   2.891   6.851   5.852  0.0829  2.6134 -1.7913
  282MOL     H434286   2.787   6.819   5.723  0.2150  0.7960 -1.0807
  282MOL     H534287   2.693   6.973   5.982 -0.4622  0.4057 -0.2307
  282MOL     H634288   2.762   7.060   5.863 -0.2469  0.2180  0.8404
  282MOL     H734289   2.748   6.760   5.894 -0.7387  1.0522  0.8581
  282MOL     C834290   2.574   6.957   5.798  0.1099  0.0030  0.0040
  282MOL     C934291   2.472   7.066   5.829 -0.1641 -0.4109  0.0609
  282MOL    H1034292   2.599   6.978   5.694 -0.0875  0.8044  0.1179
  282MOL    H1134293   2.532   6.856   5.800 -2.0488  0.8445 -1.6349
  282MOL    H1234294   2.464   7.069   5.937 -0.5324 -1.5373  0.0757
  282MOL    H1334295   2.513   7.164   5.806 -0.4642 -0.2001  0.4396
  282MOL    C1434296   2.347   7.064   5.747  0.2787  0.2815 -0.0433
  282MOL    C1534297   2.247   6.954   5.793 -0.2866 -0.4742 -0.0068
  282MOL    H1634298   2.289   7.156   5.758  0.4951  0.3219  0.8387
  282MOL    H1734299   2.369   7.074   5.641 -3.4259 -0.8222 -0.9998
  282MOL    H1834300   2.293   6.855   5.799  0.6156  0.0480  2.0452
  282MOL    H1934301   2.218   6.975   5.896 -0.7445  0.8788 -0.4077
  282MOL    C2034302   2.125   6.944   5.701  0.3276 -0.1739  0.7269
  282MOL    C2134303   2.046   6.811   5.723 -0.3483 -0.6002  0.0393
  282MOL    H2234304   2.061   7.028   5.727 -2.9033 -1.8274 -1.5730
  282MOL    H2334305   2.161   6.954   5.599  0.6814 -0.3498  0.8311
  282MOL    H2434306   2.110   6.728   5.693 -0.5136 -0.4851 -0.6226
  282MOL    H2534307   2.011   6.805   5.826 -0.9288 -0.3369 -0.1405
  282MOL    C2634308   1.923   6.790   5.630  0.3337 -1.1993 -0.0760
  282MOL    C2734309   1.818   6.686   5.684 -0.0351 -0.0191  0.6700
  282MOL    H2834310   1.873   6.886   5.614  2.1348 -0.1511  0.4099
  282MOL    H2934311   1.953   6.768   5.528  0.2799 -2.1159  0.1039
  282MOL    H3034312   1.805   6.719   5.787 -0.6552  2.8966 -0.3065
  282MOL    H3134313   1.729   6.708   5.626  1.2986 -0.6365 -1.6820
  282MOL    C3234314   1.855   6.538   5.664 -0.5415 -1.0475  0.3228
  282MOL    C3334315   1.744   6.431   5.706 -0.2632  0.0467  0.1730
  282MOL    H3434316   1.879   6.519   5.559 -0.2932  0.0072  0.1832
  282MOL    H3534317   1.940   6.514   5.727  0.7074 -0.6664 -1.1819
  282MOL    H3634318   1.789   6.332   5.697  0.1560  0.3321 -1.1056
  282MOL    H3734319   1.711   6.446   5.808  1.0168  1.4890  0.4022
  282MOL    C3834320   1.625   6.435   5.619  0.5710  0.5488 -0.6997
  282MOL    C3934321   1.501   6.408   5.698  0.3761  0.9483  0.3342
  282MOL    H4034322   1.616   6.528   5.562  2.9674 -0.2387 -2.4486
  282MOL    H4134323   1.620   6.356   5.544  0.0178 -0.1133  0.0299
  282MOL    H4234324   1.507   6.313   5.751  0.3375  1.3010  0.9872
  282MOL    H4334325   1.496   6.487   5.774 -0.1629  1.3903 -0.1537
  282MOL    C4434326   1.380   6.430   5.608  0.0777  0.0380 -0.3479
  282MOL    C4534327   1.244   6.383   5.668  0.7568 -0.4466  0.2194
  282MOL    H4634328   1.374   6.537   5.589 -0.2530 -0.0987 -1.0339
  282MOL    H4734329   1.389   6.391   5.507  2.2549  2.1696 -1.0156
  282MOL    H4834330   1.254   6.282   5.709 -2.6082 -1.2855 -0.9115
  282MOL    H4934331   1.222   6.442   5.757 -0.3249  0.4502 -0.6504
  282MOL    C5034332   1.130   6.393   5.566 -0.2034  0.3565 -0.2506
  282MOL    C5134333   0.990   6.344   5.607 -0.4574  0.2290 -0.5277
  282MOL    H5234334   1.127   6.491   5.519  1.0410 -1.1682 -3.6610
  282MOL    H5334335   1.169   6.328   5.488  0.0421  1.2769 -0.8891
  282MOL    H5434336   1.011   6.263   5.677  1.1759  0.3591 -0.8619
  282MOL    H5534337   0.946   6.419   5.673  0.9610  0.6151  0.0002
  282MOL    C5634338   0.894   6.313   5.489 -0.6604  0.1984 -0.4202
  282MOL    C5734339   0.758   6.281   5.547  0.0429  0.6125  0.4809
  282MOL    H5834340   0.889   6.397   5.419 -1.6576  0.1772 -0.3739
  282MOL    H5934341   0.932   6.224   5.439 -0.0074 -0.0430  0.5062
  282MOL    H6034342   0.763   6.201   5.620 -0.8137 -0.7497 -0.9363
  282MOL    H6134343   0.721   6.363   5.608 -0.7157  1.8544 -1.5807
  282MOL    C6234344   0.663   6.229   5.438 -0.0714 -0.0877  0.3848
  282MOL    C6334345   0.529   6.208   5.498 -0.5528 -0.1268 -0.4801
  282MOL    H6434346   0.669   6.301   5.356 -0.8855  0.9570  1.2320
  282MOL    H6534347   0.693   6.128   5.408  1.6278  0.6122 -0.3269
  282MOL    H6634348   0.523   6.143   5.585  1.0068  1.1850  0.6504
  282MOL    H6734349   0.486   6.305   5.522  0.3818  0.3610 -0.7407
  282MOL    C6834350   0.432   6.150   5.385  0.8349 -0.2543  0.5111
  282MOL    C6934351   0.291   6.135   5.432  1.3186  0.3275 -0.4623
  282MOL    H7034352   0.417   6.227   5.310 -0.3220 -0.7742  0.1894
  282MOL    H7134353   0.465   6.054   5.348 -0.3484 -0.3040 -0.4322
  282MOL    H7234354   0.304   6.073   5.521 -0.4160 -1.7736 -1.6342
  282MOL    H7334355   0.256   6.234   5.460 -0.9831 -0.6182  0.1757
  282MOL    C7434356   0.187   6.070   5.334 -0.7689  0.4510 -0.1086
  282MOL    C7534357   0.042   6.066   5.388 -0.4844 -0.4798  0.4868
  282MOL    H7634358   0.196   6.137   5.248 -2.5962 -0.5108 -1.0864
  282MOL    H7734359   0.211   5.968   5.307  0.1022  0.4069  0.8273
  282MOL    H7834360   0.042   6.004   5.478 -1.1041 -2.5950 -0.9432
  282MOL    H7934361   0.004   6.164   5.416  2.0060 -0.2128  3.1139
  282MOL    C8034362   7.642   5.992   5.291  0.3676 -0.6421 -0.4747
  282MOL    C8134363   7.495   5.996   5.329 -0.1463 -0.7947  0.1787
  282MOL    H8234364   7.662   6.039   5.195 -1.4483  2.6864  0.6971
  282MOL    H8334365   7.686   5.892   5.285  0.1066 -0.6902 -1.7313
  282MOL    H8434366   7.491   5.924   5.411 -1.3924 -1.2180 -0.2428
  282MOL    H8534367   7.478   6.101   5.352 -3.0153 -0.9335 -1.1667
  282MOL    C8634368   7.397   5.968   5.216 -0.2585 -0.3115  0.3832
  282MOL    C8734369   7.247   5.955   5.249 -0.2987 -0.0900  0.5759
  282MOL    H8834370   7.411   6.039   5.135 -2.4607 -0.7321 -0.4036
  282MOL    H8934371   7.436   5.875   5.174  0.4246 -0.7764  1.9937
  282MOL    H9034372   7.244   5.907   5.347 -0.3129  1.0264  1.1264
  282MOL    H9134373   7.209   6.052   5.279 -0.4852 -0.4055  1.3694
  282MOL    C9234374   7.163   5.865   5.154 -0.5826  0.1874  0.0958
  282MOL    C9334375   7.025   5.835   5.219  0.2018  0.3313 -0.4903
  282MOL    H9434376   7.147   5.924   5.064 -0.8660 -1.8179 -1.2000
  282MOL    H9534377   7.220   5.777   5.127 -0.1546 -0.0868  1.8061
  282MOL    H9634378   7.021   5.739   5.270  3.1297 -0.3634 -1.4750
  282MOL    H9734379   7.001   5.907   5.298 -0.1402 -0.6521  0.3112
  282MOL    C9834380   6.912   5.819   5.118  0.2258 -0.6582 -0.5236
  282MOL    C9934381   6.778   5.841   5.198  0.2577  1.0180 -0.3579
  282MOL   H10034382   6.921   5.891   5.037 -0.5421  0.8513  0.7114
  282MOL   H10134383   6.930   5.726   5.064  0.3075  0.2650 -2.1229
  282MOL   H10234384   6.775   5.775   5.285  1.8062 -0.5048 -1.4292
  282MOL   H10334385   6.783   5.942   5.238  0.1138  0.5836  0.7892
  282MOL   C10434386   6.645   5.830   5.118  0.1848  0.1212  0.0311
  282MOL   C10534387   6.523   5.845   5.213 -0.9343  0.2904  0.1186
  282MOL   H10634388   6.642   5.899   5.033 -1.0581 -0.9656 -0.8099
  282MOL   H10734389   6.633   5.728   5.081  1.7814  0.2037 -0.7580
  282MOL   H10834390   6.526   5.772   5.294 -0.2852  2.1811  1.8215
  282MOL   H10934391   6.513   5.940   5.265 -0.0521  1.2023 -1.3438
  282MOL   C11034392   6.396   5.827   5.136  0.0695 -0.0501 -0.2912
  282MOL   C11134393   6.274   5.853   5.218  0.5118  0.5777  0.2305
  282MOL   H11234394   6.385   5.895   5.052 -3.2758 -0.3280 -0.1387
  282MOL   H11334395   6.401   5.726   5.093  1.8927  0.8488 -2.3148
  282MOL   H11434396   6.295   5.826   5.321  1.0239  0.3709  0.0786
  282MOL   H11534397   6.239   5.956   5.210 -1.9685 -0.3683 -1.9446
  282MOL   C11634398   6.158   5.773   5.169 -0.7921 -0.2819  0.6313
  282MOL   C11734399   6.027   5.800   5.241  0.1348 -0.0014 -0.3968
  282MOL   H11834400   6.148   5.797   5.063 -0.9799 -1.3572  0.3977
  282MOL   H11934401   6.175   5.666   5.166 -0.5808 -0.2111 -1.9441
  282MOL   H12034402   6.027   5.779   5.348  0.7367  0.5873 -0.2798
  282MOL   H12134403   5.991   5.902   5.235 -0.1236 -0.0046  1.0532
  282MOL   H12234404   5.952   5.741   5.188  0.9103 -2.2782  0.9396
  283MOL     C134405   2.147   4.580   6.945 -0.0230 -0.5552 -0.0510
  283MOL     C234406   2.049   4.675   6.874  0.1021  0.0152 -0.2333
  283MOL     H334407   2.250   4.611   6.932  0.1408 -0.4800  1.3696
  283MOL     H434408   2.133   4.474   6.924 -0.4713 -0.4024 -0.5304
  283MOL     H534409   2.052   4.772   6.923  1.1816  0.7061 -1.6038
  283MOL     H634410   2.075   4.695   6.770  0.8057  1.6533  0.2347
  283MOL     H734411   2.134   4.592   7.053  1.0416  1.8450 -0.1611
  283MOL     C834412   1.911   4.614   6.891  0.6658 -0.0956 -0.5716
  283MOL     C934413   1.873   4.497   6.793  0.2345  0.1820 -0.5223
  283MOL    H1034414   1.889   4.590   6.995 -1.4198  1.1312 -0.7048
  283MOL    H1134415   1.839   4.692   6.866  1.0819  0.1161 -1.1312
  283MOL    H1234416   1.886   4.528   6.689  1.9578  2.1953  0.2582
  283MOL    H1334417   1.936   4.413   6.822 -0.3098  0.6939  2.2797
  283MOL    C1434418   1.728   4.458   6.801  0.6970  0.5531  0.0593
  283MOL    C1534419   1.702   4.346   6.692  0.4684 -0.1270 -0.1297
  283MOL    H1634420   1.716   4.423   6.904  3.7459 -1.1012 -0.1024
  283MOL    H1734421   1.665   4.543   6.775  0.1411 -0.1894 -1.0466
  283MOL    H1834422   1.696   4.376   6.587  1.8875 -1.1252 -0.5021
  283MOL    H1934423   1.786   4.278   6.696  2.8340  2.6285 -1.3109
  283MOL    C2034424   1.568   4.264   6.725  0.5193  0.0550  0.1599
  283MOL    C2134425   1.526   4.177   6.606 -0.3832  0.0475 -0.5127
  283MOL    H2234426   1.578   4.197   6.810 -0.9561  0.5680  0.7536
  283MOL    H2334427   1.492   4.337   6.753 -1.3812 -2.5822  2.0961
  283MOL    H2434428   1.524   4.244   6.520 -0.6350 -0.0107 -0.5554
  283MOL    H2534429   1.599   4.101   6.578 -1.2020 -0.5476 -1.0874
  283MOL    C2634430   1.400   4.101   6.631 -0.9604 -0.4033 -0.9086
  283MOL    C2734431   1.369   4.013   6.506  0.2116  0.5326  0.2287
  283MOL    H2834432   1.410   4.040   6.721  0.1206  3.7272  1.9275
  283MOL    H2934433   1.314   4.167   6.644  0.2264  0.9194  0.5062
  283MOL    H3034434   1.356   4.077   6.418 -0.7468  0.1827  0.1019
  283MOL    H3134435   1.442   3.936   6.481  0.9170  0.6093  1.9531
  283MOL    C3234436   1.229   3.936   6.515 -0.0514 -0.1224  0.4387
  283MOL    C3334437   1.234   3.802   6.437 -0.2522 -0.4951  0.7109
  283MOL    H3434438   1.211   3.905   6.618  2.4235  1.7116  1.4979
  283MOL    H3534439   1.145   3.997   6.483 -1.4276 -1.4451  1.5055
  283MOL    H3634440   1.256   3.821   6.332 -1.3625 -3.6451 -0.1538
  283MOL    H3734441   1.315   3.749   6.487 -0.2657 -1.6048 -0.4002
  283MOL    C3834442   1.102   3.723   6.422  0.7698 -0.3703 -1.2425
  283MOL    C3934443   1.046   3.658   6.551  0.2576 -0.1770 -0.1919
  283MOL    H4034444   1.026   3.787   6.377  0.2259  0.0153  0.1833
  283MOL    H4134445   1.115   3.645   6.346 -0.0040 -0.4046 -1.3439
  283MOL    H4234446   1.113   3.574   6.571 -0.9580 -1.1848 -0.2857
  283MOL    H4334447   1.049   3.733   6.631 -2.4882  0.9702 -1.1137
  283MOL    C4434448   0.902   3.603   6.535 -0.0437 -0.6705  0.4429
  283MOL    C4534449   0.859   3.528   6.663  1.1241 -0.2778 -0.1621
  283MOL    H4634450   0.833   3.685   6.517 -0.9339 -1.6010 -0.4489
  283MOL    H4734451   0.898   3.548   6.441 -2.6863  2.4664 -1.3634
  283MOL    H4834452   0.857   3.575   6.762  1.7738 -0.4037 -0.0876
  283MOL    H4934453   0.752   3.510   6.652  0.8935  0.7993  0.2307
  283MOL    C5034454   0.934   3.395   6.676  0.2380 -0.5668  0.9296
  283MOL    C5134455   0.851   3.292   6.754 -0.1419 -0.0432 -0.0801
  283MOL    H5234456   0.940   3.346   6.578 -1.3661  0.6933  0.1774
  283MOL    H5334457   1.032   3.399   6.724  0.1960 -1.4476  1.0979
  283MOL    H5434458   0.817   3.343   6.843 -3.4139 -0.3361 -1.1021
  283MOL    H5534459   0.754   3.279   6.705  0.3718 -0.6117 -0.9634
  283MOL    C5634460   0.910   3.146   6.772 -0.2539 -0.9152 -0.1413
  283MOL    C5734461   0.823   3.053   6.852 -0.6330 -0.2462 -0.7032
  283MOL    H5834462   0.935   3.103   6.674  3.3338  1.3790 -0.3371
  283MOL    H5934463   1.008   3.154   6.819 -1.3602 -1.6678  2.3326
  283MOL    H6034464   0.875   2.972   6.904  0.7822  1.8840  1.2728
  283MOL    H6134465   0.777   3.102   6.938 -1.0286 -1.3429 -0.2695
  283MOL    C6234466   0.712   2.988   6.770 -0.1421  0.0604  0.5820
  283MOL    C6334467   0.580   2.989   6.841  0.2436 -0.2174 -0.1212
  283MOL    H6434468   0.712   3.049   6.679  0.2362  2.1793  1.9675
  283MOL    H6534469   0.741   2.887   6.743  0.6114  0.1073  1.2015
  283MOL    H6634470   0.522   2.914   6.788  0.1058 -0.4848  0.4018
  283MOL    H6734471   0.601   2.960   6.944  0.7341 -1.9057 -0.6782
  283MOL    C6834472   0.523   3.130   6.827  0.9801 -0.3246  0.2490
  283MOL    C6934473   0.384   3.129   6.902  0.1456  0.1540 -0.0867
  283MOL    H7034474   0.594   3.202   6.870 -0.1850  0.4432  0.9261
  283MOL    H7134475   0.501   3.151   6.722  1.9828  0.0410  0.1079
  283MOL    H7234476   0.321   3.049   6.864  1.7495 -0.6072 -1.1924
  283MOL    H7334477   0.392   3.117   7.010  0.3478  0.7537 -0.0334
  283MOL    C7434478   0.299   3.259   6.888 -0.1310 -0.9355  0.7352
  283MOL    C7534479   0.155   3.263   6.934  0.4775  0.3522 -0.4090
  283MOL    H7634480   0.348   3.342   6.939 -0.5443  0.9562 -1.8447
  283MOL    H7734481   0.305   3.284   6.782  2.0673 -1.4305  0.7265
  283MOL    H7834482   0.152   3.247   7.041  0.2851  0.4944 -0.3934
  283MOL    H7934483   0.127   3.367   6.916  1.2806  1.0640  2.3175
  283MOL    C8034484   0.055   3.165   6.861 -0.0499 -0.7196  0.0762
  283MOL    C8134485   7.603   3.187   6.913 -0.3413 -0.5455 -0.5709
  283MOL    H8234486   0.086   3.188   6.759 -0.5929  1.6789  0.4289
  283MOL    H8334487   0.083   3.060   6.871  1.7087 -0.2771 -0.0533
  283MOL    H8434488   7.611   3.149   7.016 -1.6898  2.3895  0.6696
  283MOL    H8534489   7.577   3.292   6.919  2.2122  0.0120  2.0959
  283MOL    C8634490   7.498   3.114   6.837 -0.5748 -0.3327  0.1845
  283MOL    C8734491   7.367   3.129   6.918  0.2324  0.7277 -0.2273
  283MOL    H8834492   7.494   3.166   6.741  0.7403  0.7688  0.7082
  283MOL    H8934493   7.509   3.006   6.834  0.5370 -0.1960 -1.5265
  283MOL    H9034494   7.385   3.085   7.016  1.1373  1.3098 -0.1255
  283MOL    H9134495   7.329   3.231   6.929  1.6812  1.1606  0.8709
  283MOL    C9234496   7.264   3.050   6.836  0.4768  0.1606 -0.0862
  283MOL    C9334497   7.117   3.063   6.897 -0.6268  0.2055 -0.8643
  283MOL    H9434498   7.263   3.091   6.735  1.2246  0.3661 -0.0104
  283MOL    H9534499   7.291   2.945   6.839 -1.6817 -0.5522 -2.6059
  283MOL    H9634500   7.076   3.164   6.890  0.5986  0.6216 -2.1075
  283MOL    H9734501   7.053   3.006   6.831 -0.5741 -1.4764  0.5186
  283MOL    C9834502   7.105   2.999   7.045 -0.2592 -0.1568 -0.3002
  283MOL    C9934503   6.952   2.976   7.064  0.0191  0.3562  0.0847
  283MOL   H10034504   7.148   2.899   7.044 -0.5621 -0.3076  0.8328
  283MOL   H10134505   7.152   3.067   7.116 -1.8361  1.1542 -0.4769
  283MOL   H10234506   6.895   3.054   7.014 -0.8370 -0.3715 -0.0878
  283MOL   H10334507   6.911   2.889   7.013  1.3981  0.2208 -0.8267
  283MOL   C10434508   6.923   2.969   7.214  0.5296 -0.0708  0.0119
  283MOL   C10534509   6.978   2.849   7.302  0.2698 -0.4133 -0.8064
  283MOL   H10634510   6.945   3.063   7.264 -0.5457 -0.9840  2.2706
  283MOL   H10734511   6.815   2.976   7.222  0.2913 -1.3774 -1.6533
  283MOL   H10834512   6.924   2.762   7.264  0.9352 -0.3116 -1.9945
  283MOL   H10934513   7.082   2.838   7.273  0.3528 -0.4029 -0.5127
  283MOL   C11034514   6.953   2.872   7.456  0.8579 -0.4218  0.1466
  283MOL   C11134515   6.975   2.740   7.527 -0.3737  0.1410  0.0384
  283MOL   H11234516   7.029   2.943   7.490  0.5218 -0.7122  1.5353
  283MOL   H11334517   6.855   2.918   7.468  0.7265 -0.3737 -1.0707
  283MOL   H11434518   6.897   2.672   7.493  1.8127 -1.9603 -0.9144
  283MOL   H11534519   7.076   2.699   7.522  0.2358  1.5610  0.5743
  283MOL   C11634520   6.954   2.748   7.677 -0.3592 -0.2193  0.1872
  283MOL   C11734521   6.954   2.613   0.059  0.4321 -0.5939 -0.3972
  283MOL   H11834522   7.020   2.825   0.026  0.4557 -1.0847  0.5149
  283MOL   H11934523   6.854   2.787   0.005 -0.3224 -1.4205  2.9057
  283MOL   H12034524   7.057   2.594   0.086  0.7979  2.1333  0.2998
  283MOL   H12134525   6.906   2.627   0.156  1.2751 -1.6050  0.1709
  283MOL   H12234526   6.912   2.522   0.016  0.7737 -0.8700 -0.1477
  284MOL     C134527   5.753   5.914   2.191 -0.7132  0.2041  0.8070
  284MOL     C234528   5.903   5.921   2.200 -0.3929 -0.4714 -0.0018
  284MOL     H334529   5.714   5.815   2.213 -0.1010 -0.6844 -1.8999
  284MOL     H434530   5.726   5.946   2.090  1.4119  0.4672  0.2973
  284MOL     H534531   5.935   6.016   2.156 -1.0415 -0.1839  0.1413
  284MOL     H634532   5.933   5.923   2.305  1.4655  1.2656 -0.5193
  284MOL     H734533   5.721   5.994   2.258 -0.8813  1.9238 -1.2413
  284MOL     C834534   5.963   5.796   2.133 -0.3979  0.2185  0.5873
  284MOL     C934535   6.111   5.814   2.115  0.3557  0.1707 -0.5292
  284MOL    H1034536   5.952   5.715   2.206 -1.6053  0.1473  0.3406
  284MOL    H1134537   5.907   5.789   2.040 -1.0333  0.6726  0.9268
  284MOL    H1234538   6.132   5.887   2.038 -0.2197  0.0412 -0.8105
  284MOL    H1334539   6.151   5.863   2.204  0.7591  1.3549 -1.3628
  284MOL    C1434540   6.183   5.685   2.085 -0.1219  0.5452  0.6478
  284MOL    C1534541   6.335   5.703   2.072  0.4859  0.3231 -0.5230
  284MOL    H1634542   6.163   5.613   2.164 -2.0448  0.4720  0.1293
  284MOL    H1734543   6.138   5.637   1.998 -0.9493  2.4422 -0.0050
  284MOL    H1834544   6.358   5.777   1.995  0.8801 -0.6670 -1.3734
  284MOL    H1934545   6.375   5.729   2.170  2.9849  1.1642 -1.7020
  284MOL    C2034546   6.393   5.571   2.015  0.1802  0.6168 -0.3646
  284MOL    C2134547   6.542   5.560   1.986  0.0381 -0.2291  0.0093
  284MOL    H2234548   6.367   5.504   2.097  0.0160  2.0622  0.7961
  284MOL    H2334549   6.337   5.543   1.926 -0.0041 -0.5367  0.1061
  284MOL    H2434550   6.584   5.654   1.951 -0.0196 -0.7259 -1.4033
  284MOL    H2534551   6.592   5.546   2.082 -1.1443  3.0157  1.1685
  284MOL    C2634552   6.563   5.441   1.894  0.1963  0.4466  0.2823
  284MOL    C2734553   6.701   5.423   1.834  0.7390 -0.1534 -0.4682
  284MOL    H2834554   6.546   5.341   1.934 -0.4811 -0.3457 -1.9224
  284MOL    H2934555   6.498   5.452   1.807  0.9952 -3.2148 -0.8697
  284MOL    H3034556   6.744   5.514   1.792  0.5543 -0.3882 -1.1910
  284MOL    H3134557   6.761   5.385   1.916 -0.0142  2.0769  1.1467
  284MOL    C3234558   6.702   5.327   1.718 -0.3235 -0.5654  0.1401
  284MOL    C3334559   6.823   5.363   1.616  1.1374 -0.6776  0.0295
  284MOL    H3434560   6.712   5.221   1.743 -0.8221 -0.8846 -0.9948
  284MOL    H3534561   6.612   5.337   1.657  0.3394  1.1606 -0.5780
  284MOL    H3634562   6.807   5.455   1.560  2.6241 -0.8082 -0.6213
  284MOL    H3734563   6.918   5.374   1.669  0.8188  2.5937  0.0191
  284MOL    C3834564   6.833   5.258   1.506 -0.5037 -0.6339  0.3638
  284MOL    C3934565   6.951   5.290   1.410  0.0946 -0.0377 -0.1356
  284MOL    H4034566   6.859   5.166   1.558  1.6246  0.5556  1.4735
  284MOL    H4134567   6.731   5.242   1.471 -0.0770 -0.0211 -1.2315
  284MOL    H4234568   6.955   5.384   1.355  0.2056 -1.7978 -3.2672
  284MOL    H4334569   7.047   5.287   1.461  0.4049  0.1103 -0.7050
  284MOL    C4434570   6.938   5.180   1.296 -0.1788  0.1932  0.3119
  284MOL    C4534571   6.847   5.227   1.186 -0.1030 -0.9840 -0.7649
  284MOL    H4634572   7.039   5.161   1.259 -0.3324 -1.4791  0.7441
  284MOL    H4734573   6.913   5.080   1.331  1.2059 -0.6759 -1.1009
  284MOL    H4834574   6.743   5.223   1.221  0.7890  0.0025  2.1356
  284MOL    H4934575   6.866   5.333   1.170  2.7453 -1.7197 -2.6326
  284MOL    C5034576   6.870   5.141   1.058 -1.1284  0.6161 -0.9158
  284MOL    C5134577   6.793   5.194   0.938  0.1592 -0.6683  0.0279
  284MOL    H5234578   6.977   5.136   1.036 -1.2300 -0.8912 -1.1246
  284MOL    H5334579   6.834   5.041   1.084  1.5418  0.1268  1.1060
  284MOL    H5434580   6.690   5.222   0.959  0.6405  1.5424 -0.3906
  284MOL    H5534581   6.840   5.287   0.904 -2.0331  0.6082  0.3990
  284MOL    C5634582   6.810   5.093   0.822  0.0056 -0.0023  0.3939
  284MOL    C5734583   6.688   5.123   0.720  0.3280 -0.1199 -0.3919
  284MOL    H5834584   6.901   5.100   0.762  0.4489 -0.1051  1.0540
  284MOL    H5934585   6.813   4.986   0.842  3.7617 -0.1421 -0.4741
  284MOL    H6034586   6.591   5.120   0.771 -0.3021 -1.3565 -1.6020
  284MOL    H6134587   6.705   5.222   0.678  0.6467  0.3875  0.9293
  284MOL    C6234588   6.681   5.022   0.604 -0.2041  0.0084  0.5212
  284MOL    C6334589   6.568   5.057   0.502 -0.0469  0.4858 -0.4646
  284MOL    H6434590   6.780   5.026   0.559 -0.0719  0.4797  0.8457
  284MOL    H6534591   6.671   4.922   0.647 -0.3854 -0.2119 -0.0279
  284MOL    H6634592   6.477   5.080   0.558  0.2603 -0.1875  0.3223
  284MOL    H6734593   6.593   5.153   0.457  0.2584  0.3091 -0.6759
  284MOL    C6834594   6.563   4.951   0.392 -0.1745 -0.7070  0.2901
  284MOL    C6934595   6.461   4.980   0.282 -0.5241 -0.2319 -0.6969
  284MOL    H7034596   6.663   4.962   0.351 -0.2054  2.0467  0.8826
  284MOL    H7134597   6.562   4.845   0.418  1.8228 -1.5659 -2.9223
  284MOL    H7234598   6.470   5.082   0.246  1.2951  0.6324  2.0441
  284MOL    H7334599   6.484   4.917   0.196  0.9956  0.2419 -0.6667
  284MOL    C7434600   6.311   4.949   0.320  0.1923 -0.0555 -0.4888
  284MOL    C7534601   6.210   4.962   0.204  0.4898  0.2716  0.0123
  284MOL    H7634602   6.301   4.854   0.373 -0.0328  0.0690 -0.3061
  284MOL    H7734603   6.290   5.023   0.398  1.3196 -0.8900  0.6192
  284MOL    H7834604   6.223   4.885   0.127 -0.3858  0.1410 -0.0147
  284MOL    H7934605   6.104   4.953   0.230  0.4382  0.4503 -0.1299
  284MOL    C8034606   6.223   5.100   0.140 -0.3117  0.4726  0.1455
  284MOL    C8134607   6.108   5.111   0.032 -0.3627 -0.3861  0.6723
  284MOL    H8234608   6.199   5.179   0.211 -1.2486 -0.5238  0.9460
  284MOL    H8334609   6.318   5.104   0.087 -0.3867 -0.6271 -0.0799
  284MOL    H8434610   6.123   5.037   7.645  1.5603  0.1850  0.4738
  284MOL    H8534611   6.012   5.090   0.079 -0.8467  0.4560  0.0665
  284MOL    C8634612   6.096   5.249   7.665  0.5881  0.1840  0.4710
  284MOL    C8734613   5.953   5.318   7.666  0.5415  0.8089 -0.3951
  284MOL    H8834614   6.154   5.323   0.029 -1.5473  0.8175  1.9223
  284MOL    H8934615   6.140   5.254   7.565  1.3958 -3.3120  0.5872
  284MOL    H9034616   5.874   5.246   7.646 -1.0946  1.5343  3.0023
  284MOL    H9134617   5.929   5.380   0.060 -3.3700 -0.8939 -0.1780
  284MOL    C9234618   5.948   5.426   7.553  0.3168 -0.0914  0.3607
  284MOL    C9334619   5.823   5.516   7.573  0.2198  0.1234  0.3217
  284MOL    H9434620   6.040   5.482   7.560  0.0946  0.6735 -2.1883
  284MOL    H9534621   5.941   5.380   7.454  0.1803 -1.5764  1.0411
  284MOL    H9634622   5.732   5.462   7.599 -0.2983  1.2444  0.8815
  284MOL    H9734623   5.838   5.566   7.668  2.0570  1.9497 -0.8689
  284MOL    C9834624   5.785   5.620   7.464  0.1629 -0.5970  0.7699
  284MOL    C9934625   5.664   5.709   7.510  0.2938  0.1758 -0.5301
  284MOL   H10034626   5.871   5.686   7.452 -1.8771  2.1771  0.9001
  284MOL   H10134627   5.771   5.561   7.373 -0.6902  1.4296 -0.4482
  284MOL   H10234628   5.570   5.656   7.495 -0.4978  1.2386  0.5712
  284MOL   H10334629   5.682   5.736   7.615 -1.4423 -2.3161  0.4618
  284MOL   C10434630   5.674   5.847   7.453  0.5076 -0.0014 -0.3884
  284MOL   C10534631   5.554   5.929   7.483  0.0650  0.8387 -0.3266
  284MOL   H10634632   5.762   5.899   7.492  0.2379 -0.7488  1.2508
  284MOL   H10734633   5.680   5.843   7.344  1.2026  0.9447 -0.3880
  284MOL   H10834634   5.467   5.878   7.441 -1.1041  2.2857  0.2838
  284MOL   H10934635   5.532   5.917   7.590  0.8732  2.0926 -0.0056
  284MOL   C11034636   5.546   6.072   7.429 -0.1568  0.5689 -0.0582
  284MOL   C11134637   5.406   6.126   7.434 -0.4051  0.1185  0.5278
  284MOL   H11234638   5.626   6.127   7.478  1.5257 -3.0413  1.4812
  284MOL   H11334639   5.576   6.061   7.325 -0.1648 -0.1460  0.0127
  284MOL   H11434640   5.343   6.047   7.393  0.0892  0.7042 -1.4081
  284MOL   H11534641   5.384   6.150   7.538  1.9570  2.3546  0.5566
  284MOL   C11634642   5.398   6.266   7.357 -0.0193  0.2722  0.4538
  284MOL   C11734643   5.278   6.351   7.393 -0.4494  0.0494  0.5968
  284MOL   H11834644   5.491   6.321   7.373 -1.0021  2.2105 -0.3752
  284MOL   H11934645   5.387   6.247   7.250  1.0593 -0.5366  0.4822
  284MOL   H12034646   5.278   6.448   7.344 -0.4801 -0.4542 -0.4073
  284MOL   H12134647   5.181   6.303   7.383 -0.6898  0.5948  0.2646
  284MOL   H12234648   5.275   6.365   7.501  2.6903 -0.3579  0.7701
  285MOL     C134649   5.879   1.065   4.483 -0.1344  0.7400 -0.0074
  285MOL     C234650   5.741   1.124   4.489  0.0549 -0.3847 -0.4612
  285MOL     H334651   5.897   1.011   4.577  0.2545  2.3680  0.8686
  285MOL     H434652   5.944   1.141   4.442 -1.6171  1.6444 -0.6938
  285MOL     H534653   5.712   1.145   4.386  2.8175 -1.2491 -1.4554
  285MOL     H634654   5.674   1.056   4.543 -0.4041  0.8096  0.5083
  285MOL     H734655   5.884   1.000   4.396 -0.1625  1.6655 -0.6963
  285MOL     C834656   5.735   1.261   4.559 -0.5765 -0.4978  0.2084
  285MOL     C934657   5.595   1.321   4.574  0.6645  0.3723 -0.4635
  285MOL    H1034658   5.779   1.251   4.658  0.2012 -1.6921 -0.2520
  285MOL    H1134659   5.788   1.335   4.500 -2.4205  0.5959 -0.1468
  285MOL    H1234660   5.576   1.364   4.476  0.4758  0.6863 -0.2895
  285MOL    H1334661   5.528   1.246   4.615  2.1788 -0.8411 -0.1565
  285MOL    C1434662   5.596   1.433   4.667  0.7745 -0.9924  0.0412
  285MOL    C1534663   5.451   1.477   4.683  0.2054  0.2263 -0.2524
  285MOL    H1634664   5.643   1.395   4.758  0.9128  1.1822  0.9208
  285MOL    H1734665   5.664   1.512   4.636  1.6085 -2.2597 -1.4290
  285MOL    H1834666   5.414   1.485   4.581 -0.9607  1.4199  0.2605
  285MOL    H1934667   5.389   1.397   4.722  0.2321  0.1206 -0.4237
  285MOL    C2034668   5.414   1.601   4.764  0.0661 -0.6262  0.4378
  285MOL    C2134669   5.463   1.734   4.707  0.4643 -0.4008  0.0889
  285MOL    H2234670   5.306   1.595   4.751  0.1830 -2.1020  0.0555
  285MOL    H2334671   5.436   1.584   4.869  2.8770  2.1390  0.3526
  285MOL    H2434672   5.566   1.728   4.671  0.5836  0.2155  0.3333
  285MOL    H2534673   5.418   1.759   4.611  1.1948  1.3490  0.1821
  285MOL    C2634674   5.449   1.852   4.801 -0.2771 -0.2341  0.3593
  285MOL    C2734675   5.513   1.976   4.734 -0.5478 -0.4355 -0.3488
  285MOL    H2834676   5.342   1.871   4.809  0.0927  2.0436  0.3236
  285MOL    H2934677   5.491   1.840   4.901 -0.3749  1.0594  0.5657
  285MOL    H3034678   5.614   1.984   4.774 -1.0278 -1.1492  1.0401
  285MOL    H3134679   5.525   1.957   4.628 -1.6681 -1.6244 -0.2735
  285MOL    C3234680   5.446   2.119   4.764 -0.0928  0.5384  0.2029
  285MOL    C3334681   5.538   2.235   4.720  0.2524 -0.0865 -0.0431
  285MOL    H3434682   5.347   2.117   4.717  0.1598 -1.8522 -0.2866
  285MOL    H3534683   5.430   2.127   4.872  0.0727  1.7259  0.1526
  285MOL    H3634684   5.590   2.272   4.808 -0.2549  0.6873 -0.0593
  285MOL    H3734685   5.600   2.216   4.633  0.5636  0.6502  0.0135
  285MOL    C3834686   5.448   2.359   4.688 -0.7442 -0.6038 -0.0864
  285MOL    C3934687   5.528   2.482   4.640 -0.2267  0.1039  0.2967
  285MOL    H4034688   5.389   2.324   4.603 -1.6427 -1.8343  1.0098
  285MOL    H4134689   5.383   2.383   4.773  0.0619 -1.9989  0.9457
  285MOL    H4234690   5.596   2.528   4.712 -1.9733  1.7090  0.9507
  285MOL    H4334691   5.600   2.461   4.561  0.5155  1.3155  0.6373
  285MOL    C4434692   5.440   2.588   4.578  0.1949  0.8383 -0.0641
  285MOL    C4534693   5.513   2.721   4.548 -0.0574  0.7322  0.1080
  285MOL    H4634694   5.393   2.559   4.484  1.1298  0.6794 -0.4858
  285MOL    H4734695   5.359   2.611   4.647  0.5439  1.1216  0.2558
  285MOL    H4834696   5.561   2.750   4.642 -1.0897 -1.9849  1.5193
  285MOL    H4934697   5.593   2.703   4.476  1.5067  1.1017  1.7249
  285MOL    C5034698   5.419   2.835   4.502  0.5406  0.5220 -0.0163
  285MOL    C5134699   5.491   2.953   4.438 -0.1938  0.0401 -0.4367
  285MOL    H5234700   5.342   2.793   4.438  0.1842  1.5620 -0.2695
  285MOL    H5334701   5.367   2.874   4.589  0.7696 -0.6807  0.6813
  285MOL    H5434702   5.549   3.013   4.508 -0.2501  0.2014 -0.5269
  285MOL    H5534703   5.550   2.914   4.356 -0.3964  0.0259 -0.5771
  285MOL    C5634704   5.396   3.059   4.386  0.5884  0.8529  0.4903
  285MOL    C5734705   5.444   3.159   4.280 -0.4658 -0.1735  0.2374
  285MOL    H5834706   5.312   3.008   4.338  2.2353 -1.9227  0.4088
  285MOL    H5934707   5.348   3.105   4.473  1.8098 -0.0402  1.6455
  285MOL    H6034708   5.543   3.195   4.309 -0.3205 -0.7182  0.4164
  285MOL    H6134709   5.455   3.093   4.195  2.3052  0.0284  0.4002
  285MOL    C6234710   5.343   3.271   4.256  0.3165  0.3231  0.3991
  285MOL    C6334711   5.395   3.364   4.148 -0.3159  0.0098 -0.1389
  285MOL    H6434712   5.243   3.242   4.224  0.3648  1.4260 -0.8111
  285MOL    H6534713   5.339   3.325   4.350 -0.8322 -1.5368  1.4345
  285MOL    H6634714   5.502   3.385   4.161 -0.0574 -1.0651 -0.4485
  285MOL    H6734715   5.404   3.313   4.052 -0.5404 -0.8043  0.2735
  285MOL    C6834716   5.317   3.497   4.145 -0.7432 -0.2601 -0.0376
  285MOL    C6934717   5.365   3.595   4.038  0.4482  0.0173 -0.3621
  285MOL    H7034718   5.214   3.472   4.123 -1.6688  0.9511  2.6714
  285MOL    H7134719   5.315   3.545   4.243  2.2707  2.9774 -1.4748
  285MOL    H7234720   5.346   3.546   3.943  1.0458 -1.4754  0.2657
  285MOL    H7334721   5.297   3.679   4.044 -2.2831 -2.2114  0.8410
  285MOL    C7434722   5.516   3.635   4.047 -0.1754  0.4461  0.0613
  285MOL    C7534723   5.555   3.747   3.954  0.1932  0.7589 -0.3045
  285MOL    H7634724   5.534   3.661   4.151  2.4859  0.1823 -0.3093
  285MOL    H7734725   5.576   3.546   4.027  2.0505  1.3817  2.3703
  285MOL    H7834726   5.557   3.707   3.852 -1.2119  2.2814 -0.9434
  285MOL    H7934727   5.475   3.821   3.954 -1.2023 -0.6412  2.7781
  285MOL    C8034728   5.685   3.815   4.001  0.6062  0.3356  0.7969
  285MOL    C8134729   5.697   3.958   3.929 -0.3693 -0.2793  0.6280
  285MOL    H8234730   5.693   3.818   4.110  0.3530 -1.6515  0.8919
  285MOL    H8334731   5.758   3.750   3.953 -0.6974  1.2059 -2.4957
  285MOL    H8434732   5.681   3.948   3.822  0.2475  0.0614  0.4999
  285MOL    H8534733   5.616   4.021   3.964  1.3343  1.3171  1.7825
  285MOL    C8634734   5.835   4.027   3.968  0.8363  0.3812  0.4139
  285MOL    C8734735   5.952   3.965   3.890 -0.6122  0.2890 -0.0134
  285MOL    H8834736   5.829   4.135   3.954 -1.8729  0.1826 -0.0737
  285MOL    H8934737   5.848   4.012   4.075 -0.1892 -0.5358  0.4167
  285MOL    H9034738   5.976   3.863   3.922 -1.9138  0.3497  1.2084
  285MOL    H9134739   5.927   3.959   3.784 -0.2491  1.8290 -0.1863
  285MOL    C9234740   6.079   4.049   3.913  0.4351 -0.0461  0.1981
  285MOL    C9334741   6.210   3.989   3.845  0.1130  0.3069  0.3569
  285MOL    H9434742   6.065   4.151   3.877 -1.2694 -1.3459 -3.0042
  285MOL    H9534743   6.117   4.059   4.015  1.5003 -1.3144 -0.0749
  285MOL    H9634744   6.191   3.970   3.739 -2.0070  2.4098  0.2938
  285MOL    H9734745   6.283   4.070   3.839 -1.5221  1.7382 -0.7077
  285MOL    C9834746   6.272   3.870   3.923 -0.1375  0.5357 -0.7357
  285MOL    C9934747   6.303   3.747   3.831 -0.3561  0.3223  0.0232
  285MOL   H10034748   6.358   3.910   3.977 -0.7022 -1.5462  1.8190
  285MOL   H10134749   6.208   3.831   4.002  1.0322 -0.4039 -0.2358
  285MOL   H10234750   6.226   3.729   3.757  0.8190 -1.1309 -0.8781
  285MOL   H10334751   6.385   3.792   3.774 -0.9519 -0.5508 -1.5451
  285MOL   C10434752   6.343   3.621   3.907  0.0383 -0.3819 -0.0037
  285MOL   C10534753   6.417   3.517   3.817  0.0229  0.2908 -0.4757
  285MOL   H10634754   6.406   3.649   3.992 -0.7444  0.3981  0.3343
  285MOL   H10734755   6.253   3.584   3.956  0.6389  0.6555  1.9731
  285MOL   H10834756   6.361   3.477   3.733  1.0184 -2.5912  0.1638
  285MOL   H10934757   6.512   3.556   3.781  1.7164 -3.3675 -0.1712
  285MOL   C11034758   6.471   3.407   3.909  0.8233  0.1124  0.0489
  285MOL   C11134759   6.353   3.330   3.984 -0.4337  0.1455  0.2187
  285MOL   H11234760   6.531   3.346   3.840 -1.7673 -1.0849 -1.2306
  285MOL   H11334761   6.529   3.449   3.992 -1.7268 -0.5648  2.2275
  285MOL   H11434762   6.298   3.394   4.053 -0.1141 -0.7227  1.3034
  285MOL   H11534763   6.284   3.289   3.911 -0.4753  0.5935  0.0058
  285MOL   C11634764   6.411   3.207   4.063 -0.5606  0.2682  0.0860
  285MOL   C11734765   6.292   3.135   4.133 -0.0488  0.2979 -0.1461
  285MOL   H11834766   6.456   3.134   3.996 -1.7256  0.1940 -0.6392
  285MOL   H11934767   6.488   3.242   4.131  0.0755  1.6445 -1.2996
  285MOL   H12034768   6.230   3.072   4.069  1.2197  1.0324 -2.1208
  285MOL   H12134769   6.328   3.060   4.204  1.8971  0.7392 -0.6463
  285MOL   H12234770   6.228   3.204   4.188 -0.4809  1.2498 -1.8088
  286MOL     C134771   2.579   2.132   3.108 -0.5223  0.4254  0.1100
  286MOL     C234772   2.644   1.997   3.087  0.2660  0.4414  0.1172
  286MOL     H334773   2.536   2.156   3.206 -0.2862 -0.7111  0.4945
  286MOL     H434774   2.502   2.163   3.037 -0.6126 -1.1518 -0.4944
  286MOL     H534775   2.566   1.927   3.116  0.0195 -0.0442 -1.6671
  286MOL     H634776   2.666   1.978   2.982  0.8099 -1.3031  0.5367
  286MOL     H734777   2.661   2.201   3.088 -1.2401  0.7804 -1.7322
  286MOL     C834778   2.776   1.979   3.172 -0.3097  0.3323  0.0362
  286MOL     C934779   2.841   1.849   3.124 -0.0129  0.0562  0.2791
  286MOL    H1034780   2.833   2.072   3.161 -2.1693  1.5355  0.1948
  286MOL    H1134781   2.740   1.967   3.274 -1.2089  0.9999 -0.1889
  286MOL    H1234782   2.775   1.764   3.142  0.7714 -0.7763 -0.6929
  286MOL    H1334783   2.876   1.856   3.021  2.6576  1.8974  1.2459
  286MOL    C1434784   2.971   1.818   3.202  0.9566  0.2860 -0.1590
  286MOL    C1534785   3.033   1.681   3.159  0.9428  0.5396 -0.1743
  286MOL    H1634786   3.047   1.895   3.187  1.6927 -0.3444  0.2883
  286MOL    H1734787   2.944   1.799   3.306  0.7366  3.2528  0.3808
  286MOL    H1834788   2.970   1.599   3.195  1.7571 -0.2291 -0.5033
  286MOL    H1934789   3.017   1.659   3.054 -0.9687 -0.7083  0.3413
  286MOL    C2034790   3.176   1.663   3.210  0.1969 -0.9321 -1.1068
  286MOL    C2134791   3.260   1.568   3.123 -0.6443 -0.1292  0.2531
  286MOL    H2234792   3.242   1.746   3.233 -0.6741 -0.3806 -0.5514
  286MOL    H2334793   3.172   1.621   3.311  1.7763  2.3088  0.3921
  286MOL    H2434794   3.226   1.467   3.146  4.2494 -1.5828  1.5829
  286MOL    H2534795   3.255   1.592   3.017  0.5997  0.6645  0.3687
  286MOL    C2634796   3.405   1.559   3.155  0.1656 -0.4050 -0.3502
  286MOL    C2734797   3.480   1.451   3.072  0.4470 -1.0213  0.1420
  286MOL    H2834798   3.461   1.652   3.156  1.6946 -1.3183 -0.0351
  286MOL    H2934799   3.424   1.523   3.256 -0.7279  0.1001  0.0034
  286MOL    H3034800   3.425   1.361   3.099  0.5572 -1.0230  0.3625
  286MOL    H3134801   3.449   1.467   2.969  1.9378 -0.2715 -0.1973
  286MOL    C3234802   3.635   1.444   3.091  0.4968 -0.2514 -0.8660
  286MOL    C3334803   3.685   1.306   3.054  0.0284  0.4819  0.5544
  286MOL    H3434804   3.685   1.518   3.028 -1.4687  2.9834  1.2242
  286MOL    H3534805   3.660   1.463   3.195 -2.2931  1.9698 -0.5444
  286MOL    H3634806   3.643   1.229   3.118  2.3913 -0.9754  0.4076
  286MOL    H3734807   3.648   1.285   2.954  2.8699 -2.5585  0.0716
  286MOL    C3834808   3.838   1.298   3.051  0.5042 -0.1737  0.1612
  286MOL    C3934809   3.893   1.154   3.048  0.2530  0.8700  0.2931
  286MOL    H4034810   3.883   1.340   2.962 -0.6440  0.5237 -0.0967
  286MOL    H4134811   3.877   1.348   3.140 -1.7761  0.7099  0.6872
  286MOL    H4234812   3.851   1.097   3.131 -0.5469 -0.1479 -0.7879
  286MOL    H4334813   3.864   1.107   2.954 -1.0432  1.3890  0.4234
  286MOL    C4434814   4.047   1.144   3.061 -0.0923  0.3045 -0.0727
  286MOL    C4534815   4.133   1.200   2.942 -0.1122  0.5365  0.7368
  286MOL    H4634816   4.088   1.200   3.145  1.7937  0.1551 -0.8670
  286MOL    H4734817   4.080   1.041   3.075 -1.0472  0.0625  0.3965
  286MOL    H4834818   4.093   1.211   2.841 -3.2814  0.9271  1.9672
  286MOL    H4934819   4.164   1.304   2.957 -0.6481  0.7225  0.5789
  286MOL    C5034820   4.272   1.133   2.923  0.6786 -0.4952  0.6623
  286MOL    C5134821   4.348   1.179   2.800 -0.4596  0.0090  0.2064
  286MOL    H5234822   4.332   1.153   3.011  1.0858  0.6398  0.1318
  286MOL    H5334823   4.259   1.025   2.922 -2.5059 -0.1942  2.7267
  286MOL    H5434824   4.283   1.211   2.719  1.5802  0.2101 -1.4090
  286MOL    H5534825   4.417   1.260   2.822 -0.4805  0.0955 -0.0487
  286MOL    C5634826   4.450   1.075   2.755 -0.4807 -0.1623  0.0090
  286MOL    C5734827   4.545   1.132   2.648 -0.0331  0.1113  0.7262
  286MOL    H5834828   4.511   1.026   2.832 -0.7548  0.2711  0.5030
  286MOL    H5934829   4.391   1.002   2.700 -3.0637 -0.0368  2.5320
  286MOL    H6034830   4.576   1.057   2.575 -2.2080  0.3945 -0.5392
  286MOL    H6134831   4.490   1.207   2.591 -1.8752 -2.6295 -1.2379
  286MOL    C6234832   4.676   1.194   2.713 -0.3929  0.3448  0.8895
  286MOL    C6334833   4.775   1.232   2.606 -0.3018 -0.1418 -0.3555
  286MOL    H6434834   4.652   1.282   2.773 -2.6560  0.4929 -0.1661
  286MOL    H6534835   4.718   1.111   2.769 -0.1650 -0.1167  0.0400
  286MOL    H6634836   4.810   1.140   2.559  0.8203 -0.2611  0.7057
  286MOL    H6734837   4.732   1.296   2.529  1.4422  2.0398  0.4439
  286MOL    C6834838   4.894   1.310   2.657 -0.5638 -0.3746 -0.0042
  286MOL    C6934839   4.983   1.238   2.763 -0.0186  0.2970  0.6238
  286MOL    H7034840   4.941   1.359   2.572 -2.5098  0.7690 -0.4676
  286MOL    H7134841   4.854   1.392   2.718  1.0503  1.4769 -1.3958
  286MOL    H7234842   4.929   1.183   2.841 -1.1176  0.6281  0.1057
  286MOL    H7334843   5.036   1.165   2.703 -0.0130  1.7583 -1.1999
  286MOL    C7434844   5.077   1.324   2.844  0.2407  0.8040  0.9406
  286MOL    C7534845   5.190   1.392   2.766  0.5239  0.1403  0.6685
  286MOL    H7634846   5.018   1.401   2.893 -0.2535  0.0313  1.5669
  286MOL    H7734847   5.122   1.276   2.930 -2.1209  2.3722  3.1459
  286MOL    H7834848   5.151   1.450   2.683  0.7528 -1.0229 -0.2719
  286MOL    H7934849   5.242   1.459   2.835  1.0232 -0.6304  1.0464
  286MOL    C8034850   5.298   1.304   2.705  0.4078  0.1815  0.2768
  286MOL    C8134851   5.388   1.376   2.613 -0.6073 -0.1720  0.1560
  286MOL    H8234852   5.358   1.256   2.782  0.2163  1.5553  1.3005
  286MOL    H8334853   5.258   1.219   2.648 -1.6171  1.2572  0.0169
  286MOL    H8434854   5.331   1.418   2.530  2.3050 -0.1727 -1.9344
  286MOL    H8534855   5.418   1.469   2.662 -3.3175 -0.1983  1.9993
  286MOL    C8634856   5.499   1.284   2.556 -0.2865 -0.9775  0.5866
  286MOL    C8734857   5.595   1.351   2.456  0.1897 -0.2898  0.8775
  286MOL    H8834858   5.548   1.242   2.644  1.5971  1.5221  0.7635
  286MOL    H8934859   5.451   1.202   2.501  2.5751 -0.3799 -2.9836
  286MOL    H9034860   5.662   1.269   2.429  0.4858  0.4558 -0.6781
  286MOL    H9134861   5.549   1.383   2.363  0.0429  0.2990  1.1505
  286MOL    C9234862   5.677   1.471   2.517 -0.2163 -0.2307  0.1100
  286MOL    C9334863   5.799   1.512   2.427 -0.0141 -0.1684  0.5277
  286MOL    H9434864   5.618   1.563   2.524  2.1675  1.4708 -1.5242
  286MOL    H9534865   5.704   1.444   2.619 -0.8597 -0.8343  0.1270
  286MOL    H9634866   5.857   1.420   2.424 -1.1795 -0.8992 -0.0979
  286MOL    H9734867   5.771   1.525   2.322 -0.4075 -1.6500  0.4312
  286MOL    C9834868   5.883   1.623   2.491  0.2102 -0.7332 -0.1985
  286MOL    C9934869   6.035   1.600   2.472 -0.4494  0.0782  0.2096
  286MOL   H10034870   5.863   1.720   2.447  0.5762 -0.1080  0.9853
  286MOL   H10134871   5.869   1.633   2.599  0.6518  0.2075 -0.2279
  286MOL   H10234872   6.056   1.497   2.502 -0.0690 -0.3500 -1.4733
  286MOL   H10334873   6.060   1.608   2.366 -0.8551 -0.9377  0.0271
  286MOL   C10434874   6.135   1.689   2.556 -0.1677 -0.8553  0.6616
  286MOL   C10534875   6.134   1.839   2.517 -0.3977  0.3821 -0.8997
  286MOL   H10634876   6.111   1.663   2.659 -3.5491  2.1574  0.7210
  286MOL   H10734877   6.233   1.643   2.539 -1.2722 -2.2703 -2.0920
  286MOL   H10834878   6.148   1.820   2.410 -1.3211 -0.9777 -0.8034
  286MOL   H10934879   6.034   1.879   2.530  0.1187  1.9173 -1.5269
  286MOL   C11034880   6.242   1.925   2.595  0.3616  0.2412  0.7932
  286MOL   C11134881   6.214   1.941   2.744  0.0449 -0.5292  0.4129
  286MOL   H11234882   6.343   1.884   2.593  0.8792  1.4258  1.7953
  286MOL   H11334883   6.247   2.022   2.546  3.1399 -0.5299 -0.5250
  286MOL   H11434884   6.123   1.998   2.763 -0.7339 -2.4648  2.7622
  286MOL   H11534885   6.196   1.839   2.777 -0.0170 -0.4464  0.6417
  286MOL   C11634886   6.335   2.005   2.823  0.2353  0.1463  0.2465
  286MOL   C11734887   6.299   2.015   2.976  0.0119 -0.2812 -0.3367
  286MOL   H11834888   6.429   1.950   2.817  0.3671  0.6235 -2.6296
  286MOL   H11934889   6.349   2.102   2.776 -2.4553  0.3767 -0.1528
  286MOL   H12034890   6.192   2.026   2.988  0.0059 -0.5745 -0.1341
  286MOL   H12134891   6.337   1.926   3.026 -2.2412 -1.1447 -0.1075
  286MOL   H12234892   6.353   2.100   3.018 -0.6979 -0.0668  0.1472
  287MOL     C134893   2.112   5.111   2.160 -0.3200 -0.5364  0.1867
  287MOL     C234894   2.115   5.160   2.017  0.2074 -0.3650  0.4854
  287MOL     H334895   2.177   5.025   2.180  2.3188  1.8144  2.0153
  287MOL     H434896   2.010   5.076   2.179 -0.5009  0.6465  1.4743
  287MOL     H534897   2.037   5.235   2.007  0.9075  0.6251  2.0879
  287MOL     H634898   2.208   5.207   1.986  0.8628 -0.2048  2.5979
  287MOL     H734899   2.130   5.198   2.222 -0.8690  0.2871 -0.7850
  287MOL     C834900   2.081   5.050   1.911  0.1653  0.3499  0.5991
  287MOL     C934901   2.006   5.095   1.784  0.8820 -0.4594 -0.1793
  287MOL    H1034902   2.172   5.007   1.870 -0.0677  0.5106 -0.0897
  287MOL    H1134903   2.026   4.967   1.956  0.6414 -0.1048  0.3411
  287MOL    H1234904   1.903   5.121   1.810  1.1092  0.3322 -0.0565
  287MOL    H1334905   2.052   5.184   1.742  0.5877  0.0088  0.4771
  287MOL    C1434906   1.991   4.992   1.675  0.1126  0.4522 -0.5690
  287MOL    C1534907   1.930   5.052   1.547  0.3439  0.0152 -0.7044
  287MOL    H1634908   2.089   4.954   1.643  0.6732  2.5921 -1.4815
  287MOL    H1734909   1.926   4.909   1.701  2.7694 -1.8608 -1.0533
  287MOL    H1834910   1.841   5.110   1.570 -0.0925 -0.7067 -0.5413
  287MOL    H1934911   1.999   5.125   1.505  0.8306  0.6303  1.1135
  287MOL    C2034912   1.897   4.947   1.441  0.4267 -0.4604  0.3291
  287MOL    C2134913   1.813   4.997   1.324 -0.2750 -0.1262 -0.1796
  287MOL    H2234914   1.993   4.910   1.407  0.5742 -0.6220  0.9288
  287MOL    H2334915   1.838   4.873   1.494  0.1602 -1.1701 -0.9267
  287MOL    H2434916   1.720   5.039   1.361 -0.2813  0.1463 -0.5072
  287MOL    H2534917   1.854   5.074   1.259 -1.4641  2.6928  2.3087
  287MOL    C2634918   1.788   4.878   1.231 -0.1708 -0.3745  0.9948
  287MOL    C2734919   1.741   4.928   1.093 -0.5776  0.1450  0.7746
  287MOL    H2834920   1.878   4.817   1.218  0.1150  0.3167 -0.3845
  287MOL    H2934921   1.711   4.816   1.276  0.7799 -1.5912  0.9525
  287MOL    H3034922   1.647   4.982   1.098 -1.6441 -1.3452 -2.2726
  287MOL    H3134923   1.819   4.993   1.054 -1.1985 -0.3153 -1.3029
  287MOL    C3234924   1.719   4.822   0.985  0.1563  0.7467  0.3684
  287MOL    C3334925   1.601   4.723   1.011 -0.7409  0.3658 -0.4975
  287MOL    H3434926   1.700   4.882   0.896  0.9946 -1.7846 -1.5665
  287MOL    H3534927   1.810   4.766   0.965  0.1524  0.5404  0.9298
  287MOL    H3634928   1.602   4.682   1.113 -0.7785 -0.4111 -0.8020
  287MOL    H3734929   1.507   4.777   1.003 -0.5660  0.6774 -0.4566
  287MOL    C3834930   1.602   4.619   0.901  0.3440 -0.0838 -0.4487
  287MOL    C3934931   1.488   4.511   0.922 -0.2480 -0.4223 -0.1476
  287MOL    H4034932   1.585   4.664   0.804  1.3378 -2.3278 -1.7041
  287MOL    H4134933   1.702   4.575   0.898  0.5122  0.4185 -2.3124
  287MOL    H4234934   1.517   4.442   1.001 -1.7587 -1.1160 -0.1649
  287MOL    H4334935   1.392   4.557   0.947  0.4705  1.3078 -0.5267
  287MOL    C4434936   1.469   4.412   0.797 -0.0139  0.3685 -0.4813
  287MOL    C4534937   1.599   4.357   0.737  0.0239  0.2194  0.4890
  287MOL    H4634938   1.401   4.329   0.818  1.1733 -0.2081  1.1464
  287MOL    H4734939   1.415   4.471   0.723 -0.9963 -0.3239 -0.3327
  287MOL    H4834940   1.680   4.429   0.743  0.9133 -0.8542  1.4461
  287MOL    H4934941   1.634   4.279   0.804  0.3274 -1.1839 -1.2586
  287MOL    C5034942   1.582   4.292   0.600  0.0399  0.5807  0.7280
  287MOL    C5134943   1.485   4.173   0.612  0.2098 -0.1411  0.4200
  287MOL    H5234944   1.542   4.360   0.525 -0.1381  1.1112  1.2936
  287MOL    H5334945   1.675   4.249   0.562 -0.4170 -0.4258  0.7418
  287MOL    H5434946   1.516   4.111   0.696  0.3847 -0.8899 -0.1922
  287MOL    H5534947   1.385   4.197   0.646  0.0915 -1.2506  0.8592
  287MOL    C5634948   1.469   4.101   0.471 -0.4038  0.0350 -0.5201
  287MOL    C5734949   1.396   3.968   0.475 -0.4936  0.0070 -0.3572
  287MOL    H5834950   1.414   4.163   0.400 -0.7159 -0.7515 -0.9749
  287MOL    H5934951   1.567   4.081   0.427  0.6069  2.0780  0.7282
  287MOL    H6034952   1.461   3.896   0.523  1.5656  1.2612 -1.1999
  287MOL    H6134953   1.314   3.980   0.546  0.9391  1.7603  1.0595
  287MOL    C6234954   1.338   3.916   0.336  0.9161  0.2931 -0.5737
  287MOL    C6334955   1.265   3.783   0.341  0.3666 -0.9598 -0.4090
  287MOL    H6434956   1.268   3.982   0.286 -0.1871  0.1868  0.7913
  287MOL    H6534957   1.421   3.898   0.267  1.3531  1.0815 -0.2591
  287MOL    H6634958   1.180   3.798   0.407  1.2715 -0.6013  0.6863
  287MOL    H6734959   1.223   3.760   0.243 -1.4217 -1.1330  0.3874
  287MOL    C6834960   1.350   3.669   0.390 -0.0434 -0.0511 -0.3586
  287MOL    C6934961   1.286   3.531   0.355  0.7686  1.1032  0.3568
  287MOL    H7034962   1.450   3.665   0.349  0.1817  0.2985  0.1453
  287MOL    H7134963   1.375   3.678   0.496  3.0047  1.3627 -1.1484
  287MOL    H7234964   1.250   3.515   0.254 -1.3029 -1.6421  1.4457
  287MOL    H7334965   1.369   3.463   0.376  0.4120 -0.1176 -1.9866
  287MOL    C7434966   1.172   3.497   0.451  0.5656 -0.0475 -0.0693
  287MOL    C7534967   1.058   3.413   0.397 -0.2803 -0.0569  0.1934
  287MOL    H7634968   1.209   3.445   0.540 -0.9553  0.3027  0.7804
  287MOL    H7734969   1.128   3.589   0.490  0.4328 -0.4796  0.8274
  287MOL    H7834970   0.978   3.474   0.355 -0.3179  0.2225  0.6650
  287MOL    H7934971   1.101   3.356   0.315  0.7434 -0.7197  1.1763
  287MOL    C8034972   0.974   3.320   0.489  0.0909 -0.4367  0.4379
  287MOL    C8134973   0.882   3.223   0.418 -1.5454 -0.0180  0.2400
  287MOL    H8234974   1.038   3.266   0.559  1.0065  0.3142  0.1941
  287MOL    H8334975   0.915   3.385   0.554  1.2605 -0.2347  1.3274
  287MOL    H8434976   0.820   3.287   0.354  1.3953  2.7244  0.0218
  287MOL    H8534977   0.945   3.155   0.361 -0.8661  0.1476  0.7942
  287MOL    C8634978   0.795   3.150   0.520  0.6662  0.5480  0.2136
  287MOL    C8734979   0.723   3.027   0.470 -0.3091 -0.1793  0.3482
  287MOL    H8834980   0.851   3.117   0.608 -1.4079 -4.1090 -0.0728
  287MOL    H8934981   0.719   3.223   0.544  0.5037  0.1127  1.0339
  287MOL    H9034982   0.670   3.047   0.377  1.9651  1.4704 -0.6484
  287MOL    H9134983   0.794   2.946   0.458  1.6263  0.9934  3.3554
  287MOL    C9234984   0.624   2.985   0.573  0.3563  0.4823  0.0369
  287MOL    C9334985   0.483   3.046   0.572 -0.0408 -0.7325 -0.3485
  287MOL    H9434986   0.611   2.878   0.555  2.4459 -0.0730  1.5926
  287MOL    H9534987   0.668   2.979   0.673 -0.8630  0.5643  0.5921
  287MOL    H9634988   0.490   3.154   0.556  2.7040 -0.9406 -0.9503
  287MOL    H9734989   0.431   3.011   0.483 -0.1878  1.7996 -1.3098
  287MOL    C9834990   0.404   3.001   0.703  0.2283 -0.1996 -0.1266
  287MOL    C9934991   0.258   3.046   0.702 -0.0433 -0.2231 -0.0746
  287MOL   H10034992   0.408   2.893   0.719 -0.8156 -0.3390 -0.7416
  287MOL   H10134993   0.446   3.045   0.793 -1.3100  1.4891 -0.2069
  287MOL   H10234994   0.251   3.150   0.733 -1.5338 -0.6242  1.0083
  287MOL   H10334995   0.220   3.041   0.600 -0.2255  0.5527 -0.0468
  287MOL   C10434996   0.179   2.958   0.803  0.0600  0.6311  0.2613
  287MOL   C10534997   0.043   3.015   0.834 -0.5905  0.3332 -0.2165
  287MOL   H10634998   0.169   2.856   0.765  2.9415 -0.2395  1.7037
  287MOL   H10734999   0.231   2.941   0.897  1.9341 -0.0685 -0.8790
  287MOL   H10835000   0.009   3.047   0.735 -0.1243 -0.8202 -0.7649
  287MOL   H10935001   7.662   2.942   0.869 -0.1840 -0.0493 -0.1571
  287MOL   C11035002   0.052   3.120   0.942 -0.1424  0.0520 -0.5549
  287MOL   C11135003   7.610   3.191   0.955 -0.6766 -0.0734  0.1602
  287MOL   H11235004   0.078   3.089   1.043 -0.1774  0.3638 -0.4530
  287MOL   H11335005   0.133   3.188   0.920 -1.2495  1.1625 -1.2748
  287MOL   H11435006   7.570   3.213   0.856 -0.1410  0.2979  0.0205
  287MOL   H11535007   7.543   3.112   0.990 -0.3461 -0.5498 -0.2806
  287MOL   C11635008   7.619   3.306   1.051  0.7334  0.0908  0.0837
  287MOL   C11735009   7.488   3.381   1.077 -0.2883  0.0650  0.0035
  287MOL   H11835010   7.660   3.269   1.145 -0.9562  1.7230  1.4994
  287MOL   H11935011   7.690   3.383   1.021 -2.4035  2.9298 -0.3767
  287MOL   H12035012   7.429   3.312   1.137 -0.4238  0.8471  0.7761
  287MOL   H12135013   7.497   3.482   1.117  0.0711  0.9310 -2.2232
  287MOL   H12235014   7.434   3.404   0.986 -1.4000  0.6971  0.8216
  288MOL     C135015   3.356   4.042   2.214  0.1344 -0.5070  0.6925
  288MOL     C235016   3.363   3.974   2.349 -0.1710 -0.0677  0.1917
  288MOL     H335017   3.254   4.069   2.186 -0.1550 -0.1170  2.0833
  288MOL     H435018   3.398   3.983   2.133  0.7983  0.1556  0.5477
  288MOL     H535019   3.314   4.036   2.424 -0.9061 -2.3727  1.6752
  288MOL     H635020   3.315   3.876   2.340 -0.2744  0.1326 -1.5541
  288MOL     H735021   3.414   4.134   2.216 -0.5650 -0.0657  0.7809
  288MOL     C835022   3.508   3.933   2.405 -0.2161  0.4839 -0.2767
  288MOL     C935023   3.583   4.045   2.468  0.3659 -0.8274 -0.2146
  288MOL    H1035024   3.497   3.848   2.472 -0.7202  0.7711  0.0080
  288MOL    H1135025   3.566   3.895   2.321 -2.7273 -0.0076 -1.8235
  288MOL    H1235026   3.594   4.133   2.404  1.0283 -0.5659  0.2563
  288MOL    H1335027   3.530   4.076   2.558  2.1653  2.0370 -0.0766
  288MOL    C1435028   3.733   4.014   2.513 -0.5588  1.0717  0.4404
  288MOL    C1535029   3.801   4.126   2.582  0.6003  0.3255 -0.6689
  288MOL    H1635030   3.731   3.936   2.590  1.5850  0.6874  0.1285
  288MOL    H1735031   3.796   3.984   2.429 -0.8949  2.7431 -0.4266
  288MOL    H1835032   3.816   4.208   2.511  0.3728  1.1623  0.2381
  288MOL    H1935033   3.749   4.174   2.666  3.1054 -0.7041  1.5390
  288MOL    C2035034   3.940   4.088   2.638  0.3117  0.5027  0.0455
  288MOL    C2135035   4.038   4.207   2.662 -0.3195 -0.3481 -0.4977
  288MOL    H2235036   3.928   4.040   2.735  2.2421  1.7831  0.9662
  288MOL    H2335037   3.996   4.013   2.582 -0.5194  1.4416 -2.0664
  288MOL    H2435038   4.062   4.246   2.564 -0.4262 -0.9534 -0.7658
  288MOL    H2535039   3.988   4.290   2.712  0.3099  0.9560 -1.9905
  288MOL    C2635040   4.171   4.164   2.733  0.4664  0.8725 -0.3920
  288MOL    C2735041   4.284   4.269   2.708 -0.1863 -0.1868 -0.5153
  288MOL    H2835042   4.147   4.142   2.837  0.5015 -2.1593 -0.9751
  288MOL    H2935043   4.197   4.069   2.686 -0.7567 -0.0716  0.7761
  288MOL    H3035044   4.270   4.325   2.615  1.7078 -0.5045 -1.0137
  288MOL    H3135045   4.269   4.345   2.784 -0.7847 -0.6361 -0.1890
  288MOL    C3235046   4.431   4.206   2.705  0.4247 -0.2514  0.4600
  288MOL    C3335047   4.528   4.317   2.664  0.1224  0.0245  0.1376
  288MOL    H3435048   4.465   4.176   2.804 -1.3381 -1.8895  0.5940
  288MOL    H3535049   4.439   4.117   2.643 -1.3732 -1.4710  1.9167
  288MOL    H3635050   4.497   4.363   2.570 -3.4886 -1.1739  0.6690
  288MOL    H3735051   4.544   4.396   2.738 -0.4545  1.7033 -1.5071
  288MOL    C3835052   4.659   4.255   2.625  0.2622 -0.1495  0.1254
  288MOL    C3935053   4.768   4.355   2.578  0.7372  0.4140 -0.4991
  288MOL    H4035054   4.701   4.201   2.710  0.8315 -2.1666 -1.4156
  288MOL    H4135055   4.641   4.181   2.547  0.1415  0.7155 -0.6628
  288MOL    H4235056   4.725   4.428   2.510 -0.6096 -0.1219 -0.2329
  288MOL    H4335057   4.796   4.394   2.676 -0.2921 -0.4094  0.1370
  288MOL    C4435058   4.887   4.299   2.504  0.3152  0.3637 -0.5900
  288MOL    C4535059   4.979   4.402   2.434 -0.2129 -0.1021  0.2373
  288MOL    H4635060   4.951   4.234   2.563  1.8624  0.2731 -2.3046
  288MOL    H4735061   4.845   4.239   2.423  0.3302  0.0501 -0.3651
  288MOL    H4835062   4.918   4.455   2.360  0.3131  1.5635  0.9750
  288MOL    H4935063   5.001   4.475   2.511  3.1306  0.8544 -1.5207
  288MOL    C5035064   5.109   4.350   2.373  0.4437  0.5873  0.3053
  288MOL    C5135065   5.202   4.460   2.315  0.0114  0.4288 -0.2900
  288MOL    H5235066   5.158   4.312   2.463  0.2519 -0.6768 -0.1099
  288MOL    H5335067   5.072   4.273   2.305 -4.0968  1.3702  1.7475
  288MOL    H5435068   5.152   4.503   2.228 -0.9330  0.4598  0.2589
  288MOL    H5535069   5.211   4.537   2.391 -2.3983  1.7434 -1.2678
  288MOL    C5635070   5.345   4.409   2.287  0.2331 -0.8289  0.0916
  288MOL    C5735071   5.430   4.525   2.230 -0.8752 -0.7790 -0.2298
  288MOL    H5835072   5.379   4.368   2.381 -1.1411  1.0755  1.4724
  288MOL    H5935073   5.336   4.335   2.208  1.5662 -0.7366 -0.1591
  288MOL    H6035074   5.407   4.540   2.125  0.6919 -0.7296 -0.5803
  288MOL    H6135075   5.421   4.617   2.287 -3.2820  0.3267 -2.2912
  288MOL    C6235076   5.575   4.477   2.224  0.1234  0.7292  0.5360
  288MOL    C6335077   5.669   4.582   2.159  0.0651 -0.0836 -0.0819
  288MOL    H6435078   5.606   4.457   2.327 -0.8114  0.0383  0.6891
  288MOL    H6535079   5.579   4.383   2.170  5.3189  0.8557  0.5072
  288MOL    H6635080   5.619   4.614   2.068  1.9213 -0.9326 -1.4259
  288MOL    H6735081   5.674   4.672   2.221 -0.8003 -0.3598  0.4076
  288MOL    C6835082   5.818   4.546   2.138 -0.6411  0.0390 -0.1417
  288MOL    C6935083   5.868   4.566   1.990  0.4526  0.4660  0.5025
  288MOL    H7035084   5.881   4.591   2.215  2.1234 -2.4261 -0.8804
  288MOL    H7135085   5.834   4.439   2.153  1.6918  0.2701 -0.7901
  288MOL    H7235086   5.790   4.525   1.925  0.1076 -1.0395  1.8079
  288MOL    H7335087   5.865   4.671   1.962  0.2899  0.4439  0.4365
  288MOL    C7435088   6.000   4.493   1.960  0.1397  0.6079  0.1221
  288MOL    C7535089   6.036   4.519   1.814  0.1267  0.1101 -0.0061
  288MOL    H7635090   6.084   4.523   2.023  1.4879  0.8862 -1.7562
  288MOL    H7735091   5.980   4.390   1.987  2.1327 -0.0373 -0.7618
  288MOL    H7835092   5.962   4.483   1.742 -3.3012  1.0590  2.9002
  288MOL    H7935093   6.037   4.628   1.818 -2.6258  0.2571 -2.0200
  288MOL    C8035094   6.174   4.470   1.779 -0.0615 -0.0933 -0.0318
  288MOL    C8135095   6.223   4.500   1.639  0.0030  0.3436  0.4450
  288MOL    H8235096   6.240   4.509   1.857  1.5787  0.5430 -1.6945
  288MOL    H8335097   6.167   4.361   1.781  1.1559 -0.1583  2.9748
  288MOL    H8435098   6.154   4.442   1.577  0.5977  0.5725 -0.4353
  288MOL    H8535099   6.205   4.607   1.630 -3.3653 -0.4385 -4.0146
  288MOL    C8635100   6.361   4.458   1.612  0.4618 -0.7812  0.1995
  288MOL    C8735101   6.404   4.468   1.467 -0.1035  0.1898  0.5819
  288MOL    H8835102   6.423   4.523   1.674 -0.1943 -0.9224  1.0150
  288MOL    H8935103   6.389   4.358   1.644  0.2911 -0.4672  1.3484
  288MOL    H9035104   6.392   4.567   1.423 -0.0187  0.0479  0.2355
  288MOL    H9135105   6.513   4.467   1.466 -0.0731  1.3074  1.4316
  288MOL    C9235106   6.329   4.355   1.379  0.3492  0.1358 -0.0511
  288MOL    C9335107   6.397   4.339   1.249  0.0473  0.7022 -0.1463
  288MOL    H9435108   6.324   4.258   1.428 -3.4142  0.4271  0.2855
  288MOL    H9535109   6.226   4.384   1.358 -0.2139 -1.0261  1.0412
  288MOL    H9635110   6.397   4.437   1.200  0.1832  1.2918  1.0107
  288MOL    H9735111   6.503   4.318   1.260  0.2824  2.1745  0.4696
  288MOL    C9835112   6.332   4.229   1.158  0.3128  0.1738 -0.1062
  288MOL    C9935113   6.417   4.200   1.034  0.1995 -0.0005 -0.1365
  288MOL   H10035114   6.332   4.136   1.215 -1.4117  0.4224  0.3370
  288MOL   H10135115   6.230   4.262   1.137  0.0826  0.8908  1.9863
  288MOL   H10235116   6.432   4.292   0.976 -1.1106  0.3608  0.0756
  288MOL   H10335117   6.509   4.160   1.075  0.4393  2.4002  1.8152
  288MOL   C10435118   6.352   4.089   0.942 -0.2755  0.1254  0.2723
  288MOL   C10535119   6.447   4.004   0.860 -0.1919  0.4897 -0.0565
  288MOL   H10635120   6.294   4.015   0.998  2.4715 -0.5774  2.3000
  288MOL   H10735121   6.268   4.135   0.890  1.1105  2.5028  0.0487
  288MOL   H10835122   6.526   4.060   0.811 -0.3818  1.3778  0.6517
  288MOL   H10935123   6.493   3.928   0.923  0.5387  0.9136 -0.0749
  288MOL   C11035124   6.374   3.934   0.743 -0.5633  0.3699  0.5350
  288MOL   C11135125   6.449   3.820   0.676 -0.6611  0.6924  0.3124
  288MOL   H11235126   6.279   3.897   0.782 -2.1684  2.3213 -1.4226
  288MOL   H11335127   6.343   4.012   0.673 -0.2776  0.1129  0.1214
  288MOL   H11435128   6.547   3.853   0.640 -1.2181 -0.1362 -1.9825
  288MOL   H11535129   6.482   3.740   0.743  0.3023 -0.8265 -1.9140
  288MOL   C11635130   6.371   3.750   0.562  0.6146  0.3799  0.4258
  288MOL   C11735131   6.449   3.651   0.475 -0.7122 -0.1449  1.5194
  288MOL   H11835132   6.286   3.687   0.589  0.5128  1.3430  2.4433
  288MOL   H11935133   6.337   3.832   0.498  2.4914 -0.0212 -1.1032
  288MOL   H12035134   6.526   3.704   0.418  0.5672 -2.4187  1.0725
  288MOL   H12135135   6.484   3.565   0.531  2.1277 -2.0988 -2.9799
  288MOL   H12235136   6.387   3.606   0.398  1.2610  0.9641 -0.7931
  289MOL     C135137   1.465   2.221   6.263  0.5231 -0.6024 -0.4650
  289MOL     C235138   1.563   2.299   6.357 -0.0128  0.4645  0.3819
  289MOL     H335139   1.529   2.177   6.186 -0.1185 -1.1489 -0.6858
  289MOL     H435140   1.400   2.295   6.217  0.2509 -1.1468 -0.9604
  289MOL     H535141   1.511   2.313   6.452 -1.5548 -1.8658 -0.0956
  289MOL     H635142   1.641   2.225   6.375  1.9889  2.7974  1.6001
  289MOL     H735143   1.421   2.141   6.321  1.1600 -0.3801  0.3454
  289MOL     C835144   1.617   2.436   6.291  0.1972  0.4877 -0.4127
  289MOL     C935145   1.727   2.402   6.182  0.0468  1.0423  0.2479
  289MOL    H1035146   1.535   2.486   6.239 -0.6053 -0.7393 -0.3478
  289MOL    H1135147   1.648   2.505   6.369 -1.5053 -0.1766  0.8757
  289MOL    H1235148   1.820   2.365   6.224  0.1505  0.2456 -0.6790
  289MOL    H1335149   1.687   2.328   6.113  1.3434 -0.9286  1.5577
  289MOL    C1435150   1.754   2.516   6.083  0.6436  0.6185  0.0301
  289MOL    C1535151   1.875   2.484   5.997  0.0604 -0.1849  1.0951
  289MOL    H1635152   1.655   2.535   6.042  0.3589  3.1270  1.7673
  289MOL    H1735153   1.776   2.605   6.142 -0.9058  1.4993 -0.6939
  289MOL    H1835154   1.952   2.433   6.054  0.8715 -1.8142 -1.3992
  289MOL    H1935155   1.850   2.427   5.907 -0.9873  1.2301  0.4501
  289MOL    C2035156   1.936   2.611   5.940  0.8240 -0.5236 -0.5598
  289MOL    C2135157   2.049   2.599   5.843 -0.2540  0.2702 -0.4815
  289MOL    H2235158   1.852   2.668   5.901 -1.1544 -1.3429  2.2657
  289MOL    H2335159   1.967   2.670   6.026  0.8792 -0.6349 -0.5035
  289MOL    H2435160   2.126   2.532   5.881  0.2776  2.2056  1.9930
  289MOL    H2535161   2.017   2.549   5.751 -2.7160 -0.6740  0.8529
  289MOL    C2635162   2.107   2.738   5.800 -0.0345  0.6210 -0.1428
  289MOL    C2735163   2.178   2.728   5.666  0.3014  0.6273  0.0408
  289MOL    H2835164   2.028   2.812   5.789  0.2062  1.0993  1.3044
  289MOL    H2935165   2.174   2.782   5.874  0.6542  0.1677 -0.4867
  289MOL    H3035166   2.270   2.670   5.673  0.2224  0.3597 -1.0628
  289MOL    H3135167   2.103   2.681   5.602  2.0327 -0.6504 -1.1010
  289MOL    C3235168   2.214   2.868   5.609  0.4646  0.6621 -0.3369
  289MOL    C3335169   2.330   2.855   5.505 -0.5751 -0.2762 -0.7196
  289MOL    H3435170   2.125   2.919   5.573 -0.3897 -3.2464 -4.1332
  289MOL    H3535171   2.248   2.931   5.692  0.3910  0.4271 -0.1292
  289MOL    H3635172   2.417   2.797   5.534  0.3408  1.4047 -0.0350
  289MOL    H3735173   2.288   2.815   5.412 -1.1601  0.1753 -0.6544
  289MOL    C3835174   2.392   2.988   5.445  0.3298  0.1730 -0.2057
  289MOL    C3935175   2.495   2.971   5.332 -0.6507  0.5130 -0.9776
  289MOL    H4035176   2.313   3.051   5.404  0.3738  0.2969 -0.1017
  289MOL    H4135177   2.433   3.054   5.522  1.7490  2.2014 -2.6521
  289MOL    H4235178   2.577   2.912   5.373  1.0132  3.6878  0.3851
  289MOL    H4335179   2.468   2.902   5.251  0.9170  0.0094 -1.1078
  289MOL    C4435180   2.556   3.102   5.275  0.0831  0.3879  0.2799
  289MOL    C4535181   2.655   3.160   5.374  0.5846 -0.0262 -0.5317
  289MOL    H4635182   2.606   3.074   5.183 -0.8349 -0.1290 -0.0712
  289MOL    H4735183   2.483   3.180   5.251  0.3524  0.8222  0.8666
  289MOL    H4835184   2.597   3.191   5.461  0.0351 -0.3048 -0.7939
  289MOL    H4935185   2.726   3.082   5.399  0.4560  0.2139  0.6343
  289MOL    C5035186   2.726   3.292   5.328 -0.6173 -0.5317 -0.1342
  289MOL    C5135187   2.841   3.334   5.423 -0.3737  0.2872 -0.0032
  289MOL    H5235188   2.754   3.280   5.223 -0.8484  0.5942 -0.3366
  289MOL    H5335189   2.647   3.368   5.332 -0.6773 -0.6217  0.4439
  289MOL    H5435190   2.803   3.351   5.524 -0.1748 -0.4243  0.1961
  289MOL    H5535191   2.917   3.256   5.425 -0.6703 -0.0500 -1.5232
  289MOL    C5635192   2.906   3.462   5.368 -0.1982  0.2037  0.3957
  289MOL    C5735193   2.960   3.561   5.478 -0.4980 -0.1025 -0.5690
  289MOL    H5835194   3.000   3.433   5.320  1.9756  1.8960  3.4579
  289MOL    H5935195   2.838   3.516   5.302  0.7874  1.5593  0.4572
  289MOL    H6035196   2.974   3.656   5.427 -2.9878  0.4098 -0.3460
  289MOL    H6135197   2.890   3.588   5.557 -1.6157 -0.7700 -1.3140
  289MOL    C6235198   3.096   3.516   5.534 -0.1667 -0.6787  0.1359
  289MOL    C6335199   3.152   3.624   5.637 -0.3465 -0.5993 -0.3992
  289MOL    H6435200   3.078   3.425   5.591  1.1975 -1.5450 -0.7880
  289MOL    H6535201   3.168   3.478   5.462 -0.9175 -0.4809 -0.7247
  289MOL    H6635202   3.173   3.706   5.568 -0.0738 -1.4561 -1.3624
  289MOL    H6735203   3.072   3.638   5.709 -0.0389  1.1949 -0.4020
  289MOL    C6835204   3.293   3.592   5.690 -0.3198  0.0524 -0.6084
  289MOL    C6935205   3.283   3.506   5.821  0.4328 -0.0791  0.7084
  289MOL    H7035206   3.357   3.548   5.614  2.4903  4.3125 -0.8712
  289MOL    H7135207   3.353   3.680   5.712 -0.4836  0.8618 -3.2781
  289MOL    H7235208   3.223   3.553   5.898  1.1765  0.6200  0.8674
  289MOL    H7335209   3.238   3.411   5.792  2.3164 -0.7078 -0.3093
  289MOL    C7435210   3.418   3.488   5.887 -0.3680  0.4562 -0.4674
  289MOL    C7535211   3.427   3.447   6.033 -0.8936 -0.3479 -0.3212
  289MOL    H7635212   3.488   3.425   5.831 -0.1349  0.5769 -0.3156
  289MOL    H7735213   3.454   3.591   5.892  0.1568  0.1655  5.1668
  289MOL    H7835214   3.362   3.514   6.090  1.8090  1.5957  0.6141
  289MOL    H7935215   3.405   3.341   6.045 -0.6229 -0.4710 -0.8907
  289MOL    C8035216   3.568   3.467   6.078 -0.0662 -0.7704  0.4146
  289MOL    C8135217   3.599   3.609   6.118 -0.4167  0.5280  0.7217
  289MOL    H8235218   3.578   3.405   6.167  0.8124 -1.1811  0.0410
  289MOL    H8335219   3.639   3.437   6.001 -0.8590  0.1397 -0.6934
  289MOL    H8435220   3.562   3.678   6.041 -2.4744  0.0137  1.2108
  289MOL    H8535221   3.537   3.634   6.204 -1.5452  0.6919 -0.1220
  289MOL    C8635222   3.748   3.629   6.149 -0.3187  0.2274 -0.6871
  289MOL    C8735223   3.790   3.562   6.282 -0.8420  0.0238 -0.1712
  289MOL    H8835224   3.815   3.601   6.067  0.4673 -0.3281  0.1430
  289MOL    H8935225   3.764   3.736   6.164 -0.3377 -0.1665  2.2732
  289MOL    H9035226   3.722   3.585   6.364  2.5992 -0.2858  2.8883
  289MOL    H9135227   3.784   3.453   6.271 -1.0852 -0.1225  1.2683
  289MOL    C9235228   3.934   3.590   6.327 -0.4730 -0.2128 -0.3106
  289MOL    C9335229   3.973   3.514   6.450 -0.0196  0.7975  0.0847
  289MOL    H9435230   4.002   3.572   6.243 -0.6388  1.8055 -0.9028
  289MOL    H9535231   3.931   3.697   6.346 -3.5846 -0.0287 -1.5163
  289MOL    H9635232   4.069   3.546   6.490 -0.1255  0.7988  0.3449
  289MOL    H9735233   3.897   3.541   6.523 -1.1352 -0.0324 -0.7628
  289MOL    C9835234   3.984   3.363   6.427  0.2336  0.5413 -0.8669
  289MOL    C9935235   4.046   3.276   6.543 -0.1699 -0.6373  0.3608
  289MOL   H10035236   3.889   3.327   6.387 -0.0336  3.3024 -2.8561
  289MOL   H10135237   4.050   3.333   6.345  3.5116  0.1121  1.7769
  289MOL   H10235238   4.058   3.174   6.509 -2.1404 -0.5326 -0.7453
  289MOL   H10335239   4.144   3.323   6.554  0.4104 -1.8084  0.2187
  289MOL   C10435240   3.970   3.273   6.678 -0.4917  0.4667  0.1109
  289MOL   C10535241   4.052   3.196   6.780 -0.2930  0.3470 -0.3751
  289MOL   H10635242   3.947   3.373   6.715 -1.1720  1.3813 -2.6434
  289MOL   H10735243   3.874   3.232   6.645  0.2096 -0.7932 -0.3530
  289MOL   H10835244   4.097   3.104   6.746 -1.6161 -0.3828 -0.2082
  289MOL   H10935245   4.135   3.263   6.800  0.1323 -0.3450  0.1952
  289MOL   C11035246   3.974   3.177   6.913  0.2338  0.1859  0.2696
  289MOL   C11135247   4.064   3.120   7.021  0.4489  0.0538  0.0654
  289MOL   H11235248   3.917   3.264   6.943 -1.8490 -1.6033  1.6671
  289MOL   H11335249   3.896   3.101   6.909  1.6851 -1.3861  1.3212
  289MOL   H11435250   4.119   3.039   6.974  1.5850  0.2306  1.0835
  289MOL   H11535251   4.139   3.194   7.049  0.2689 -0.3199  1.6201
  289MOL   C11635252   4.001   3.074   7.153  1.0979 -0.4853  0.2136
  289MOL   C11735253   4.108   3.042   7.264 -0.0136 -0.3988 -0.7420
  289MOL   H11835254   3.933   3.145   7.198  2.0458  0.6988 -0.1876
  289MOL   H11935255   3.940   2.986   7.131  0.7041 -0.5583  1.5827
  289MOL   H12035256   4.058   2.988   7.344 -1.0985 -1.4263 -2.0803
  289MOL   H12135257   4.185   2.973   7.228 -1.7690 -1.8281 -1.8276
  289MOL   H12235258   4.148   3.135   7.304 -0.6992 -0.7354  0.7437
  290MOL     C135259   2.252   2.934   4.791  0.7686 -0.2859 -0.6403
  290MOL     C235260   2.302   2.979   4.928  0.2185  0.6225 -0.3136
  290MOL     H335261   2.199   2.838   4.793  1.8113 -0.8505  1.0025
  290MOL     H435262   2.341   2.926   4.728  2.4381 -0.3815  1.6715
  290MOL     H535263   2.359   2.899   4.976 -0.9844  1.1450  2.0177
  290MOL     H635264   2.374   3.060   4.919  2.4139 -1.3433 -1.2226
  290MOL     H735265   2.184   3.000   4.737  1.9208  1.6068  0.1897
  290MOL     C835266   2.187   3.015   5.032  0.1779  0.2686 -0.0184
  290MOL     C935267   2.127   2.886   5.082 -0.3254  0.6470 -0.0288
  290MOL    H1035268   2.223   3.074   5.117  0.7769  0.1544 -0.1861
  290MOL    H1135269   2.109   3.072   4.982 -0.9526 -1.5548 -0.3413
  290MOL    H1235270   2.076   2.849   4.993  1.3101 -1.1292 -0.2588
  290MOL    H1335271   2.214   2.831   5.119 -0.3464  1.7598  1.7185
  290MOL    C1435272   2.033   2.925   5.208 -0.3696  0.3555  0.2800
  290MOL    C1535273   1.966   2.804   5.267  0.6949  0.0937  0.4421
  290MOL    H1635274   2.089   2.975   5.287 -0.7589  0.5029  0.4629
  290MOL    H1735275   1.955   2.997   5.183 -1.8414 -1.6637 -1.1283
  290MOL    H1835276   1.900   2.748   5.199  0.8035 -0.9604  1.1916
  290MOL    H1935277   2.048   2.736   5.291 -1.0832 -2.4281 -0.3167
  290MOL    C2035278   1.885   2.828   5.398  0.3251  1.0661  0.4892
  290MOL    C2135279   1.817   2.699   5.465  0.2806  0.2899 -0.0646
  290MOL    H2235280   1.946   2.888   5.465  0.0165  0.2467  1.5025
  290MOL    H2335281   1.800   2.891   5.374 -0.4018 -0.3488 -0.7679
  290MOL    H2435282   1.748   2.654   5.394  1.2621  0.5733 -1.2013
  290MOL    H2535283   1.887   2.621   5.495 -3.2306 -2.5477  1.1100
  290MOL    C2635284   1.728   2.747   5.584  0.0224 -0.1307  0.1125
  290MOL    C2735285   1.637   2.640   5.637  0.2892 -0.0152 -0.2667
  290MOL    H2835286   1.802   2.774   5.659 -0.2113  1.7815 -0.3245
  290MOL    H2935287   1.665   2.829   5.549 -0.9918 -0.1721  1.7564
  290MOL    H3035288   1.574   2.610   5.553  2.4410 -0.7813 -1.6719
  290MOL    H3135289   1.694   2.549   5.659  0.7381  0.2420 -0.3479
  290MOL    C3235290   1.532   2.676   5.749  0.0255 -0.0481 -0.5658
  290MOL    C3335291   1.440   2.561   5.801  0.1046  0.0375 -0.9895
  290MOL    H3435292   1.576   2.723   5.837 -1.6457  0.3296  0.1011
  290MOL    H3535293   1.476   2.755   5.699 -2.0000 -0.3989  1.0882
  290MOL    H3635294   1.385   2.514   5.719 -0.3356  0.7145 -1.0909
  290MOL    H3735295   1.503   2.487   5.850 -0.9081 -0.3015 -0.1914
  290MOL    C3835296   1.343   2.607   5.913 -0.1423 -0.3528 -0.3168
  290MOL    C3935297   1.262   2.488   5.973 -0.7627 -0.3171  0.0307
  290MOL    H4035298   1.398   2.653   5.995  2.4936 -0.6477 -1.8628
  290MOL    H4135299   1.282   2.689   5.875 -0.2123  0.1120  0.7951
  290MOL    H4235300   1.212   2.425   5.900 -0.5032 -0.2267 -0.2244
  290MOL    H4335301   1.331   2.422   6.025 -0.2785 -0.6990 -1.0970
  290MOL    C4435302   1.145   2.537   6.067 -0.5290 -0.3381 -0.6167
  290MOL    C4535303   1.098   2.420   6.155 -0.3517 -0.2283  0.0588
  290MOL    H4635304   1.179   2.618   6.131 -1.2169 -1.0765  0.7005
  290MOL    H4735305   1.066   2.565   5.997  1.3957  0.8036 -2.4192
  290MOL    H4835306   1.058   2.342   6.089 -0.5475  0.4653 -0.6500
  290MOL    H4935307   1.185   2.371   6.200  0.0903  0.2486 -0.2602
  290MOL    C5035308   0.996   2.469   6.257  0.0618 -0.3062  0.0770
  290MOL    C5135309   0.965   2.364   6.356 -0.3659  0.4212  0.6928
  290MOL    H5235310   1.029   2.558   6.310 -0.2022  1.2790 -2.3329
  290MOL    H5335311   0.909   2.500   6.199  1.0768  1.9066 -0.3310
  290MOL    H5435312   0.962   2.268   6.304  0.0937  1.4693 -1.3033
  290MOL    H5535313   1.054   2.354   6.418  0.8807 -1.6507 -1.3971
  290MOL    C5635314   0.835   2.385   6.444 -0.0104  0.6042 -0.6415
  290MOL    C5735315   0.871   2.451   6.577 -0.1437 -0.1917 -0.7577
  290MOL    H5835316   0.758   2.444   6.393  0.8118  1.7761 -0.5529
  290MOL    H5935317   0.790   2.287   6.462 -0.4498  0.8324 -0.4786
  290MOL    H6035318   0.955   2.398   6.621 -1.1214 -3.0520 -2.1737
  290MOL    H6135319   0.893   2.556   6.561 -0.4962  0.1701  0.9720
  290MOL    C6235320   0.755   2.454   6.670  0.2634  0.2492  0.3351
  290MOL    C6335321   0.760   2.555   6.776  0.4359 -0.7722  0.1396
  290MOL    H6435322   0.661   2.471   6.617  0.1034 -0.1083  0.5019
  290MOL    H6535323   0.743   2.355   6.714 -2.2776  0.7456  0.8267
  290MOL    H6635324   0.779   2.652   6.729 -1.1503  0.7380  2.4840
  290MOL    H6735325   0.655   2.551   6.806 -0.1639  0.0800 -1.7940
  290MOL    C6835326   0.851   2.534   6.892 -0.2648  0.4810  1.0376
  290MOL    C6935327   0.870   2.666   6.968 -0.5696  0.6590  0.0646
  290MOL    H7035328   0.818   2.466   6.971  1.4798 -0.2198  1.1866
  290MOL    H7135329   0.948   2.497   6.859  0.0609  2.8659 -0.8369
  290MOL    H7235330   0.943   2.728   6.915  1.1671  0.0529  1.7169
  290MOL    H7335331   0.774   2.712   6.991 -1.4931 -0.6003 -1.1652
  290MOL    C7435332   0.936   2.642   7.097 -0.4878 -0.3456  0.2092
  290MOL    C7535333   1.006   2.767   7.146  0.4175 -0.4468 -0.1671
  290MOL    H7635334   0.874   2.594   7.173  1.3197  0.5781  2.3602
  290MOL    H7735335   1.018   2.573   7.079 -1.4656 -1.0196 -1.7038
  290MOL    H7835336   1.082   2.794   7.073  1.3479  0.3751  1.0869
  290MOL    H7935337   0.931   2.846   7.142  2.3338  1.5383  1.6921
  290MOL    C8035338   1.065   2.760   7.289  0.1545 -0.2084 -0.6638
  290MOL    C8135339   1.133   2.893   7.328 -0.1896  0.0422  0.0673
  290MOL    H8235340   0.993   2.725   7.363 -1.6915 -0.0843 -2.3335
  290MOL    H8335341   1.149   2.692   7.279  0.9156  0.3602  1.6155
  290MOL    H8435342   1.193   2.931   7.245 -1.9485  0.0293 -1.2213
  290MOL    H8535343   1.055   2.963   7.357  1.5091  1.5776  1.0622
  290MOL    C8635344   1.209   2.881   7.460 -0.0100 -0.4712 -0.0961
  290MOL    C8735345   1.276   3.020   7.490  0.6419  0.2271 -0.0169
  290MOL    H8835346   1.138   2.850   7.537 -0.0106 -2.3297 -0.8123
  290MOL    H8935347   1.271   2.791   7.460  0.6751 -0.0014  0.3404
  290MOL    H9035348   1.361   3.047   7.428  2.1502 -3.4457  0.2935
  290MOL    H9135349   1.203   3.101   7.485  0.4539 -0.0004 -0.9231
  290MOL    C9235350   1.339   3.015   7.631  0.5539 -0.0859  0.0187
  290MOL    C9335351   1.407   3.142   7.672 -0.4638  0.4240  0.1943
  290MOL    H9435352   1.274   2.979   0.019 -1.3081 -0.5077 -1.6374
  290MOL    H9535353   1.419   2.942   7.626  1.4853  0.7732  1.8923
  290MOL    H9635354   1.487   3.167   7.603 -1.3798  1.2192 -0.5897
  290MOL    H9735355   1.334   3.223   7.661 -0.6174  0.2012 -0.4411
  290MOL    C9835356   1.469   3.136   0.125  0.8192 -0.3240  0.1468
  290MOL    C9935357   1.516   3.279   0.174  1.1125  0.1794 -0.2602
  290MOL   H10035358   1.389   3.110   0.194  0.3625 -0.9745 -0.6278
  290MOL   H10135359   1.554   3.068   0.116 -0.0840 -1.4870  0.3841
  290MOL   H10235360   1.429   3.344   0.187 -0.2144 -1.7221  0.5996
  290MOL   H10335361   1.556   3.272   0.275 -0.1475 -0.1906  0.2313
  290MOL   C10435362   1.644   3.332   0.105 -0.0640  0.5364 -0.7567
  290MOL   C10535363   1.731   3.427   0.185 -0.6621  0.3425  0.5234
  290MOL   H10635364   1.706   3.245   0.080 -1.7458 -1.0050  0.2583
  290MOL   H10735365   1.609   3.382   0.015  1.3887  1.5889 -0.7485
  290MOL   H10835366   1.787   3.378   0.264  1.1110  1.1627 -0.1937
  290MOL   H10935367   1.818   3.456   0.125 -0.0481  0.2648  1.3701
  290MOL   C11035368   1.658   3.556   0.224  0.9160  0.3374 -0.4654
  290MOL   C11135369   1.745   3.663   0.288 -0.0294 -0.5707  0.2645
  290MOL   H11235370   1.627   3.584   0.123 -1.5411 -0.6155 -0.0265
  290MOL   H11335371   1.582   3.523   0.294  0.5879  1.8702 -0.0924
  290MOL   H11435372   1.773   3.635   0.389 -0.8952  1.8728  1.2223
  290MOL   H11535373   1.833   3.669   0.223 -0.3842  2.1849 -0.0361
  290MOL   C11635374   1.686   3.802   0.285  0.3710  0.0690 -0.4883
  290MOL   C11735375   1.648   3.857   0.148  0.0067  0.2617 -0.0350
  290MOL   H11835376   1.606   3.811   0.359  0.9046 -2.7056  0.5038
  290MOL   H11935377   1.766   3.866   0.321 -1.6330  1.1268  2.2643
  290MOL   H12035378   1.629   3.964   0.153  2.8566  0.8206 -0.2502
  290MOL   H12135379   1.732   3.841   0.080 -0.3091 -0.6929 -0.2078
  290MOL   H12235380   1.562   3.803   0.110 -0.3489 -0.6065  1.9465
  291MOL     C135381   0.808   5.010   5.600 -0.1379  0.1215 -0.0233
  291MOL     C235382   0.662   5.052   5.630  0.1086 -0.4610 -0.1911
  291MOL     H335383   0.836   5.013   5.495 -1.5193  0.0589 -0.3970
  291MOL     H435384   0.833   4.918   5.653 -0.0423  1.1425  1.7578
  291MOL     H535385   0.640   5.154   5.596 -0.7316 -0.9576 -1.1786
  291MOL     H635386   0.593   4.994   5.570  0.5111 -0.1333 -0.9843
  291MOL     H735387   0.878   5.079   5.649  1.3304 -1.2187 -0.1829
  291MOL     C835388   0.612   5.050   5.778 -0.5049  0.5847  0.1217
  291MOL     C935389   0.469   5.091   5.809  0.2751  0.2130  0.6964
  291MOL    H1035390   0.620   4.943   5.794  0.2124  0.4319 -1.2005
  291MOL    H1135391   0.690   5.095   5.840 -0.3773  0.5481 -0.0129
  291MOL    H1235392   0.431   5.177   5.753 -2.6283 -1.2518  0.3241
  291MOL    H1335393   0.401   5.006   5.812  2.2201 -1.3591  0.8746
  291MOL    C1435394   0.457   5.133   5.953 -0.5532 -0.7721 -0.2326
  291MOL    C1535395   0.318   5.191   5.982 -1.1434  0.2611 -0.0306
  291MOL    H1635396   0.486   5.048   6.015  0.3780  0.3564  0.9091
  291MOL    H1735397   0.526   5.216   5.968 -0.8572 -0.4109 -0.8072
  291MOL    H1835398   0.298   5.276   5.917  1.6516  0.4996 -0.6276
  291MOL    H1935399   0.242   5.117   5.955 -0.8406 -0.0101 -0.1407
  291MOL    C2035400   0.311   5.230   6.133 -0.3472 -0.4185 -0.0608
  291MOL    C2135401   0.379   5.364   6.169 -0.2707  0.0956 -0.4230
  291MOL    H2235402   0.205   5.250   6.150 -0.6067 -1.6268 -0.1625
  291MOL    H2335403   0.344   5.147   6.196  1.6646  0.0960 -0.3990
  291MOL    H2435404   0.480   5.365   6.130  0.0049  0.7615  0.3091
  291MOL    H2535405   0.323   5.446   6.123  1.3008  2.3749  1.6307
  291MOL    C2635406   0.389   5.400   6.323 -0.3141  0.9118  0.3199
  291MOL    C2735407   0.255   5.445   6.378  0.6462 -0.2540  0.4221
  291MOL    H2835408   0.431   5.314   6.375  0.7550  1.0605 -0.2783
  291MOL    H2935409   0.462   5.482   6.324  0.3093  0.4083 -1.8455
  291MOL    H3035410   0.212   5.521   6.312  0.0324  0.9253  2.1322
  291MOL    H3135411   0.183   5.364   6.368  1.4829 -0.9206 -0.2169
  291MOL    C3235412   0.259   5.488   6.525  0.5634 -0.6467 -0.7065
  291MOL    C3335413   0.124   5.526   6.590  0.9240  0.2649 -0.3176
  291MOL    H3435414   0.321   5.421   6.584 -3.1510 -2.4614  1.2718
  291MOL    H3535415   0.319   5.579   6.520 -1.6906  0.9511  0.5027
  291MOL    H3635416   0.060   5.588   6.527  2.0086  2.7387  0.9355
  291MOL    H3735417   0.080   5.426   6.601  1.8415 -0.1034  0.0022
  291MOL    C3835418   0.131   5.585   6.735  0.4533 -0.2726 -0.1334
  291MOL    C3935419   0.001   5.655   6.783  0.0608 -0.0041  0.1488
  291MOL    H4035420   0.147   5.502   6.803  0.4276 -1.5505 -1.6565
  291MOL    H4135421   0.215   5.655   6.732 -1.1653  1.6677 -1.0716
  291MOL    H4235422   7.658   5.731   6.713 -1.6431 -0.3800  0.5693
  291MOL    H4335423   7.606   5.589   6.775  0.5499 -0.7493  0.9192
  291MOL    C4435424   0.006   5.716   6.924  0.2759  0.3752  0.0308
  291MOL    C4535425   7.557   5.750   6.981 -0.7447 -0.1868  0.2199
  291MOL    H4635426   0.051   5.643   6.991 -0.2809 -0.1579 -0.1748
  291MOL    H4735427   0.075   5.800   6.927 -0.0990  0.7346 -1.3907
  291MOL    H4835428   7.503   5.823   6.922  0.3155  1.6369  1.4737
  291MOL    H4935429   7.488   5.665   6.979 -1.7393  0.5982  0.8664
  291MOL    C5035430   7.573   5.788   7.129  0.3469 -1.4620 -0.4808
  291MOL    C5135431   7.442   5.807   7.205 -0.0647  0.2700 -0.5959
  291MOL    H5235432   7.638   5.716   7.178  2.8696  0.6822 -0.5636
  291MOL    H5335433   7.626   5.883   7.127 -2.0758 -0.0695 -0.9086
  291MOL    H5435434   7.383   5.866   7.136 -0.4937  1.7787  1.0430
  291MOL    H5535435   7.386   5.714   7.216 -0.3957  0.6998  1.4689
  291MOL    C5635436   7.462   5.865   7.347 -0.4259  0.1825  0.4558
  291MOL    C5735437   7.332   5.842   7.434 -0.4513 -0.1077 -0.4248
  291MOL    H5835438   7.549   5.819   7.393 -0.4979 -0.5422 -0.1331
  291MOL    H5935439   7.500   5.967   7.348  1.7455 -0.6106  2.2748
  291MOL    H6035440   7.314   5.734   7.441  1.1447 -0.4705 -1.6071
  291MOL    H6135441   7.354   5.870   7.537 -1.3638 -1.3067  0.1159
  291MOL    C6235442   7.217   5.934   7.389  0.3043 -0.6524 -0.1588
  291MOL    C6335443   7.261   6.079   7.346 -0.1520 -0.4039 -0.1554
  291MOL    H6435444   7.169   5.895   7.299 -1.3575 -0.4667  0.6253
  291MOL    H6535445   7.146   5.940   7.471 -0.1952  0.6846 -0.6843
  291MOL    H6635446   7.320   6.080   7.255 -0.4651 -0.1297 -0.3590
  291MOL    H6735447   7.170   6.126   7.308 -0.4446 -0.4507  0.4672
  291MOL    C6835448   7.318   6.162   7.457 -0.2886 -0.4489  0.2727
  291MOL    C6935449   7.402   6.288   7.421  0.0111 -0.1269 -0.2528
  291MOL    H7035450   7.231   6.192   7.515 -0.4945 -1.3326  0.4235
  291MOL    H7135451   7.386   6.105   7.520 -0.2477 -1.1981 -0.4277
  291MOL    H7235452   7.481   6.263   7.351  0.8666  3.3732 -0.6113
  291MOL    H7335453   7.329   6.351   7.369  0.3233  0.3449 -0.1214
  291MOL    C7435454   7.466   6.368   7.542  0.0680  0.0065 -0.1065
  291MOL    C7535455   7.546   6.484   7.491 -0.0821  0.0947 -0.0519
  291MOL    H7635456   7.377   6.404   7.594  0.8365 -0.6640  1.6872
  291MOL    H7735457   7.514   6.310   7.619 -0.1742 -0.2034 -0.1135
  291MOL    H7835458   7.625   6.445   7.427  1.0730  0.3193  1.2074
  291MOL    H7935459   7.497   6.550   7.420 -2.9682 -0.1013  1.6708
  291MOL    C8035460   7.611   6.561   7.608 -0.5764  0.1153  0.5061
  291MOL    C8135461   0.041   6.644   7.560  0.0455 -0.3934  0.4564
  291MOL    H8235462   7.530   6.627   7.638 -0.6560  0.4034 -0.3249
  291MOL    H8335463   7.638   6.505   0.006 -1.3101  0.7753  1.1396
  291MOL    H8435464   0.112   6.570   7.524  1.1764  0.2009  1.4335
  291MOL    H8535465   7.690   6.716   7.490  0.0555 -0.1949  0.6533
  291MOL    C8635466   0.098   6.721   7.679 -0.8500  0.2795 -0.1384
  291MOL    C8735467   0.237   6.791   7.643  0.1250  0.0897 -0.2156
  291MOL    H8835468   0.017   6.785   0.023 -2.3360 -1.2702 -0.6856
  291MOL    H8935469   0.111   6.653   0.071  0.3666  0.5204 -0.1328
  291MOL    H9035470   0.308   6.715   7.610 -0.3095  0.1197 -1.2508
  291MOL    H9135471   0.216   6.850   7.553  3.2978  0.0199 -1.0405
  291MOL    C9235472   0.276   6.882   0.067  0.0625  1.0552  0.6096
  291MOL    C9335473   0.387   6.974   0.023  0.3140 -0.5419 -0.2942
  291MOL    H9435474   0.195   6.940   0.111 -0.1309  2.0771 -1.0447
  291MOL    H9535475   0.315   6.823   0.150  1.0166  0.7561 -0.0420
  291MOL    H9635476   0.465   6.918   7.663  0.7521 -1.0599  0.8891
  291MOL    H9735477   0.348   7.049   7.647  2.2101  0.9859  0.2391
  291MOL    C9835478   0.445   7.047   0.144  0.7299  1.3094 -0.1826
  291MOL    C9935479   0.516   7.181   0.107 -0.1664 -0.7502  1.1347
  291MOL   H10035480   0.363   7.081   0.208  1.0253  1.7556 -0.0356
  291MOL   H10135481   0.494   6.993   0.225 -0.7205  0.2578  0.0111
  291MOL   H10235482   0.599   7.173   0.037 -2.2313  0.9550 -1.6107
  291MOL   H10335483   0.461   7.255   0.050  3.0148  1.4530  0.7777
  291MOL   C10435484   0.563   7.247   0.236 -0.1801 -0.4646  0.2886
  291MOL   C10535485   0.676   7.353   0.209 -0.5893  0.4633  0.1752
  291MOL   H10635486   0.481   7.305   0.279 -0.2034 -0.7924  0.6981
  291MOL   H10735487   0.604   7.178   0.310 -0.4441 -0.5476  0.3585
  291MOL   H10835488   0.761   7.292   0.177 -0.8269  0.5872 -0.7231
  291MOL   H10935489   0.668   7.403   0.112  3.0086  1.8732  0.5175
  291MOL   C11035490   0.717   7.452   0.322 -0.0540  0.4617 -0.0070
  291MOL   C11135491   0.830   7.547   0.283  0.5387 -0.2628 -0.3219
  291MOL   H11235492   0.627   7.504   0.356  1.6780  1.5933  3.0405
  291MOL   H11335493   0.751   7.392   0.406 -1.3647 -1.0776 -0.5509
  291MOL   H11435494   0.922   7.488   0.279  0.6881  0.0614 -1.9025
  291MOL   H11535495   0.805   7.590   0.186  0.2258  1.6090  0.5784
  291MOL   C11635496   0.847   7.665   0.378  0.1982 -0.1300 -0.0208
  291MOL   C11735497   0.941   0.078   0.309  0.3430 -0.7198  0.2443
  291MOL   H11835498   0.748   0.017   0.392 -0.7017 -1.5694 -1.7565
  291MOL   H11935499   0.888   7.625   0.471  1.3479  0.2037 -0.3873
  291MOL   H12035500   1.038   0.039   0.280 -0.7424 -3.6329  0.3581
  291MOL   H12135501   0.889   0.107   0.218  0.9092 -1.5893 -0.3621
  291MOL   H12235502   0.965   0.166   0.370  0.5695 -0.4327 -0.2565
  292MOL     C135503   5.683   2.507   1.580  0.3773  0.2516  0.1704
  292MOL     C235504   5.566   2.550   1.679 -0.0935  0.3917  0.1962
  292MOL     H335505   5.776   2.539   1.628 -1.5749  4.0001  1.6144
  292MOL     H435506   5.680   2.575   1.495  2.4109 -0.1523 -0.2620
  292MOL     H535507   5.605   2.507   1.771  2.2818 -2.5761 -2.0692
  292MOL     H635508   5.570   2.654   1.711  1.2282 -0.4120  2.8129
  292MOL     H735509   5.686   2.400   1.558  0.0991 -0.1987  2.1911
  292MOL     C835510   5.423   2.513   1.635 -0.5414 -0.2564  0.0643
  292MOL     C935511   5.320   2.530   1.738  0.0430 -0.2502  0.2805
  292MOL    H1035512   5.400   2.571   1.546 -0.2784 -0.5660 -0.2075
  292MOL    H1135513   5.434   2.412   1.596  1.1353  0.0859 -0.4051
  292MOL    H1235514   5.351   2.480   1.830 -0.8378 -0.4024  0.5000
  292MOL    H1335515   5.310   2.633   1.774 -2.1991 -0.2650 -0.2424
  292MOL    C1435516   5.180   2.483   1.696  0.2766  0.6275 -0.3581
  292MOL    C1535517   5.083   2.481   1.819  0.3642  0.5950  0.0999
  292MOL    H1635518   5.141   2.538   1.611  0.7244 -0.0065 -0.9780
  292MOL    H1735519   5.175   2.382   1.656 -1.8860 -0.2937  2.0519
  292MOL    H1835520   5.130   2.449   1.912  1.4720 -1.5936 -1.1671
  292MOL    H1935521   5.078   2.589   1.836 -0.1976  0.3156  1.8302
  292MOL    C2035522   4.942   2.421   1.791  0.3034  0.3914 -0.6901
  292MOL    C2135523   4.848   2.459   1.901  0.0233  0.0650 -0.2340
  292MOL    H2235524   4.909   2.467   1.698 -0.0623 -0.1344 -0.8250
  292MOL    H2335525   4.959   2.314   1.777  0.7914  0.5993 -1.7516
  292MOL    H2435526   4.888   2.427   1.997  1.4059  0.2204 -0.7501
  292MOL    H2535527   4.837   2.567   1.898 -1.4838 -0.0316  1.2527
  292MOL    C2635528   4.710   2.389   1.874  0.6163  0.7119 -0.1537
  292MOL    C2735529   4.617   2.398   1.985 -0.2331  0.6778 -0.2575
  292MOL    H2835530   4.661   2.431   1.786 -1.5346  1.8853  1.5805
  292MOL    H2935531   4.736   2.285   1.851 -1.5854 -0.6332  3.0771
  292MOL    H3035532   4.663   2.343   2.067  1.4078 -0.0727 -1.6492
  292MOL    H3135533   4.609   2.497   2.031 -1.1554  0.6387 -0.3262
  292MOL    C3235534   4.475   2.361   1.958  0.0509  0.0255  0.0260
  292MOL    C3335535   4.381   2.389   2.077  0.2151 -0.2185 -0.2189
  292MOL    H3435536   4.436   2.412   1.869 -0.7087 -1.8193 -0.7197
  292MOL    H3535537   4.457   2.255   1.940 -1.4836  0.2841 -0.0584
  292MOL    H3635538   4.424   2.332   2.160  0.9797  1.0268  0.2603
  292MOL    H3735539   4.372   2.495   2.100  0.0708 -0.0520 -1.0143
  292MOL    C3835540   4.235   2.339   2.045  0.3522 -0.5322 -0.3249
  292MOL    C3935541   4.142   2.308   2.163  0.1126 -0.0391 -0.4069
  292MOL    H4035542   4.180   2.405   1.977  0.9177 -0.3702 -0.6278
  292MOL    H4135543   4.230   2.239   2.002 -2.3029 -0.3518 -0.5399
  292MOL    H4235544   4.184   2.227   2.223 -2.0833 -1.3791 -0.6505
  292MOL    H4335545   4.134   2.403   2.216 -1.1294 -1.2437  1.6138
  292MOL    C4435546   3.999   2.255   2.128  0.4185 -0.0637 -0.6658
  292MOL    C4535547   3.913   2.255   2.256 -0.6914  0.2724 -0.4381
  292MOL    H4635548   3.968   2.332   2.057  0.2975  0.3297 -0.1924
  292MOL    H4735549   4.001   2.163   2.070 -1.2736  0.0616 -0.9619
  292MOL    H4835550   3.945   2.183   2.332  0.2826  2.9419  1.7439
  292MOL    H4935551   3.933   2.349   2.305  1.8894 -0.3052 -0.3324
  292MOL    C5035552   3.765   2.233   2.230 -0.3381 -0.0929 -0.8668
  292MOL    C5135553   3.677   2.232   2.355  0.4464 -0.0686 -0.2873
  292MOL    H5235554   3.731   2.306   2.157 -2.7116 -0.2454  0.0607
  292MOL    H5335555   3.761   2.133   2.186 -2.7799  0.1027 -1.1532
  292MOL    H5435556   3.729   2.175   2.433  1.0228 -1.7598 -1.8696
  292MOL    H5535557   3.674   2.336   2.388  1.3983 -0.2512  0.3974
  292MOL    C5635558   3.535   2.181   2.324 -0.0755 -0.0795  0.3759
  292MOL    C5735559   3.451   2.164   2.453  0.1198  0.2665  0.2345
  292MOL    H5835560   3.483   2.238   2.248 -0.8868  0.2794  1.1804
  292MOL    H5935561   3.543   2.088   2.268  0.5185  0.0451  0.2523
  292MOL    H6035562   3.504   2.096   2.520  0.7845 -0.2465 -0.7918
  292MOL    H6135563   3.444   2.259   2.506  2.3897  0.6604 -0.1125
  292MOL    C6235564   3.318   2.105   2.417  0.9628  0.4226  0.1566
  292MOL    C6335565   3.212   2.106   2.520  0.2699  0.1184 -0.1906
  292MOL    H6435566   3.282   2.162   2.330  2.2650 -0.6953 -1.1406
  292MOL    H6535567   3.327   2.001   2.385 -0.5738 -0.3833  2.2389
  292MOL    H6635568   3.242   2.045   2.606 -1.2479 -0.0004  0.2693
  292MOL    H6735569   3.215   2.208   2.560 -0.2093  0.2050 -0.3748
  292MOL    C6835570   3.066   2.069   2.484 -0.1072  0.5255  0.1216
  292MOL    C6935571   2.971   2.085   2.605  0.3269 -0.8687 -0.7241
  292MOL    H7035572   3.039   2.131   2.398  0.8184  1.2537  0.3538
  292MOL    H7135573   3.066   1.966   2.450 -0.5159  0.2661  0.8995
  292MOL    H7235574   3.009   2.024   2.686 -1.8019  0.5191  1.3851
  292MOL    H7335575   2.967   2.193   2.617 -2.5751 -0.8295 -1.5767
  292MOL    C7435576   2.822   2.055   2.579 -0.3424  0.1678 -0.3243
  292MOL    C7535577   2.730   2.083   2.690 -0.2563 -0.3658 -0.5089
  292MOL    H7635578   2.791   2.124   2.501  2.0120 -0.4983 -1.9194
  292MOL    H7735579   2.809   1.957   2.533 -0.0414  0.5892 -1.3051
  292MOL    H7835580   2.762   2.037   2.784  0.1505 -0.1437 -0.5359
  292MOL    H7935581   2.721   2.188   2.719 -1.2002 -0.7780  0.7258
  292MOL    C8035582   2.584   2.042   2.656  0.3509  0.3768 -0.5960
  292MOL    C8135583   2.483   2.078   2.758 -0.1687 -0.3751  0.2568
  292MOL    H8235584   2.554   2.090   2.563 -0.5609  0.7371 -0.1224
  292MOL    H8335585   2.567   1.936   2.638  1.0146 -0.2286  2.1503
  292MOL    H8435586   2.477   2.010   2.843 -2.1468  1.0501  1.3133
  292MOL    H8535587   2.512   2.172   2.806 -0.2879 -0.6649  0.9027
  292MOL    C8635588   2.342   2.066   2.697 -0.4921 -0.5486  0.0590
  292MOL    C8735589   2.243   2.090   2.812  0.2966 -0.4586 -0.7870
  292MOL    H8835590   2.331   2.140   2.617  1.7422 -2.4132 -2.0441
  292MOL    H8935591   2.324   1.972   2.644 -0.4903 -1.5242  1.7680
  292MOL    H9035592   2.233   2.005   2.879 -4.0249  1.3429  1.0920
  292MOL    H9135593   2.275   2.168   2.880  0.6486 -1.3864  0.1105
  292MOL    C9235594   2.109   2.122   2.740 -0.0485 -0.1165  0.2174
  292MOL    C9335595   1.991   2.129   2.845 -0.0866 -0.5208 -0.2784
  292MOL    H9435596   2.107   2.212   2.679  0.8489  0.9662  1.7452
  292MOL    H9535597   2.073   2.038   2.680 -0.1879 -0.1821  0.3894
  292MOL    H9635598   1.994   2.039   2.906  2.0435  0.5066  1.1937
  292MOL    H9735599   2.025   2.207   2.914  2.3836 -2.0360  0.3034
  292MOL    C9835600   1.849   2.150   2.793  0.0940 -0.1953  0.6196
  292MOL    C9935601   1.827   2.289   2.732  0.0444 -0.1629  0.7657
  292MOL   H10035602   1.835   2.066   2.725  1.0179 -1.4704  1.9549
  292MOL   H10135603   1.781   2.128   2.875 -1.2858 -1.3065 -0.7951
  292MOL   H10235604   1.835   2.361   2.814  0.6286  1.5820 -0.8012
  292MOL   H10335605   1.890   2.313   2.647 -0.2936  1.2864  0.9084
  292MOL   C10435606   1.683   2.309   2.677 -0.2277 -0.0644  0.1873
  292MOL   C10535607   1.669   2.416   2.568  0.1242 -0.1092  0.3385
  292MOL   H10635608   1.656   2.218   2.625 -1.3285  0.9415 -1.0496
  292MOL   H10735609   1.612   2.309   2.761  0.8179  1.1090  1.0877
  292MOL   H10835610   1.733   2.386   2.485  1.5139  1.1686  0.9122
  292MOL   H10935611   1.566   2.422   2.531 -0.1909 -1.3057  1.0153
  292MOL   C11035612   1.691   2.560   2.608  0.2824 -0.3300 -0.3168
  292MOL   C11135613   1.653   2.666   2.503 -0.5624  0.8553  0.2618
  292MOL   H11235614   1.636   2.577   2.701 -0.6590 -0.8861 -0.7616
  292MOL   H11335615   1.796   2.575   2.631 -0.4353  3.3806  0.8550
  292MOL   H11435616   1.707   2.623   2.419 -3.1660  0.7270 -1.3962
  292MOL   H11535617   1.547   2.672   2.480 -0.5360 -0.6228 -0.2979
  292MOL   C11635618   1.707   2.803   2.523 -0.4393  0.0247 -0.5138
  292MOL   C11735619   1.647   2.907   2.424 -0.0681 -0.2839  0.5596
  292MOL   H11835620   1.673   2.815   2.626  0.7255 -2.7715  0.2467
  292MOL   H11935621   1.816   2.797   2.530 -0.5252  0.3827  1.4796
  292MOL   H12035622   1.684   3.010   2.430  1.4970 -0.7556 -0.7734
  292MOL   H12135623   1.661   2.876   2.321  1.1244  2.2047 -0.0760
  292MOL   H12235624   1.540   2.925   2.438  0.0383  1.5144 -0.7747
  293MOL     C135625   3.189   1.209   4.216  0.1818  0.4826 -0.4935
  293MOL     C235626   3.072   1.304   4.249 -0.1126  0.4041  0.0885
  293MOL     H335627   3.156   1.171   4.119 -3.6556 -1.5101  1.4789
  293MOL     H435628   3.199   1.130   4.290 -0.0119  0.1446 -0.8225
  293MOL     H535629   3.043   1.365   4.163 -1.1566 -0.3297 -0.0961
  293MOL     H635630   2.979   1.246   4.252 -0.8037  1.5177  1.1550
  293MOL     H735631   3.285   1.250   4.187  0.9873 -0.4316  0.8358
  293MOL     C835632   3.105   1.396   4.358  1.1836 -1.1839 -0.2401
  293MOL     C935633   2.992   1.500   4.378 -0.3090 -0.0491  0.7024
  293MOL    H1035634   3.123   1.339   4.449 -1.8131 -0.8532  0.6373
  293MOL    H1135635   3.201   1.443   4.339  1.3950 -1.4391  0.1942
  293MOL    H1235636   2.974   1.542   4.279  2.2728 -0.8203 -0.1318
  293MOL    H1335637   2.900   1.448   4.405 -1.4796  2.2599  1.2842
  293MOL    C1435638   3.023   1.611   4.486  0.0304 -0.2655 -0.5092
  293MOL    C1535639   2.915   1.721   4.480 -0.3962 -0.0776 -0.2785
  293MOL    H1635640   3.028   1.569   4.587  0.4937  1.3411  0.1449
  293MOL    H1735641   3.122   1.650   4.461 -0.7375 -0.2930 -3.7623
  293MOL    H1835642   2.912   1.766   4.380  0.0800  0.3898 -0.0807
  293MOL    H1935643   2.817   1.672   4.471 -0.8018  0.3001  1.9956
  293MOL    C2035644   2.919   1.832   4.585  0.0224 -0.1559  0.1553
  293MOL    C2135645   2.800   1.934   4.580  0.2621  0.7207 -0.2731
  293MOL    H2235646   2.920   1.784   4.683 -2.2990  0.8178  0.7083
  293MOL    H2335647   3.014   1.884   4.572 -0.2042  0.4930  1.0036
  293MOL    H2435648   2.788   1.989   4.486  1.7345  0.1352 -0.8180
  293MOL    H2535649   2.708   1.876   4.588  0.3792  0.9107  3.4050
  293MOL    C2635650   2.803   2.036   4.697 -0.3278 -0.0213 -0.1955
  293MOL    C2735651   2.697   2.146   4.690 -0.6827  0.0027 -0.4425
  293MOL    H2835652   2.792   1.973   4.786  1.3326 -1.6086 -1.0685
  293MOL    H2935653   2.903   2.078   4.701  0.2409 -1.4796  2.5618
  293MOL    H3035654   2.720   2.213   4.773 -3.4919  1.4235 -0.7662
  293MOL    H3135655   2.701   2.206   4.600 -1.9659 -1.1749 -1.3061
  293MOL    C3235656   2.553   2.090   4.702 -0.1032  0.4166  0.0199
  293MOL    C3335657   2.447   2.210   4.702  0.3237  0.3169 -0.3268
  293MOL    H3435658   2.527   2.009   4.634 -0.7718 -1.1564  2.0997
  293MOL    H3535659   2.540   2.039   4.797 -0.1009 -0.9528 -0.6923
  293MOL    H3635660   2.471   2.275   4.786  0.5118  1.9569 -1.6318
  293MOL    H3735661   2.469   2.277   4.620  2.5765 -1.7474 -1.4815
  293MOL    C3835662   2.301   2.161   4.700 -0.8692  0.8662 -0.7946
  293MOL    C3935663   2.247   2.133   4.845  0.4633  0.3043  0.1817
  293MOL    H4035664   2.235   2.238   4.661  0.0912  2.2338  0.2526
  293MOL    H4135665   2.295   2.069   4.642  0.2203 -0.2424  0.7816
  293MOL    H4235666   2.308   2.052   4.885 -2.5943 -2.0511  0.2493
  293MOL    H4335667   2.262   2.219   4.911  0.2440  0.8640 -0.4900
  293MOL    C4435668   2.098   2.088   4.837 -0.1816 -0.7318 -0.3405
  293MOL    C4535669   2.065   2.046   4.979  0.0470  0.2904  0.3128
  293MOL    H4635670   2.032   2.168   4.804  1.4143  0.6093 -0.2937
  293MOL    H4735671   2.097   1.999   4.774 -1.7890  0.7614 -2.5103
  293MOL    H4835672   2.110   1.957   5.023 -0.5475  0.2921  0.9451
  293MOL    H4935673   2.069   2.130   5.048 -0.2845  0.5948 -0.0367
  293MOL    C5035674   1.911   2.020   4.981  0.6749  0.1456  0.0171
  293MOL    C5135675   1.843   1.981   5.117  0.6406 -0.1132  0.0044
  293MOL    H5235676   1.851   2.106   4.952  0.1952 -0.7053 -1.5957
  293MOL    H5335677   1.903   1.939   4.908 -2.6601 -0.5937  1.1491
  293MOL    H5435678   1.888   1.903   5.179 -0.8832 -1.1522 -0.1494
  293MOL    H5535679   1.834   2.068   5.181 -2.0087 -1.7430  1.9541
  293MOL    C5635680   1.699   1.921   5.102  0.1603  0.1104  0.4120
  293MOL    C5735681   1.639   1.914   5.240  0.1457  0.4611 -0.4111
  293MOL    H5835682   1.632   1.976   5.035 -2.8991 -3.0414  0.7571
  293MOL    H5935683   1.700   1.818   5.065 -0.5401  0.6179 -1.0929
  293MOL    H6035684   1.713   1.868   5.306 -0.5946 -0.6618 -0.3437
  293MOL    H6135685   1.631   2.017   5.275  0.3958  0.3939 -0.1528
  293MOL    C6235686   1.500   1.844   5.250 -0.6059  0.3669 -0.3505
  293MOL    C6335687   1.448   1.813   5.388 -0.0909  0.4446  0.0252
  293MOL    H6435688   1.430   1.911   5.198 -1.4268 -0.7767 -0.7279
  293MOL    H6535689   1.501   1.757   5.185 -0.6040  0.0414  0.0916
  293MOL    H6635690   1.530   1.775   5.448  0.1001 -0.0742 -0.5547
  293MOL    H6735691   1.426   1.909   5.433 -1.3059 -0.3855  1.2614
  293MOL    C6835692   1.316   1.752   5.393  0.0480  0.0725 -0.3697
  293MOL    C6935693   1.278   1.700   5.532 -0.2285  0.2498  0.5302
  293MOL    H7035694   1.235   1.818   5.363 -1.3708 -0.1688  2.7721
  293MOL    H7135695   1.310   1.662   5.331 -0.6727  0.6086 -1.0905
  293MOL    H7235696   1.365   1.641   5.561  1.1816  1.9352 -0.2389
  293MOL    H7335697   1.272   1.781   5.604 -1.8784  0.3681  0.2840
  293MOL    C7435698   1.138   1.645   5.544  0.3476  0.0797 -0.3507
  293MOL    C7535699   1.086   1.599   5.679  0.0378  0.0867  0.4310
  293MOL    H7635700   1.073   1.726   5.511 -0.4243 -0.4198 -0.0501
  293MOL    H7735701   1.124   1.563   5.474 -0.7342 -0.0254 -0.0132
  293MOL    H7835702   1.136   1.507   5.709 -0.7130 -0.1206  1.0488
  293MOL    H7935703   1.108   1.679   5.751  1.5791  1.8274 -1.9018
  293MOL    C8035704   0.933   1.572   5.674 -0.1227 -0.1963 -0.4782
  293MOL    C8135705   0.877   1.551   5.819  0.1286  0.8205 -0.1615
  293MOL    H8235706   0.880   1.652   5.622 -0.3477  0.3958  0.6467
  293MOL    H8335707   0.923   1.487   5.607 -0.5744 -1.2105  0.8754
  293MOL    H8435708   0.943   1.484   5.875 -0.8998 -2.0383 -2.2340
  293MOL    H8535709   0.881   1.645   5.873 -0.0352  1.3150 -1.0118
  293MOL    C8635710   0.728   1.510   5.828  0.2857 -0.5548 -0.3543
  293MOL    C8735711   0.682   1.481   5.971 -0.2707  0.9402 -0.0601
  293MOL    H8835712   0.660   1.592   5.803  1.3673  0.4886  0.1289
  293MOL    H8935713   0.703   1.433   5.754 -0.9231 -2.7341  2.2551
  293MOL    H9035714   0.748   1.420   6.033  1.0608  1.7449 -0.6730
  293MOL    H9135715   0.668   1.575   6.025 -0.0212  0.9524 -0.0150
  293MOL    C9235716   0.547   1.399   5.965 -0.2500 -0.0706 -0.3972
  293MOL    C9335717   0.503   1.349   6.109 -0.6598 -0.0470 -0.0029
  293MOL    H9435718   0.462   1.464   5.940 -1.8510 -1.6960  0.6450
  293MOL    H9535719   0.554   1.311   5.902 -1.7705 -1.4443  1.2760
  293MOL    H9635720   0.578   1.283   6.153  1.0414  0.3662 -2.1821
  293MOL    H9735721   0.515   1.429   6.183 -2.0071  1.9830 -1.9042
  293MOL    C9835722   0.362   1.286   6.110 -0.4219  0.9377  0.6386
  293MOL    C9935723   0.284   1.317   6.240 -0.0681  0.2354 -0.1085
  293MOL   H10035724   0.316   1.339   6.027 -0.6994 -1.3750 -0.7438
  293MOL   H10135725   0.357   1.179   6.088 -0.1392  1.0236  0.1512
  293MOL   H10235726   0.341   1.275   6.323 -0.3291 -1.5978 -0.8347
  293MOL   H10335727   0.278   1.426   6.249  0.4213  0.1337  1.6188
  293MOL   C10435728   0.151   1.250   6.237 -0.1027  0.1760 -0.7952
  293MOL   C10535729   0.078   1.247   6.373  0.2496 -0.6454 -0.7320
  293MOL   H10635730   0.086   1.293   6.161 -0.7208  0.2552 -0.2217
  293MOL   H10735731   0.168   1.148   6.201 -1.2473 -0.6364  0.9127
  293MOL   H10835732   0.152   1.221   6.449  0.3549 -0.6712 -0.8430
  293MOL   H10935733   0.044   1.348   6.393 -2.2706 -1.2313 -1.8461
  293MOL   C11035734   7.651   1.142   6.382  0.3277  0.3942 -0.7505
  293MOL   C11135735   7.608   1.110   6.529 -0.0974 -0.5805 -0.1471
  293MOL   H11235736   7.570   1.179   6.320 -0.1204 -1.1136 -1.0852
  293MOL   H11335737   7.691   1.051   6.338  0.7470  0.3762 -0.3442
  293MOL   H11435738   7.685   1.067   6.593 -0.5070 -0.1389  0.6565
  293MOL   H11535739   7.595   1.208   6.574  1.3393 -0.3427 -0.2197
  293MOL   C11635740   7.482   1.024   6.540 -0.1958 -0.3415 -0.7081
  293MOL   C11735741   7.429   1.002   6.677 -0.2751 -0.5213  0.7359
  293MOL   H11835742   7.411   1.073   6.473  0.9733  0.9655 -1.0067
  293MOL   H11935743   7.499   0.923   6.502 -0.1529 -1.1582  1.4527
  293MOL   H12035744   7.358   0.920   6.687 -2.9307  1.7999  1.5764
  293MOL   H12135745   7.508   0.980   6.750  1.0092 -2.1058 -1.0822
  293MOL   H12235746   7.376   1.087   6.719 -0.1489  0.0906 -0.3278
  294MOL     C135747   1.143   7.022   6.641  0.0432 -0.7271 -0.1437
  294MOL     C235748   1.008   7.075   6.577  0.0270  0.4829 -0.5913
  294MOL     H335749   1.172   6.945   6.570 -0.5700 -1.3528  0.2725
  294MOL     H435750   1.128   6.975   6.739  0.9485 -0.7356 -0.0092
  294MOL     H535751   1.016   7.088   6.469  4.1802  1.3776 -0.2973
  294MOL     H635752   0.923   7.012   6.600 -1.0180  2.2737  0.5855
  294MOL     H735753   1.225   7.094   6.644  0.2725 -0.9264 -1.5371
  294MOL     C835754   0.994   7.225   6.621  0.0000  0.2091 -0.2493
  294MOL     C935755   0.848   7.268   6.626  0.7910  0.3937  0.2519
  294MOL    H1035756   1.025   7.231   6.725  0.2235  0.8163 -0.3516
  294MOL    H1135757   1.051   7.291   6.556 -0.1714  2.3425  1.6947
  294MOL    H1235758   0.806   7.238   6.530 -1.7302  0.4094  1.3005
  294MOL    H1335759   0.800   7.215   6.708 -1.5810  1.6409 -0.2890
  294MOL    C1435760   0.833   7.422   6.646  0.3859  0.0693  0.4588
  294MOL    C1535761   0.838   7.465   6.793  0.0620  0.4363 -0.6819
  294MOL    H1635762   0.902   7.480   6.585  1.5824 -2.1171 -0.3111
  294MOL    H1735763   0.728   7.434   6.621  0.1033  0.5736  1.8479
  294MOL    H1835764   0.754   7.422   6.847  1.4425 -1.9186 -0.3693
  294MOL    H1935765   0.928   7.415   6.829  0.5140  0.9751 -1.0322
  294MOL    C2035766   0.826   7.618   6.806 -0.7267  0.7888 -0.5589
  294MOL    C2135767   0.834   7.666   6.948 -0.2106  0.2763  0.0679
  294MOL    H2235768   0.900   7.664   6.741  0.0504  1.0713  0.5167
  294MOL    H2335769   0.728   7.652   6.772 -1.1629  1.5462  1.3357
  294MOL    H2435770   0.751   7.630   7.009  0.0206  1.1990  0.9546
  294MOL    H2535771   0.925   7.631   6.999 -0.4398 -1.3685 -0.6093
  294MOL    C2635772   0.823   0.126   6.954 -0.8313  0.1937  0.6263
  294MOL    C2735773   0.840   0.173   7.098  0.7220 -0.4781  0.2392
  294MOL    H2835774   0.898   0.156   6.881 -0.1964  1.9858  1.9697
  294MOL    H2935775   0.723   0.157   6.921  1.0473  3.5795 -2.2528
  294MOL    H3035776   0.752   0.129   7.144  0.3848  0.1738  0.2308
  294MOL    H3135777   0.928   0.120   7.132  1.4513  0.0458 -0.7921
  294MOL    C3235778   0.859   0.328   7.108 -0.1383  0.0575  0.0049
  294MOL    C3335779   0.916   0.360   7.247  0.8670 -0.4738 -0.8703
  294MOL    H3435780   0.929   0.366   7.034  1.6076 -1.7117  0.7102
  294MOL    H3535781   0.760   0.370   7.091 -0.6102 -1.2072 -0.4514
  294MOL    H3635782   0.838   0.322   7.314  2.3226 -2.5779 -0.3302
  294MOL    H3735783   1.009   0.309   7.272 -0.3405 -2.0927  0.4700
  294MOL    C3835784   0.943   0.510   7.264 -0.2842 -0.2020  0.2061
  294MOL    C3935785   1.018   0.544   7.393 -0.0929 -0.6221 -0.0300
  294MOL    H4035786   1.003   0.553   7.184 -0.7438  0.3562  0.1576
  294MOL    H4135787   0.846   0.557   7.255 -0.0687  0.2539  0.2388
  294MOL    H4235788   0.978   0.487   7.477  0.9202 -0.3806  0.6319
  294MOL    H4335789   1.123   0.515   7.388  0.1681 -0.2747  2.4125
  294MOL    C4435790   1.014   0.697   7.423  1.0474 -0.3837  0.2293
  294MOL    C4535791   1.074   0.731   7.564 -0.0781  0.7390 -0.9962
  294MOL    H4635792   1.070   0.744   7.342 -0.8599 -0.6497 -1.2696
  294MOL    H4735793   0.911   0.729   7.408  1.3738  0.1436 -0.8901
  294MOL    H4835794   1.009   0.682   7.636 -1.1364  2.3614 -0.8200
  294MOL    H4935795   1.170   0.681   7.556 -0.3416  0.0538  0.0677
  294MOL    C5035796   1.091   0.885   7.596 -0.2759 -0.3795 -0.4702
  294MOL    C5135797   1.179   0.912   0.024 -0.2209  0.0633 -0.0540
  294MOL    H5235798   1.137   0.934   7.510 -2.0522  0.6522 -0.8325
  294MOL    H5335799   0.997   0.938   7.608  0.3046  0.4278  0.5049
  294MOL    H5435800   1.171   1.015   0.057  2.0145  0.1114  0.4393
  294MOL    H5535801   1.137   0.855   0.107  2.0821  0.8669  1.7314
  294MOL    C5635802   1.328   0.884   0.012  0.5389 -0.2916  0.0211
  294MOL    C5735803   1.400   0.883   0.152 -0.0040  0.4125  0.0227
  294MOL    H5835804   1.337   0.788   7.654 -0.9365  1.0196 -2.8624
  294MOL    H5935805   1.385   0.952   7.639 -0.5330 -1.4375 -2.1490
  294MOL    H6035806   1.351   0.965   0.205 -1.6711  0.4896 -1.6015
  294MOL    H6135807   1.368   0.790   0.199 -2.5221  1.3562  0.2887
  294MOL    C6235808   1.546   0.891   0.127 -0.7120  0.0895 -0.0047
  294MOL    C6335809   1.619   0.933   0.255 -0.0161 -0.0549 -0.4513
  294MOL    H6435810   1.590   0.797   0.092 -0.9585 -0.1484  0.3112
  294MOL    H6535811   1.564   0.975   0.061  1.3000 -1.1802 -1.1423
  294MOL    H6635812   1.563   1.013   0.304 -2.4290 -2.3015  0.5824
  294MOL    H6735813   1.625   0.842   0.315  1.1610  0.3664  0.0907
  294MOL    C6835814   1.770   0.980   0.245  0.3755 -0.3419  0.0112
  294MOL    C6935815   1.837   0.995   0.379 -0.4585 -0.5559  0.2390
  294MOL    H7035816   1.827   0.909   0.185 -1.2120 -2.5956  1.1405
  294MOL    H7135817   1.773   1.081   0.203  2.0721 -0.7494 -0.9310
  294MOL    H7235818   1.774   1.058   0.442 -0.7926 -2.9089  2.3303
  294MOL    H7335819   1.835   0.895   0.422  1.6105  0.1568  2.1024
  294MOL    C7435820   1.976   1.051   0.364  0.3139 -0.8445  0.6994
  294MOL    C7535821   2.082   0.932   0.340 -0.4605 -0.8756 -0.4956
  294MOL    H7635822   1.982   1.126   0.285 -1.3083  0.7099  2.0114
  294MOL    H7735823   2.004   1.094   0.460  2.7209 -0.6025 -0.1018
  294MOL    H7835824   2.076   0.851   0.412 -1.0366 -1.5466 -1.2878
  294MOL    H7935825   2.054   0.896   0.241  1.3733 -0.0508 -1.3322
  294MOL    C8035826   2.226   0.981   0.326 -0.1325  0.5451  0.0110
  294MOL    C8135827   2.325   0.871   0.280  0.0600 -0.0714 -1.0169
  294MOL    H8235828   2.238   1.064   0.256 -0.3920  0.8797  0.3613
  294MOL    H8335829   2.254   1.031   0.418  1.2116  0.8606 -0.5594
  294MOL    H8435830   2.338   0.796   0.357 -0.7560 -0.1801 -0.9819
  294MOL    H8535831   2.279   0.818   0.197  0.2033  0.5206 -1.4811
  294MOL    C8635832   2.468   0.921   0.245 -0.0388  0.1822 -0.1507
  294MOL    C8735833   2.583   0.817   0.250  0.6252 -0.1634 -0.1463
  294MOL    H8835834   2.454   0.960   0.144 -1.9518  0.3609  0.1660
  294MOL    H8935835   2.492   1.005   0.311  1.7248 -2.1575  2.3067
  294MOL    H9035836   2.594   0.810   0.358 -0.0288  0.1862 -0.0557
  294MOL    H9135837   2.562   0.724   0.198  1.8521 -0.9283  0.6818
  294MOL    C9235838   2.711   0.871   0.181 -0.7949  0.4708 -0.0906
  294MOL    C9335839   2.827   0.772   0.186  0.1256  0.7535 -0.3103
  294MOL    H9435840   2.682   0.872   0.075 -0.2612 -1.3120 -0.2733
  294MOL    H9535841   2.740   0.965   0.227  0.2428  0.4734 -0.7190
  294MOL    H9635842   2.847   0.739   0.288  3.2655 -0.2846 -1.2178
  294MOL    H9735843   2.796   0.680   0.136 -1.5837  2.0680 -1.7425
  294MOL    C9835844   2.950   0.818   0.118 -0.2750  0.2260 -1.2382
  294MOL    C9935845   3.061   0.716   0.105  0.0194  0.1396  0.2321
  294MOL   H10035846   2.926   0.868   0.024 -0.8097 -1.7106 -2.1592
  294MOL   H10135847   2.990   0.902   0.176 -0.6234  0.3802 -1.2184
  294MOL   H10235848   3.091   0.671   0.199 -0.7595  0.3148  0.5660
  294MOL   H10335849   3.033   0.635   0.037 -1.0836 -0.0587  0.9028
  294MOL   C10435850   3.189   0.779   0.043 -0.7157  0.9365 -0.6304
  294MOL   C10535851   3.286   0.687   7.647  0.2658  0.0139  0.1511
  294MOL   H10635852   3.163   0.863   7.671  0.5029  0.7980 -1.3122
  294MOL   H10735853   3.249   0.817   0.126 -1.5971  0.2638  0.3352
  294MOL   H10835854   3.285   0.583   7.680  0.6617 -0.0286  0.0302
  294MOL   H10935855   3.254   0.677   7.543  1.8452  0.9888 -0.4482
  294MOL   C11035856   3.428   0.746   7.648 -1.1028  0.3944 -0.4230
  294MOL   C11135857   3.524   0.652   7.582 -0.3391 -0.5729  0.2308
  294MOL   H11235858   3.422   0.846   7.608 -1.3465  0.0701 -1.1992
  294MOL   H11335859   3.458   0.752   0.061 -1.7286 -0.1303 -0.2119
  294MOL   H11435860   3.627   0.658   7.619 -0.7405  0.3341  1.2337
  294MOL   H11535861   3.496   0.547   7.589 -0.2034 -0.6669 -0.5290
  294MOL   C11635862   3.529   0.683   7.428  0.8658  0.8222 -0.7365
  294MOL   C11735863   3.637   0.607   7.348 -0.3295  0.0186  0.2574
  294MOL   H11835864   3.435   0.662   7.377  0.6304  0.3260 -0.1057
  294MOL   H11935865   3.560   0.787   7.426 -2.1669  1.7629 -0.2061
  294MOL   H12035866   3.720   0.581   7.414 -0.2702  0.5522  0.3942
  294MOL   H12135867   3.596   0.510   7.321 -5.1756  1.5434  1.7067
  294MOL   H12235868   3.678   0.657   7.260  0.2348  1.3393  1.2508
  295MOL     C135869   4.962   1.722   7.065  0.4280  0.0362 -0.0126
  295MOL     C235870   4.914   1.584   7.110  0.6766 -0.1267  0.1538
  295MOL     H335871   5.031   1.767   7.136 -0.1627 -1.2289  1.4058
  295MOL     H435872   4.878   1.792   7.062 -0.2021 -0.6395  1.3326
  295MOL     H535873   4.882   1.588   7.214  0.6637 -0.3875  0.1601
  295MOL     H635874   4.835   1.543   7.048 -0.4571  0.8528  0.9207
  295MOL     H735875   5.007   1.730   6.966 -1.7919 -2.4214 -1.2798
  295MOL     C835876   5.028   1.490   7.118 -0.6205  0.4213 -0.6033
  295MOL     C935877   4.988   1.353   7.177 -0.6225  0.5356  0.7374
  295MOL    H1035878   5.074   1.474   7.021  4.0736  4.1785  0.7901
  295MOL    H1135879   5.113   1.520   7.179 -1.4696 -0.9155  1.2994
  295MOL    H1235880   4.958   1.351   7.282 -0.9251 -1.9339  0.6328
  295MOL    H1335881   4.894   1.328   7.127 -0.1844  2.0851 -0.9529
  295MOL    C1435882   5.086   1.243   7.145  0.1420  0.2823 -0.0642
  295MOL    C1535883   5.034   1.104   7.181  0.0858  0.2647 -0.1464
  295MOL    H1635884   5.112   1.245   7.039 -1.5543 -1.6387 -0.5660
  295MOL    H1735885   5.183   1.266   7.188 -0.7313  3.5523  0.2848
  295MOL    H1835886   5.069   1.094   7.284  0.4360 -0.0930 -0.2976
  295MOL    H1935887   4.926   1.104   7.174 -0.0687  4.8503  0.5534
  295MOL    C2035888   5.097   0.984   7.100  0.3888  0.4339  0.4695
  295MOL    C2135889   5.048   0.842   7.152 -0.4383 -0.1785  0.3991
  295MOL    H2235890   5.074   0.987   6.993  0.6231 -4.0181  0.2135
  295MOL    H2335891   5.205   0.985   7.111  0.3900 -2.7051  1.0658
  295MOL    H2435892   5.068   0.839   7.259 -0.1661 -0.0655  0.3502
  295MOL    H2535893   4.939   0.842   7.162 -0.3089 -2.1148  1.9639
  295MOL    C2635894   5.105   0.727   7.074  0.0749 -0.3604 -0.5590
  295MOL    C2735895   5.040   0.590   7.106  0.2809 -0.3262  0.0930
  295MOL    H2835896   5.075   0.757   6.973 -0.5173  0.7843 -0.0549
  295MOL    H2935897   5.214   0.720   7.078 -0.0230 -0.5345  2.2499
  295MOL    H3035898   5.063   0.567   7.211  0.8286 -0.6437 -0.0922
  295MOL    H3135899   4.933   0.610   7.108  0.1002 -1.2833  3.2081
  295MOL    C3235900   5.087   0.478   7.015 -0.2550 -0.6327 -0.1276
  295MOL    C3335901   5.050   0.337   7.063  0.5475 -0.2636  0.2511
  295MOL    H3435902   5.061   0.501   6.911  0.1667  0.2293 -0.0528
  295MOL    H3535903   5.196   0.482   7.011 -0.3118 -0.2473 -1.7159
  295MOL    H3635904   5.068   0.308   7.166  1.6298  0.7077  0.3477
  295MOL    H3735905   4.943   0.324   7.049  0.8922 -1.0486 -1.8231
  295MOL    C3835906   5.106   0.225   6.966 -0.1067  0.5131 -0.2319
  295MOL    C3935907   5.036   0.097   6.967  0.3846 -0.0818  0.1867
  295MOL    H4035908   5.101   0.265   6.865 -2.8115 -0.9794 -0.7164
  295MOL    H4135909   5.212   0.212   6.987  0.0058 -0.0435 -1.1318
  295MOL    H4235910   5.062   0.046   7.060 -1.8036 -0.1079  0.7949
  295MOL    H4335911   4.928   0.109   6.969  0.1789 -1.8561  0.9063
  295MOL    C4435912   5.074   0.012   6.850  0.0672  0.8022 -0.0346
  295MOL    C4535913   4.988   7.572   6.854  0.1070 -1.0878  0.1565
  295MOL    H4635914   5.059   0.061   6.754 -0.6071 -0.6600 -0.6989
  295MOL    H4735915   5.182   7.686   6.848  0.1008  0.8213  1.6058
  295MOL    H4835916   5.019   7.518   6.944 -2.2666  2.1512  3.0622
  295MOL    H4935917   4.885   7.607   6.864  0.8578  1.5769 -0.9162
  295MOL    C5035918   4.997   7.493   6.722  0.4171 -0.0085 -0.1474
  295MOL    C5135919   4.897   7.381   6.706 -0.2016  0.4434  0.3620
  295MOL    H5235920   4.983   7.578   6.655 -0.6955  0.3716  0.5505
  295MOL    H5335921   5.098   7.458   6.701  0.2312 -1.8613  1.8830
  295MOL    H5435922   4.937   7.307   6.776  1.7005  0.2593 -0.8753
  295MOL    H5535923   4.797   7.399   6.745 -0.6783  1.1471 -1.1401
  295MOL    C5635924   4.899   7.326   6.559 -0.0602 -0.2721  0.1264
  295MOL    C5735925   4.800   7.208   6.533  0.0944 -0.5426 -0.0705
  295MOL    H5835926   4.889   7.405   6.484 -2.5228 -1.3118 -0.7111
  295MOL    H5935927   4.994   7.277   6.537  0.1882  0.5078 -0.5421
  295MOL    H6035928   4.807   7.122   6.600 -1.0121 -1.2304 -0.8201
  295MOL    H6135929   4.700   7.251   6.538 -0.0609 -1.0273  1.3144
  295MOL    C6235930   4.816   7.160   6.382  0.0031 -0.4063  0.6489
  295MOL    C6335931   4.731   7.029   6.354  0.5459  0.3616  0.2299
  295MOL    H6435932   4.788   7.243   6.318 -0.8338 -0.1119  1.3857
  295MOL    H6535933   4.918   7.151   6.346 -0.0772  3.0386 -0.5723
  295MOL    H6635934   4.765   6.943   6.412 -0.0213 -0.2737 -0.3896
  295MOL    H6735935   4.629   7.042   6.388  0.6716 -1.3529  1.3152
  295MOL    C6835936   4.734   6.977   6.202  0.6552 -0.3359 -0.9028
  295MOL    C6935937   4.695   6.830   6.176  0.2200  0.5423 -0.1285
  295MOL    H7035938   4.667   7.040   6.144 -0.7729 -1.1669 -0.1811
  295MOL    H7135939   4.834   6.990   6.162  1.0374 -0.1965  0.0976
  295MOL    H7235940   4.769   6.769   6.228 -1.4868 -0.0006  1.7344
  295MOL    H7335941   4.600   6.809   6.226 -0.6840  2.3656 -1.0256
  295MOL    C7435942   4.655   6.790   6.033 -0.2036 -0.2160 -0.0533
  295MOL    C7535943   4.616   6.639   6.023 -0.1176  0.1213 -0.2633
  295MOL    H7635944   4.576   6.852   5.992  1.3400  1.9336  0.1020
  295MOL    H7735945   4.744   6.799   5.970 -0.4509 -0.4223 -0.4304
  295MOL    H7835946   4.685   6.574   6.077 -0.2794  1.5608  1.7401
  295MOL    H7935947   4.515   6.616   6.058  0.5847 -2.7387 -0.0338
  295MOL    C8035948   4.602   6.600   5.878  0.4900 -0.0122 -0.3748
  295MOL    C8135949   4.560   6.452   5.861 -0.1251 -0.0618 -0.1278
  295MOL    H8235950   4.524   6.658   5.828  1.5600  4.4314  2.8605
  295MOL    H8335951   4.695   6.620   5.826  0.3916  0.8415 -0.2287
  295MOL    H8435952   4.636   6.388   5.907  1.2174 -0.4617 -2.8089
  295MOL    H8535953   4.469   6.426   5.914  0.4689  0.3626  1.1296
  295MOL    C8635954   4.551   6.404   5.715  0.2752 -0.6100  0.0709
  295MOL    C8735955   4.511   6.254   5.687  0.6635 -0.0826 -0.6742
  295MOL    H8835956   4.486   6.474   5.664  0.0232 -2.2395 -1.9054
  295MOL    H8935957   4.647   6.412   5.663  0.6726 -0.4079  0.8199
  295MOL    H9035958   4.588   6.185   5.720 -0.4468 -0.1679  1.8383
  295MOL    H9135959   4.426   6.233   5.753 -0.5968 -1.4453 -2.6672
  295MOL    C9235960   4.475   6.233   5.543  0.4280  0.2650 -0.3520
  295MOL    C9335961   4.459   6.090   5.506 -0.3725  0.3772 -0.4900
  295MOL    H9435962   4.377   6.277   5.526  1.1202  1.9406 -0.1259
  295MOL    H9535963   4.549   6.274   5.474  3.1380 -3.0965  0.4373
  295MOL    H9635964   4.551   6.033   5.523 -0.6742 -0.0847 -0.3852
  295MOL    H9735965   4.401   6.045   5.586 -0.6680  1.5339 -0.0465
  295MOL    C9835966   4.405   6.070   5.368  0.0474 -0.0146  0.1283
  295MOL    C9935967   4.410   5.921   5.328  0.4235 -0.4879  0.4433
  295MOL   H10035968   4.307   6.116   5.354 -1.0110 -1.3695  2.7731
  295MOL   H10135969   4.472   6.123   5.300  1.3031 -0.0340  1.3389
  295MOL   H10235970   4.513   5.888   5.339 -0.1994 -2.6480  0.0208
  295MOL   H10335971   4.354   5.861   5.399 -0.5117  0.7123  0.7368
  295MOL   C10435972   4.363   5.888   5.183  0.0411 -0.4315 -0.9708
  295MOL   C10535973   4.345   5.747   5.156 -0.3842 -0.0609  0.1065
  295MOL   H10635974   4.273   5.946   5.159 -0.4360 -1.0560 -0.7008
  295MOL   H10735975   4.436   5.939   5.120  0.3913 -0.0626 -0.2780
  295MOL   H10835976   4.440   5.695   5.162  0.0396  0.7546  0.5699
  295MOL   H10935977   4.284   5.697   5.231  0.4676 -0.0426  0.8060
  295MOL   C11035978   4.286   5.721   5.017  0.6343 -0.2296 -0.3485
  295MOL   C11135979   4.280   5.572   5.002  0.0046  0.1311 -0.8571
  295MOL   H11235980   4.182   5.754   5.014 -0.6450 -4.0134 -0.4559
  295MOL   H11335981   4.351   5.771   4.946  0.1146  0.3438 -0.4270
  295MOL   H11435982   4.380   5.530   5.009 -0.9461 -1.8245  1.7151
  295MOL   H11535983   4.214   5.528   5.077 -1.5204  1.1037 -1.6177
  295MOL   C11635984   4.221   5.537   4.867 -0.2971 -0.3068  0.5257
  295MOL   C11735985   4.201   5.383   4.845  0.0064 -0.3669 -0.1218
  295MOL   H11835986   4.121   5.581   4.868  0.1164  0.6274  2.2398
  295MOL   H11935987   4.272   5.573   4.777 -1.5800 -1.9890 -0.9227
  295MOL   H12035988   4.142   5.365   4.755  0.2213 -0.0024 -0.3379
  295MOL   H12135989   4.295   5.327   4.840 -0.8310 -1.6779 -1.6147
  295MOL   H12235990   4.154   5.348   4.936  0.4636 -0.9113 -0.0885
  296MOL     C135991   6.136   6.492   5.411  0.0646 -0.4690 -0.1840
  296MOL     C235992   6.173   6.377   5.506 -0.2105  0.0784  0.3274
  296MOL     H335993   6.057   6.466   5.341 -1.0152  1.1055  0.4254
  296MOL     H435994   6.220   6.528   5.351  2.0922 -1.5110  1.9266
  296MOL     H535995   6.090   6.350   5.571 -0.2232  0.6193  0.5364
  296MOL     H635996   6.202   6.293   5.442 -1.3797  2.2214 -3.1605
  296MOL     H735997   6.103   6.568   5.482 -1.6066 -1.1226 -0.2412
  296MOL     C835998   6.294   6.411   5.606 -0.2004  0.4157 -0.1817
  296MOL     C935999   6.429   6.439   5.534 -0.0339  0.1226  0.5068
  296MOL    H1036000   6.269   6.498   5.667  0.8436  0.2987  0.4149
  296MOL    H1136001   6.312   6.328   5.674  0.9442  0.7617 -0.0589
  296MOL    H1236002   6.453   6.345   5.484  1.0420 -0.1361  1.4941
  296MOL    H1336003   6.426   6.519   5.459  1.6419 -0.3645 -0.1037
  296MOL    C1436004   6.540   6.480   5.646  0.4140  0.7450  0.5293
  296MOL    C1536005   6.674   6.507   5.581 -0.3429  0.3056 -0.1807
  296MOL    H1636006   6.497   6.566   5.697 -0.2904 -0.3352  1.8234
  296MOL    H1736007   6.550   6.393   5.711 -0.4545  0.0585 -0.2333
  296MOL    H1836008   6.695   6.418   5.522 -0.1391 -0.5876  1.2224
  296MOL    H1936009   6.665   6.592   5.514 -2.0950  1.2389  1.1945
  296MOL    C2036010   6.789   6.530   5.682 -0.5214  0.2891 -0.4325
  296MOL    C2136011   6.937   6.505   5.631 -0.1322  0.3399  0.0721
  296MOL    H2236012   6.772   6.635   5.706  0.7951  0.5670 -0.6793
  296MOL    H2336013   6.770   6.466   5.768 -1.1088  0.3999 -0.4784
  296MOL    H2436014   6.953   6.403   5.598  0.2376  0.0004  1.2762
  296MOL    H2536015   6.952   6.573   5.548  0.1074  0.0006 -0.1623
  296MOL    C2636016   7.050   6.540   5.743 -0.6498 -0.2564  0.5197
  296MOL    C2736017   7.186   6.529   5.681  0.5217  0.0387 -0.0715
  296MOL    H2836018   7.049   6.643   5.777  2.2555  0.2122 -0.6250
  296MOL    H2936019   7.050   6.488   5.839  1.5394  0.2882  0.8616
  296MOL    H3036020   7.208   6.426   5.652 -0.8799 -0.1675 -0.4253
  296MOL    H3136021   7.197   6.592   5.593 -0.5901 -1.2218 -1.1218
  296MOL    C3236022   7.293   6.578   5.783 -0.4632  0.4544 -0.3740
  296MOL    C3336023   7.433   6.599   5.726  0.4767  0.4060  0.5145
  296MOL    H3436024   7.271   6.674   5.831  1.7198  1.5169 -1.4248
  296MOL    H3536025   7.304   6.500   5.858  2.8285 -0.4737 -1.7572
  296MOL    H3636026   7.467   6.510   5.673  0.8967  0.4241  0.7532
  296MOL    H3736027   7.424   6.677   5.651  1.7524 -0.8341 -0.9404
  296MOL    C3836028   7.536   6.644   5.837  0.4531 -0.1597 -0.8729
  296MOL    C3936029   7.667   6.687   5.770  0.2692 -0.1670  0.0417
  296MOL    H4036030   7.497   6.731   5.889  0.3565 -0.4059 -0.5353
  296MOL    H4136031   7.551   6.567   5.912  0.6561 -1.1836 -1.9403
  296MOL    H4236032   0.012   6.600   5.714  0.3006  0.6861 -1.2799
  296MOL    H4336033   7.630   6.755   5.694 -0.5475  0.3697  0.9090
  296MOL    C4436034   0.072   6.753   5.869  0.4932  0.5246 -0.1921
  296MOL    C4536035   0.216   6.759   5.799  0.5974 -0.6138  0.4303
  296MOL    H4636036   0.034   6.848   5.905 -0.8391 -0.7612  1.9130
  296MOL    H4736037   0.079   6.690   5.957 -0.8718  1.6097  0.7128
  296MOL    H4836038   0.249   6.658   5.772 -0.9442 -1.3495  1.2882
  296MOL    H4936039   0.206   6.818   5.708  1.1994 -3.4667 -1.5857
  296MOL    C5036040   0.312   6.817   5.900 -0.1879  0.4006 -0.2515
  296MOL    C5136041   0.458   6.819   5.857 -0.3551 -0.3404  0.6242
  296MOL    H5236042   0.275   6.916   5.929 -0.5353  0.3798 -0.6177
  296MOL    H5336043   0.293   6.760   5.991 -0.9921  0.9728 -0.0417
  296MOL    H5436044   0.483   6.731   5.797  0.7382  1.2271 -1.3062
  296MOL    H5536045   0.481   6.892   5.779  0.9186 -0.9784  0.3956
  296MOL    C5636046   0.552   6.861   5.978 -0.9233  0.7664 -0.1896
  296MOL    C5736047   0.697   6.900   5.937 -0.4041 -0.0091 -0.4013
  296MOL    H5836048   0.520   6.937   6.049 -1.8112 -0.1988  0.4682
  296MOL    H5936049   0.549   6.772   6.040 -1.9738  1.1843  0.3759
  296MOL    H6036050   0.745   6.818   5.884 -0.7374 -0.0050 -0.7055
  296MOL    H6136051   0.687   6.986   5.871 -2.5725  0.1084  0.0517
  296MOL    C6236052   0.781   6.944   6.063  0.1474  0.2333  0.2650
  296MOL    C6336053   0.928   6.970   6.028  0.1412  0.4450  0.1326
  296MOL    H6436054   0.742   7.035   6.110  0.7274 -0.0989  1.4239
  296MOL    H6536055   0.772   6.857   6.128 -1.5040 -1.9827 -2.7996
  296MOL    H6636056   0.967   6.882   5.975 -0.2065  0.5899 -0.3637
  296MOL    H6736057   0.923   7.052   5.957 -2.4239 -0.6144 -0.9623
  296MOL    C6836058   1.021   6.985   6.152 -0.6628 -0.1874  0.0923
  296MOL    C6936059   1.133   7.092   6.146 -0.5917 -0.5584 -0.4270
  296MOL    H7036060   0.955   7.015   6.233 -1.0300 -3.1598  0.9760
  296MOL    H7136061   1.043   6.882   6.181 -3.1369 -0.7579  0.0593
  296MOL    H7236062   1.204   7.089   6.229 -0.4129 -1.8074 -0.6185
  296MOL    H7336063   1.196   7.058   6.063  1.8414  2.3813  0.0770
  296MOL    C7436064   1.086   7.234   6.108 -0.2324  0.3230 -0.5471
  296MOL    C7536065   1.021   7.314   6.216 -0.4751  0.2619 -0.4227
  296MOL    H7636066   1.173   7.294   6.081  0.0172  0.2832  0.1629
  296MOL    H7736067   1.018   7.226   6.023 -0.7814  0.5647 -0.1360
  296MOL    H7836068   0.957   7.250   6.277 -0.3516  0.4185 -0.1278
  296MOL    H7936069   1.106   7.331   6.282 -0.8234 -1.5933  0.5494
  296MOL    C8036070   0.944   7.441   6.160 -0.4149 -0.6768 -0.1607
  296MOL    C8136071   0.910   7.527   6.281 -0.4004 -0.8279  0.8754
  296MOL    H8236072   1.015   7.494   6.096 -0.7437 -0.8237 -0.6498
  296MOL    H8336073   0.860   7.407   6.100 -0.2981 -2.7362  0.7984
  296MOL    H8436074   0.860   7.461   6.353 -1.1379 -0.4720  0.6954
  296MOL    H8536075   0.998   7.564   6.334 -0.5061 -0.4616  0.7960
  296MOL    C8636076   0.824   7.653   6.270 -0.3320 -0.1812 -0.0998
  296MOL    C8736077   0.791   0.028   6.405 -0.0660  0.0594 -0.1237
  296MOL    H8836078   0.883   0.036   6.217  0.6128  0.4947  1.8498
  296MOL    H8936079   0.731   7.630   6.219  0.2374  1.7299 -2.1041
  296MOL    H9036080   0.726   7.655   6.465 -1.3655 -0.0807 -1.6492
  296MOL    H9136081   0.889   0.039   6.451  1.3124 -0.9941 -2.7220
  296MOL    C9236082   0.734   0.173   6.395 -0.2714  0.2601 -0.1273
  296MOL    C9336083   0.739   0.239   6.534  0.2746  0.3968 -0.5682
  296MOL    H9436084   0.791   0.234   6.325 -0.3044 -0.4820 -0.8073
  296MOL    H9536085   0.632   0.171   6.358  0.8672 -0.4955 -3.3609
  296MOL    H9636086   0.679   0.192   6.612  2.2426  0.1934  0.8651
  296MOL    H9736087   0.843   0.234   6.568 -0.6406  0.5825  2.3321
  296MOL    C9836088   0.712   0.387   6.536 -0.8997 -0.6259  0.7302
  296MOL    C9936089   0.747   0.452   6.674 -0.6123 -0.1366  0.0989
  296MOL   H10036090   0.775   0.426   6.457 -0.8136 -0.6845  0.7706
  296MOL   H10136091   0.607   0.410   6.519 -0.5002  0.9620  0.3517
  296MOL   H10236092   0.712   0.393   6.759 -2.1854 -1.2397 -1.2927
  296MOL   H10336093   0.855   0.449   6.682 -0.6116 -2.8178 -0.5272
  296MOL   C10436094   0.698   0.603   6.692 -0.8619  0.0847 -0.6947
  296MOL   C10536095   0.777   0.691   6.786 -0.3791  0.4124 -0.4969
  296MOL   H10636096   0.688   0.642   6.591  0.7691 -0.6578 -1.1626
  296MOL   H10736097   0.597   0.593   6.729 -1.3292  1.9920 -1.3832
  296MOL   H10836098   0.770   0.653   6.888  1.1280 -0.8902 -0.8550
  296MOL   H10936099   0.883   0.695   6.760 -0.1662 -1.0126  0.0891
  296MOL   C11036100   0.713   0.838   6.779 -0.9302  0.5305 -0.0302
  296MOL   C11136101   0.746   0.925   6.896 -0.1937 -0.2917 -0.1231
  296MOL   H11236102   0.748   0.884   6.686  4.4972  0.4279  1.7585
  296MOL   H11336103   0.605   0.834   6.767 -0.8418  0.2767 -0.7823
  296MOL   H11436104   0.679   1.011   6.894 -1.3189 -1.1562  0.0366
  296MOL   H11536105   0.734   0.871   6.990 -1.8105  1.5760  0.7820
  296MOL   C11636106   0.895   0.965   6.896  0.2566  0.0647 -0.2992
  296MOL   C11736107   0.927   1.074   6.997 -0.0155 -0.1101  0.2982
  296MOL   H11836108   0.963   0.881   6.906 -0.4363 -0.3825  0.6823
  296MOL   H11936109   0.917   1.003   6.796 -1.7823 -0.1614 -0.8562
  296MOL   H12036110   1.013   1.135   6.968  0.6220 -1.1575 -0.0327
  296MOL   H12136111   0.838   1.135   7.017 -0.2157 -0.5345  0.7084
  296MOL   H12236112   0.953   1.035   7.096 -1.1801  0.0423  0.6814
  297MOL     C136113   5.966   4.110   0.068 -0.3006 -0.3963 -0.0357
  297MOL     C236114   5.930   4.005   0.166  1.2359  0.5332  0.8220
  297MOL     H336115   6.073   4.126   0.056 -0.5163  0.3681 -1.0886
  297MOL     H436116   5.933   4.211   0.094 -2.1243 -0.8330 -0.5792
  297MOL     H536117   5.833   3.966   0.135  1.1423  2.8187 -1.8558
  297MOL     H636118   6.000   3.923   0.147 -0.3928 -0.9007  0.8347
  297MOL     H736119   5.917   4.095   7.664  0.8045  3.3158 -1.2862
  297MOL     C836120   5.935   4.043   0.316 -0.4496  0.5232 -0.1582
  297MOL     C936121   5.939   3.938   0.426 -0.2443 -0.6452  0.1585
  297MOL    H1036122   6.019   4.112   0.322 -2.1882  2.9662 -2.5827
  297MOL    H1136123   5.843   4.098   0.333 -0.1190  0.4631  1.9062
  297MOL    H1236124   5.852   3.873   0.422  0.6552 -1.7843 -1.5715
  297MOL    H1336125   6.025   3.872   0.415  0.4458  0.1014  1.0345
  297MOL    C1436126   5.941   4.012   0.562  0.6420  0.6864  0.2354
  297MOL    C1536127   5.960   3.923   0.686 -0.3659 -0.7488 -0.1904
  297MOL    H1636128   6.023   4.083   0.553  0.2408  1.3411  1.6542
  297MOL    H1736129   5.853   4.074   0.582 -0.6179 -0.9467 -0.1216
  297MOL    H1836130   5.874   3.858   0.701 -0.1943 -1.1029 -0.7182
  297MOL    H1936131   6.055   3.870   0.675 -1.4787 -2.1725 -3.6609
  297MOL    C2036132   5.978   4.014   0.805 -0.9011  0.0235 -0.0904
  297MOL    C2136133   6.009   3.938   0.933  0.1498  0.1856 -0.2005
  297MOL    H2236134   6.058   4.083   0.778 -1.8027  0.5611 -1.4167
  297MOL    H2336135   5.891   4.077   0.824  0.3259  1.2961  1.4354
  297MOL    H2436136   5.937   3.857   0.944  0.0091 -0.0517 -2.5539
  297MOL    H2536137   6.103   3.887   0.912 -0.1072 -1.7485  3.0588
  297MOL    C2636138   6.003   4.037   1.060  0.1751 -0.0093  1.1709
  297MOL    C2736139   6.063   3.968   1.175 -0.4243  0.3124  0.3106
  297MOL    H2836140   6.059   4.128   1.042 -0.9781  0.4799 -0.0022
  297MOL    H2936141   5.898   4.064   1.074  0.5682  1.5273  1.2122
  297MOL    H3036142   6.003   3.880   1.197  0.0384 -0.1964 -0.4585
  297MOL    H3136143   6.166   3.938   1.162 -0.6373 -0.8800  1.2567
  297MOL    C3236144   6.053   4.058   1.303  0.1840 -0.3768 -0.3479
  297MOL    C3336145   6.089   3.980   1.432 -0.3171  0.1959  0.4851
  297MOL    H3436146   6.125   4.139   1.292  3.4078 -2.4246  4.2442
  297MOL    H3536147   5.951   4.097   1.311 -0.5157 -1.9474 -1.4778
  297MOL    H3636148   6.028   3.890   1.432 -2.8806  1.8734 -0.9410
  297MOL    H3736149   6.188   3.940   1.413 -0.7184 -0.5362 -0.1020
  297MOL    C3836150   6.061   4.061   1.556  0.3354 -0.0860  0.2964
  297MOL    C3936151   6.098   3.986   1.679  0.2795  0.2999 -0.1841
  297MOL    H4036152   6.117   4.154   1.546 -0.0947  0.0384 -1.0719
  297MOL    H4136153   5.956   4.087   1.553 -0.0617 -1.5999  0.5045
  297MOL    H4236154   6.028   3.906   1.704  2.8996 -1.4192  1.9354
  297MOL    H4336155   6.198   3.944   1.666 -0.4767 -1.8343  0.6827
  297MOL    C4436156   6.094   4.076   1.806 -0.6187 -0.8861  0.3928
  297MOL    C4536157   6.122   4.006   1.939 -0.1943 -0.3297  0.3440
  297MOL    H4636158   6.176   4.147   1.788 -1.4486 -0.1870 -0.7458
  297MOL    H4736159   6.011   4.144   1.826 -1.0107 -1.0820 -0.5314
  297MOL    H4836160   6.032   3.946   1.955  0.9897 -2.2612 -0.1177
  297MOL    H4936161   6.210   3.944   1.922  0.3654  0.4706  0.3364
  297MOL    C5036162   6.146   4.101   2.059  0.5532  0.2429  0.0040
  297MOL    C5136163   6.287   4.166   2.070 -0.1825  0.2085  0.2407
  297MOL    H5236164   6.065   4.171   2.083 -0.0228 -0.6775  0.7574
  297MOL    H5336165   6.156   4.028   2.139 -0.0452 -0.5014 -0.5948
  297MOL    H5436166   6.355   4.084   2.092  1.0962  0.5256 -2.2200
  297MOL    H5536167   6.309   4.206   1.970 -0.8203  0.8224  0.3415
  297MOL    C5636168   6.294   4.282   2.164 -0.3351  0.4447  0.3313
  297MOL    C5736169   6.417   4.372   2.163  0.1839 -0.5436  0.6436
  297MOL    H5836170   6.205   4.345   2.162  1.0004  2.3620  0.2077
  297MOL    H5936171   6.305   4.241   2.265  3.5911  1.0859  0.2483
  297MOL    H6036172   6.425   4.437   2.251  0.1763  2.9968 -1.8866
  297MOL    H6136173   6.503   4.306   2.160  0.4569 -0.2490  1.7580
  297MOL    C6236174   6.440   4.457   2.039  0.2297  0.4011  0.1826
  297MOL    C6336175   6.576   4.523   2.027 -0.4446 -0.0332  0.2551
  297MOL    H6436176   6.437   4.401   1.946  3.9918  0.1451  0.1305
  297MOL    H6536177   6.359   4.530   2.045 -0.9162 -0.6737 -1.8033
  297MOL    H6636178   6.616   4.566   2.119  0.7654 -0.1702 -0.1923
  297MOL    H6736179   6.650   4.444   2.015  0.0351  0.4748 -0.1478
  297MOL    C6836180   6.596   4.620   1.906 -0.6679 -0.3429 -0.2926
  297MOL    C6936181   6.729   4.702   1.928  0.3461 -0.6478  0.4662
  297MOL    H7036182   6.600   4.565   1.811  3.8695  0.3035 -0.5644
  297MOL    H7136183   6.511   4.686   1.892 -0.8684 -0.5640 -0.1243
  297MOL    H7236184   6.719   4.752   2.024 -0.5518  1.6276 -0.7624
  297MOL    H7336185   6.819   4.642   1.940  1.0308  0.1751 -0.4333
  297MOL    C7436186   6.769   4.813   1.823 -0.8300  0.5924  0.1228
  297MOL    C7536187   6.909   4.872   1.844 -0.2252 -0.3894 -0.0789
  297MOL    H7636188   6.751   4.771   1.724 -0.8122 -0.0910  0.4094
  297MOL    H7736189   6.692   4.890   1.833 -3.9375 -2.4210  0.0409
  297MOL    H7836190   6.926   4.919   1.941  0.1451  0.8392 -0.7225
  297MOL    H7936191   6.977   4.787   1.844 -1.9419 -1.7937  1.3786
  297MOL    C8036192   6.959   4.965   1.728  0.4954 -0.6864  0.5676
  297MOL    C8136193   7.109   4.997   1.745 -0.2334 -0.8079  0.1625
  297MOL    H8236194   6.923   4.922   1.634 -1.2632 -2.3765  1.9649
  297MOL    H8336195   6.914   5.061   1.749 -0.0036 -0.6248 -0.7077
  297MOL    H8436196   7.114   5.023   1.851 -0.6168 -1.6991  0.4053
  297MOL    H8536197   7.164   4.903   1.746 -0.3909 -0.8952  0.9174
  297MOL    C8636198   7.185   5.103   1.665  0.3522  0.6643 -0.9503
  297MOL    C8736199   7.326   5.102   1.717 -0.9171 -0.4033 -0.1517
  297MOL    H8836200   7.180   5.085   1.557 -0.4600 -0.6433 -0.7040
  297MOL    H8936201   7.129   5.193   1.690 -1.4419 -1.0410  1.3627
  297MOL    H9036202   7.327   5.085   1.824 -0.6691  0.8982  0.0535
  297MOL    H9136203   7.388   5.025   1.671  0.9888  0.9442  0.1040
  297MOL    C9236204   7.389   5.240   1.696  0.5398 -0.3038  0.0724
  297MOL    C9336205   7.541   5.255   1.736  0.0206 -0.2111  0.4078
  297MOL    H9436206   7.375   5.270   1.592 -1.4959  0.9767  0.6853
  297MOL    H9536207   7.336   5.314   1.756  0.1539  0.6609 -1.4286
  297MOL    H9636208   7.558   5.242   1.843 -0.2369  1.1631  0.6196
  297MOL    H9736209   7.600   5.178   1.686  0.9296  1.6166 -1.4337
  297MOL    C9836210   7.595   5.396   1.694  1.0792  0.5894 -0.4111
  297MOL    C9936211   0.044   5.423   1.741 -0.0007  0.0718  0.8076
  297MOL   H10036212   7.572   5.410   1.588  0.0508 -0.4880 -0.3429
  297MOL   H10136213   7.529   5.468   1.741  1.6248 -1.2211  3.2936
  297MOL   H10236214   0.054   5.392   1.846  1.8582 -2.3208 -0.0308
  297MOL   H10336215   0.109   5.351   1.691 -0.7185  0.9954 -1.5128
  297MOL   C10436216   0.090   5.564   1.703  0.6028  0.1117 -0.2793
  297MOL   C10536217   0.233   5.582   1.753  0.6744  0.0449 -0.6776
  297MOL   H10636218   0.087   5.582   1.595 -0.2377 -0.2418 -0.3243
  297MOL   H10736219   0.022   5.636   1.747  1.1511 -0.7329  2.0069
  297MOL   H10836220   0.228   5.556   1.859  1.3389 -1.5412 -1.0168
  297MOL   H10936221   0.289   5.509   1.695  2.3571 -0.2932  1.3381
  297MOL   C11036222   0.300   5.717   1.743 -0.3578 -0.2755  0.1262
  297MOL   C11136223   0.428   5.737   1.827 -0.0524 -0.5296  0.1608
  297MOL   H11236224   0.310   5.751   1.641 -0.3589 -1.5321 -0.3032
  297MOL   H11336225   0.229   5.778   1.800  0.6833  2.2668 -1.2380
  297MOL   H11436226   0.426   5.672   1.915  0.5574  0.7030  1.0917
  297MOL   H11536227   0.516   5.704   1.771 -0.0655 -2.4067  1.1825
  297MOL   C11636228   0.447   5.887   1.866 -0.3119 -0.3630 -0.7819
  297MOL   C11736229   0.559   5.916   1.971 -0.2334 -0.1164 -0.5415
  297MOL   H11836230   0.471   5.938   1.772 -1.6215  1.5321 -0.1005
  297MOL   H11936231   0.350   5.930   1.892  0.1195  0.2562 -0.1779
  297MOL   H12036232   0.549   6.025   1.972  0.0855 -0.0679 -2.1351
  297MOL   H12136233   0.551   5.868   2.068 -0.3986  0.2746 -0.3572
  297MOL   H12236234   0.660   5.895   1.937 -0.6782 -2.4798 -0.4965
  298MOL     C136235   5.022   3.063   1.341 -0.8797 -0.7040  0.6653
  298MOL     C236236   4.917   2.998   1.242 -0.0110  0.3759 -0.3596
  298MOL     H336237   5.016   3.171   1.346 -1.7426 -0.5732 -2.2100
  298MOL     H436238   5.130   3.049   1.331 -0.7997  1.1937 -1.4837
  298MOL     H536239   4.951   3.019   1.140  2.7967 -0.8312  0.2755
  298MOL     H636240   4.924   2.889   1.252 -0.7958  0.4275  0.7569
  298MOL     H736241   5.007   3.025   1.442  0.5244 -2.7180  0.1517
  298MOL     C836242   4.772   3.052   1.255 -0.0669  0.6758 -0.0859
  298MOL     C936243   4.670   3.007   1.145  0.1561 -0.3586  0.2804
  298MOL    H1036244   4.733   3.018   1.351 -0.5952  2.7036  0.4310
  298MOL    H1136245   4.782   3.160   1.264  2.0193  0.4978 -0.0244
  298MOL    H1236246   4.716   2.933   1.081  1.1675  2.7475 -2.7395
  298MOL    H1336247   4.586   2.957   1.195 -0.1036  1.1510  1.4163
  298MOL    C1436248   4.623   3.130   1.059  0.2105  0.3932 -0.4006
  298MOL    C1536249   4.513   3.086   0.966 -0.2014 -0.3126 -0.0673
  298MOL    H1636250   4.593   3.215   1.121 -1.1625  0.3855 -1.0507
  298MOL    H1736251   4.700   3.175   0.997  0.8382  3.3674  2.3507
  298MOL    H1836252   4.547   3.002   0.905  1.9568 -0.8317  1.7818
  298MOL    H1936253   4.443   3.035   1.031  0.3889 -0.9391  0.0854
  298MOL    C2036254   4.443   3.188   0.878 -0.3479  0.0496 -0.4668
  298MOL    C2136255   4.360   3.128   0.760 -0.1549  0.2101 -0.3955
  298MOL    H2236256   4.391   3.252   0.949  0.3467 -1.0431  1.0692
  298MOL    H2336257   4.519   3.256   0.840  0.2297 -0.7634 -0.7948
  298MOL    H2436258   4.417   3.062   0.694  0.5260  1.3705 -0.9641
  298MOL    H2536259   4.283   3.062   0.800 -0.3557 -0.1667 -1.3841
  298MOL    C2636260   4.288   3.231   0.679  0.1160 -0.3094  0.9581
  298MOL    C2736261   4.206   3.172   0.562  0.5184 -0.1228 -0.0603
  298MOL    H2836262   4.224   3.300   0.734 -0.4265 -0.0198 -0.0176
  298MOL    H2936263   4.356   3.303   0.635 -0.6875 -0.5737 -0.7619
  298MOL    H3036264   4.273   3.111   0.502  1.5852  1.6379 -0.7022
  298MOL    H3136265   4.119   3.108   0.579  1.5119 -1.0075  1.7907
  298MOL    C3236266   4.144   3.284   0.471  0.3815 -0.2361  0.6376
  298MOL    C3336267   4.070   3.233   0.339  0.3180 -0.3464  0.8085
  298MOL    H3436268   4.071   3.342   0.530 -0.3636 -1.0282  0.5069
  298MOL    H3536269   4.215   3.359   0.438  0.1484  0.1417  0.9791
  298MOL    H3636270   4.131   3.156   0.292 -0.6926 -1.5387  1.4304
  298MOL    H3736271   3.984   3.174   0.369  0.1077 -0.6338 -0.3426
  298MOL    C3836272   4.042   3.342   0.232 -0.4300 -0.0352 -0.3390
  298MOL    C3936273   3.978   3.279   0.111  0.3934  0.3393  0.4297
  298MOL    H4036274   3.987   3.427   0.273 -0.5309  0.3263 -1.2162
  298MOL    H4136275   4.136   3.385   0.199 -0.1964  0.0466  0.4115
  298MOL    H4236276   4.022   3.181   0.093  0.2573  0.4866 -0.7280
  298MOL    H4336277   3.871   3.269   0.132 -0.1520  2.7223 -0.9973
  298MOL    C4436278   3.999   3.362   7.677  0.3284 -0.3029  0.7035
  298MOL    C4536279   3.924   3.317   7.549 -0.1455  0.4946  0.2351
  298MOL    H4636280   3.967   3.462   0.012  0.5976  0.6602 -2.3935
  298MOL    H4736281   4.104   3.377   7.655 -0.1364 -1.1877 -2.3689
  298MOL    H4836282   3.950   3.376   7.461 -1.1754 -0.0612 -0.4434
  298MOL    H4936283   3.953   3.213   7.531  0.2671  0.3619  1.5517
  298MOL    C5036284   3.769   3.338   7.568 -0.0865  0.0527  0.1309
  298MOL    C5136285   3.689   3.264   7.456  0.3531 -0.1866 -0.3069
  298MOL    H5236286   3.730   3.300   7.662 -0.6416  1.7320  0.6020
  298MOL    H5336287   3.755   3.446   7.565 -0.7393 -0.0572 -0.7697
  298MOL    H5436288   3.730   3.166   7.433  1.9273 -0.1811  2.3251
  298MOL    H5536289   3.585   3.252   7.487  1.5472  1.9082  5.1812
  298MOL    C5636290   3.691   3.341   7.327  0.5608 -0.4096 -0.1994
  298MOL    C5736291   3.616   3.266   7.213  0.2363 -0.5519  0.3914
  298MOL    H5836292   3.648   3.439   7.348  0.9788 -0.5437  1.3193
  298MOL    H5936293   3.799   3.350   7.316  0.7410 -0.5708  1.3259
  298MOL    H6036294   3.661   3.169   7.193  1.2575  0.0890 -0.4983
  298MOL    H6136295   3.518   3.231   7.247  0.8919 -1.5359  1.3023
  298MOL    C6236296   3.612   3.339   7.079  0.3119 -0.4255  0.4444
  298MOL    C6336297   3.559   3.254   6.964 -0.6211  0.1294  0.0314
  298MOL    H6436298   3.565   3.434   7.101  0.7099 -0.3587  1.0340
  298MOL    H6536299   3.714   3.365   7.052  1.4072 -2.7010  2.1246
  298MOL    H6636300   3.597   3.302   6.873  1.0566  0.5508  0.9467
  298MOL    H6736301   3.617   3.162   6.954  0.0583  0.4202  1.2916
  298MOL    C6836302   3.411   3.249   6.939 -0.4523 -0.8111  0.6315
  298MOL    C6936303   3.376   3.178   6.807  0.6202  0.1992 -0.0495
  298MOL    H7036304   3.362   3.202   7.025  0.0547 -1.9095  0.3241
  298MOL    H7136305   3.359   3.345   6.948 -0.1385 -0.6951  1.2671
  298MOL    H7236306   3.392   3.242   6.720 -0.0170 -1.5921 -1.5382
  298MOL    H7336307   3.443   3.097   6.776 -0.2868  0.4814 -2.9776
  298MOL    C7436308   3.237   3.133   6.802  0.5802 -0.3079 -0.1889
  298MOL    C7536309   3.200   3.005   6.707 -0.7338  0.1192  0.1972
  298MOL    H7636310   3.188   3.112   6.897 -2.6667  2.3069 -1.2098
  298MOL    H7736311   3.183   3.221   6.767  1.6383  0.1484 -0.6897
  298MOL    H7836312   3.250   3.011   6.610 -0.6169 -0.1625  0.2410
  298MOL    H7936313   3.249   2.923   6.759  0.4358  1.8492  1.8989
  298MOL    C8036314   3.055   2.967   6.694  0.1573 -0.1815 -0.2662
  298MOL    C8136315   3.027   2.834   6.616 -0.3418 -0.1017 -0.4705
  298MOL    H8236316   3.019   2.954   6.796  0.4607  1.8983  0.1264
  298MOL    H8336317   3.000   3.053   6.656  0.5553 -0.2846 -1.0773
  298MOL    H8436318   3.007   2.853   6.510 -0.4940 -3.3207 -1.0773
  298MOL    H8536319   3.107   2.760   6.622 -1.5547 -1.4086  0.0606
  298MOL    C8636320   2.898   2.766   6.661 -0.5217 -0.4095 -0.2719
  298MOL    C8736321   2.860   2.641   6.583 -0.9729  0.2342  0.0714
  298MOL    H8836322   2.910   2.725   6.761  0.7147 -1.0121 -0.6583
  298MOL    H8936323   2.811   2.833   6.657  0.5143  1.0985  1.7759
  298MOL    H9036324   2.856   2.676   6.480 -1.8791  0.4351  0.1760
  298MOL    H9136325   2.942   2.568   6.581  0.3278  1.6838 -2.3660
  298MOL    C9236326   2.727   2.589   6.628 -0.0694 -0.8715 -0.0493
  298MOL    C9336327   2.682   2.468   6.545  0.2488  0.5498  0.5777
  298MOL    H9436328   2.722   2.561   6.733 -1.0937 -0.3424  0.0538
  298MOL    H9536329   2.655   2.669   6.613 -1.2036 -2.0619 -1.1028
  298MOL    H9636330   2.679   2.504   6.442 -0.6697 -1.4696 -0.1291
  298MOL    H9736331   2.765   2.397   6.545  1.0020  1.4223 -0.0908
  298MOL    C9836332   2.552   2.402   6.590 -0.1368  0.4636 -0.2820
  298MOL    C9936333   2.526   2.259   6.534 -0.3624  0.3307  0.4478
  298MOL   H10036334   2.559   2.376   6.695 -0.2720 -0.4507 -0.4914
  298MOL   H10136335   2.462   2.465   6.589 -0.7512 -0.3942 -1.5926
  298MOL   H10236336   2.497   2.265   6.429  1.0466  0.6082  0.0648
  298MOL   H10336337   2.621   2.207   6.520 -1.4420 -1.4759 -0.4017
  298MOL   C10436338   2.423   2.173   6.607 -0.3936 -0.2905 -0.5807
  298MOL   C10536339   2.392   2.032   6.542 -0.2620  0.0210  0.4036
  298MOL   H10636340   2.465   2.164   6.707  1.7791 -3.5451 -1.6998
  298MOL   H10736341   2.333   2.233   6.624  0.9159  0.9039  2.3983
  298MOL   H10836342   2.370   2.033   6.435 -1.4809 -0.8246  0.6453
  298MOL   H10936343   2.477   1.967   6.563  0.2336  0.7800  0.7629
  298MOL   C11036344   2.268   1.956   6.603  0.3228 -0.2680  0.7151
  298MOL   C11136345   2.288   1.906   6.742  0.1612  0.2645  0.2791
  298MOL   H11236346   2.183   2.025   6.609  1.1076  0.9552 -1.4304
  298MOL   H11336347   2.243   1.866   6.548 -2.5341  1.3852 -0.8651
  298MOL   H11436348   2.351   1.818   6.733 -0.3912  0.0694 -1.9406
  298MOL   H11536349   2.337   1.975   6.811  1.2564 -0.9950  0.7873
  298MOL   C11636350   2.159   1.847   6.796 -0.9994  0.2700  0.4365
  298MOL   C11736351   2.161   1.755   6.910  0.7602  0.2758 -0.4023
  298MOL   H11836352   2.097   1.934   6.822 -3.9576 -1.1287 -1.6258
  298MOL   H11936353   2.106   1.794   6.718  0.4887 -1.7531  0.7816
  298MOL   H12036354   2.208   1.812   6.991  0.5758 -0.2757  0.0979
  298MOL   H12136355   2.063   1.730   6.951  1.2278 -0.6160  0.1884
  298MOL   H12236356   2.204   1.660   6.881 -2.1462 -1.1084 -0.3351
  299MOL     C136357   0.008   4.031   3.921 -0.9236 -0.1880 -0.4307
  299MOL     C236358   0.079   4.160   3.933  0.1154  0.5120  0.4733
  299MOL     H336359   0.074   3.945   3.932  0.8342  1.4834  2.8308
  299MOL     H436360   7.656   4.021   3.822  0.6718  1.7338 -1.3657
  299MOL     H536361   0.139   4.159   4.024  0.4929  0.4603  0.2260
  299MOL     H636362   0.148   4.171   3.849  2.2128 -0.8876  1.9630
  299MOL     H736363   7.626   4.015   4.000 -0.8118 -1.0987 -0.5062
  299MOL     C836364   7.662   4.268   3.919  0.1357 -0.3030 -0.3188
  299MOL     C936365   0.007   4.410   3.948  0.2136 -0.6073 -0.1886
  299MOL    H1036366   7.613   4.276   3.822  0.7356 -0.6855 -0.6583
  299MOL    H1136367   7.583   4.243   3.989  0.7480 -1.1145  0.0955
  299MOL    H1236368   0.096   4.430   3.889  1.0757 -0.4040  1.1499
  299MOL    H1336369   7.619   4.478   3.921 -0.1651 -1.9672 -2.6408
  299MOL    C1436370   0.046   4.429   4.089  0.2656  0.4250 -0.4097
  299MOL    C1536371   0.062   4.574   4.121 -0.8172  0.1702 -0.7615
  299MOL    H1636372   7.673   4.375   4.158  1.7095  1.0289  1.4642
  299MOL    H1736373   0.147   4.389   4.100 -0.1142 -0.3468  0.3545
  299MOL    H1836374   0.111   4.627   4.040 -0.1105  1.3372  0.4139
  299MOL    H1936375   7.657   4.621   4.104 -0.4601  0.4998 -1.9742
  299MOL    C2036376   0.128   4.601   4.259  0.4090  0.0807  0.7868
  299MOL    C2136377   0.138   4.754   4.287  0.6600  0.5048  0.1990
  299MOL    H2236378   0.074   4.554   4.340  0.2031 -1.3002 -0.1351
  299MOL    H2336379   0.227   4.557   4.270  0.0418 -0.3893  2.3099
  299MOL    H2436380   0.220   4.796   4.228 -0.5273  2.4792 -0.0923
  299MOL    H2536381   0.051   4.809   4.251 -0.1864 -2.2492 -2.1286
  299MOL    C2636382   0.157   4.783   4.444 -0.2002  0.5457 -0.2215
  299MOL    C2736383   0.139   4.926   4.487 -0.5870 -0.5837 -0.2730
  299MOL    H2836384   0.088   4.714   4.493  1.6906 -1.2454 -0.0067
  299MOL    H2936385   0.250   4.745   4.485 -0.3471 -0.6067 -0.9442
  299MOL    H3036386   0.188   4.988   4.412 -2.9755  2.9290  0.9483
  299MOL    H3136387   0.037   4.956   4.465 -0.3996 -0.1941 -0.6371
  299MOL    C3236388   0.187   4.952   4.635 -0.1417  0.7997  0.2900
  299MOL    C3336389   0.189   5.104   4.666  0.4192  0.0179 -0.3548
  299MOL    H3436390   0.130   4.901   4.712  1.9689 -1.2665  0.5411
  299MOL    H3536391   0.289   4.916   4.642  0.3247  1.7595 -1.2120
  299MOL    H3636392   0.269   5.146   4.605 -1.3650 -0.6711 -3.2272
  299MOL    H3736393   0.095   5.142   4.628 -0.6947 -2.4292 -0.1852
  299MOL    C3836394   0.216   5.126   4.821 -0.0651 -0.0268  0.1794
  299MOL    C3936395   0.206   5.276   4.858 -0.4940 -0.6138 -0.5213
  299MOL    H4036396   0.144   5.068   4.878  2.3124 -2.5252  0.7736
  299MOL    H4136397   0.316   5.084   4.837 -1.8975 -4.7477 -0.1069
  299MOL    H4236398   0.279   5.335   4.803 -0.9875 -0.8351 -1.4225
  299MOL    H4336399   0.110   5.314   4.823  1.2084  2.4122 -2.1312
  299MOL    C4436400   0.205   5.285   5.013 -0.2055  0.5382 -0.0515
  299MOL    C4536401   0.187   5.424   5.079  0.2575  0.2949 -0.0248
  299MOL    H4636402   0.118   5.225   5.040 -0.7511  0.7886 -1.1987
  299MOL    H4736403   0.297   5.238   5.047  0.6857  1.7942 -0.7005
  299MOL    H4836404   0.259   5.496   5.039  0.8318  0.4177  1.2241
  299MOL    H4936405   0.098   5.467   5.032  1.3213  2.0267 -0.5041
  299MOL    C5036406   0.211   5.425   5.227  0.2026  0.2946  0.5693
  299MOL    C5136407   0.150   5.537   5.311 -0.0619 -0.3083 -0.1041
  299MOL    H5236408   0.174   5.330   5.265  1.2361 -0.3826 -0.0845
  299MOL    H5336409   0.318   5.419   5.247 -0.1713 -1.1202  2.2450
  299MOL    H5436410   0.162   5.636   5.266 -0.8204 -0.3068 -0.3056
  299MOL    H5536411   0.043   5.516   5.307 -0.3769  1.2492 -0.2475
  299MOL    C5636412   0.206   5.539   5.450 -0.1804 -0.5400 -0.0737
  299MOL    C5736413   0.184   5.674   5.518  0.2850 -0.4413 -0.5552
  299MOL    H5836414   0.158   5.459   5.505  0.0340 -2.1868 -2.1949
  299MOL    H5936415   0.314   5.523   5.451  0.0098  0.6998  0.2847
  299MOL    H6036416   0.245   5.749   5.466  1.2410  0.3851  1.6624
  299MOL    H6136417   0.083   5.704   5.491  0.8608  0.3374 -1.9315
  299MOL    C6236418   0.203   5.684   5.674 -0.0508  0.6657 -0.1300
  299MOL    C6336419   0.343   5.676   5.727 -1.5474 -0.0781  0.2759
  299MOL    H6436420   0.168   5.785   5.697 -1.3127  0.5795 -1.6173
  299MOL    H6536421   0.133   5.611   5.712  0.3222  0.7135  0.6585
  299MOL    H6636422   0.407   5.742   5.669 -3.8699  0.8489 -1.2380
  299MOL    H6736423   0.349   5.715   5.829  0.3172 -0.5566  0.3861
  299MOL    C6836424   0.390   5.531   5.738 -0.0474  0.2338 -0.0352
  299MOL    C6936425   0.546   5.518   5.763 -0.0766 -1.1064 -0.3353
  299MOL    H7036426   0.345   5.472   5.817  1.4919 -1.1591 -0.1794
  299MOL    H7136427   0.369   5.487   5.641  2.7637 -1.1759 -0.0635
  299MOL    H7236428   0.569   5.412   5.750 -0.2803 -1.0418 -1.2209
  299MOL    H7336429   0.605   5.555   5.680  1.2082  0.0987  1.0813
  299MOL    C7436430   0.608   5.576   5.894 -0.5325  0.1954  0.2305
  299MOL    C7536431   0.755   5.545   5.902 -0.7955 -0.4362  0.1074
  299MOL    H7636432   0.599   5.684   5.878  1.5130 -0.0266 -2.8808
  299MOL    H7736433   0.551   5.548   5.983  0.4939 -2.5665  0.0575
  299MOL    H7836434   0.814   5.587   5.820 -0.3965 -0.0819  0.5771
  299MOL    H7936435   0.807   5.591   5.986  1.2312  0.9735 -1.8409
  299MOL    C8036436   0.791   5.397   5.894  0.1777  0.1561 -0.6860
  299MOL    C8136437   0.922   5.344   5.959 -0.3267  0.5024  0.3710
  299MOL    H8236438   0.711   5.342   5.944 -2.2951  3.0231 -1.2957
  299MOL    H8336439   0.799   5.369   5.789 -1.1872  0.5464 -0.9140
  299MOL    H8436440   1.015   5.398   5.942 -0.1228 -0.0138 -0.1369
  299MOL    H8536441   0.912   5.368   6.065 -2.1360  1.5134  0.0051
  299MOL    C8636442   0.951   5.195   5.932  0.4984  0.1362  0.5681
  299MOL    C8736443   1.075   5.147   6.002 -0.2398  0.0192  0.0779
  299MOL    H8836444   0.864   5.142   5.971  0.7042 -0.3941  0.3204
  299MOL    H8936445   0.945   5.175   5.825  1.8313  0.6440  0.3881
  299MOL    H9036446   1.162   5.210   5.980 -0.4501 -0.0747 -1.0805
  299MOL    H9136447   1.059   5.163   6.108 -0.0326  0.7592  0.0017
  299MOL    C9236448   1.107   5.005   5.969 -0.1131  0.3773  0.5849
  299MOL    C9336449   1.000   4.904   6.021  0.1768  0.4095  0.6743
  299MOL    H9436450   1.121   5.000   5.861 -1.8310  3.9614  0.1333
  299MOL    H9536451   1.203   4.974   6.010 -0.6719 -2.3849 -0.1040
  299MOL    H9636452   0.978   4.932   6.124  0.7275 -0.5692  1.0602
  299MOL    H9736453   0.906   4.921   5.967  0.6882 -1.1773 -0.7682
  299MOL    C9836454   1.055   4.762   6.013 -0.7532  0.3089  0.6966
  299MOL    C9936455   0.941   4.663   5.974 -1.5006 -1.3707  0.2788
  299MOL   H10036456   1.132   4.755   5.937 -0.1663  2.6633  1.0315
  299MOL   H10136457   1.107   4.742   6.107  0.1914  4.9084  1.2954
  299MOL   H10236458   0.866   4.678   6.051 -1.1518 -1.1569  0.5779
  299MOL   H10336459   0.898   4.707   5.884 -0.1024  1.6103  1.0095
  299MOL   C10436460   0.983   4.520   5.956 -0.4071  0.1368 -0.6681
  299MOL   C10536461   0.860   4.436   5.925  0.0649 -0.5986  0.3193
  299MOL   H10636462   1.060   4.512   5.880  0.5357  2.2230  0.0331
  299MOL   H10736463   1.030   4.490   6.049 -0.5780  0.0556 -0.6086
  299MOL   H10836464   0.787   4.460   6.002  1.3468  2.3338  0.7000
  299MOL   H10936465   0.814   4.477   5.835  1.6665 -0.2987 -0.3735
  299MOL   C11036466   0.898   4.282   5.905 -0.0750  0.0916 -0.0136
  299MOL   C11136467   0.773   4.203   5.873  0.5841 -0.4179  0.1815
  299MOL   H11236468   0.972   4.275   5.825  0.9203  0.0583  0.8912
  299MOL   H11336469   0.945   4.242   5.994  1.5348 -0.6039 -1.1411
  299MOL   H11436470   0.806   4.100   5.879  2.1286  0.0124 -0.7051
  299MOL   H11536471   0.694   4.221   5.947  0.6691 -2.3642  0.7679
  299MOL   C11636472   0.721   4.236   5.727  0.1721  0.0119 -0.2253
  299MOL   C11736473   0.569   4.178   5.713 -0.3482 -0.9798 -0.3514
  299MOL   H11836474   0.715   4.340   5.697  3.3545 -0.2174 -1.8800
  299MOL   H11936475   0.794   4.198   5.655  0.8775  1.7430 -0.4506
  299MOL   H12036476   0.494   4.237   5.766  0.2515  0.0344 -0.6136
  299MOL   H12136477   0.533   4.183   5.610  1.2165 -0.3581 -0.8780
  299MOL   H12236478   0.559   4.073   5.742 -3.0881 -1.0644 -1.5001
  300MOL     C136479   2.889   6.875   2.755 -0.1101 -0.3231 -0.2192
  300MOL     C236480   2.748   6.912   2.763  0.2001 -0.1675 -0.5691
  300MOL     H336481   2.910   6.768   2.756 -1.3992 -0.5868  3.1693
  300MOL     H436482   2.959   6.917   2.827  2.3166 -0.7910 -2.2403
  300MOL     H536483   2.708   6.889   2.862  1.8548  1.2186  0.4517
  300MOL     H636484   2.748   7.021   2.755  1.6128 -0.1194  0.0736
  300MOL     H736485   2.928   6.909   2.659 -0.8942  1.4768  0.0774
  300MOL     C836486   2.669   6.853   2.648  0.2632 -0.5563  0.3018
  300MOL     C936487   2.648   6.700   2.663  0.0552 -0.0327 -0.2344
  300MOL    H1036488   2.569   6.897   2.645  0.7636  0.6771  1.2506
  300MOL    H1136489   2.723   6.886   2.559  2.1859  1.7068  2.2401
  300MOL    H1236490   2.583   6.668   2.582  0.7314 -0.1373 -0.7451
  300MOL    H1336491   2.745   6.650   2.658 -0.5710 -1.2038 -0.6987
  300MOL    C1436492   2.574   6.660   2.795 -0.3059 -0.8043  0.2248
  300MOL    C1536493   2.534   6.516   2.795  0.2662  0.0779 -0.0737
  300MOL    H1636494   2.645   6.683   2.874  0.8372  1.4849 -1.3982
  300MOL    H1736495   2.481   6.714   2.815 -0.3601 -0.6982 -0.3143
  300MOL    H1836496   2.474   6.489   2.708  0.7142 -0.6532 -0.1637
  300MOL    H1936497   2.623   6.452   2.795 -0.4201 -0.8849 -0.6754
  300MOL    C2036498   2.445   6.482   2.923 -0.7406  0.4480  0.1097
  300MOL    C2136499   2.451   6.330   2.953  0.0832  0.3034 -0.3278
  300MOL    H2236500   2.489   6.524   3.014  1.5351 -0.4678 -0.5271
  300MOL    H2336501   2.341   6.514   2.922 -0.4226  1.4847 -0.3782
  300MOL    H2436502   2.425   6.267   2.868 -2.7406  0.0242  0.6942
  300MOL    H2536503   2.557   6.310   2.971  0.1724  0.6933 -0.4114
  300MOL    C2636504   2.358   6.289   3.069 -0.3429 -1.2437  0.0735
  300MOL    C2736505   2.365   6.143   3.110  0.0439  0.0417 -0.1545
  300MOL    H2836506   2.389   6.353   3.151  1.0702 -0.2729 -1.1918
  300MOL    H2936507   2.254   6.316   3.050  0.3054  1.6901  0.4078
  300MOL    H3036508   2.346   6.086   3.019  0.7830  0.6376 -0.6833
  300MOL    H3136509   2.470   6.129   3.136 -0.2939 -0.7523  0.8013
  300MOL    C3236510   2.260   6.114   3.218 -0.5375 -0.2426 -0.0567
  300MOL    C3336511   2.273   5.968   3.258 -0.2167  0.7981  0.0592
  300MOL    H3436512   2.280   6.194   3.289  1.1709 -0.8693  0.1864
  300MOL    H3536513   2.163   6.134   3.171 -0.2027  1.5425 -0.0161
  300MOL    H3636514   2.258   5.908   3.168 -1.8294  0.8929  0.2559
  300MOL    H3736515   2.375   5.937   3.282 -1.0749 -3.3255 -1.2154
  300MOL    C3836516   2.175   5.918   3.368  0.2211  0.1383  0.1264
  300MOL    C3936517   2.033   5.900   3.330 -0.0300 -0.1804  0.3181
  300MOL    H4036518   2.223   5.827   3.403  0.4737 -0.3232 -1.3893
  300MOL    H4136519   2.170   5.989   3.450 -1.9723  1.2152 -0.8854
  300MOL    H4236520   1.990   5.996   3.301  1.2040 -0.2572 -1.8550
  300MOL    H4336521   2.024   5.835   3.243  1.3390 -0.2119  0.1880
  300MOL    C4436522   1.947   5.847   3.440 -0.2840 -0.2126 -0.6903
  300MOL    C4536523   1.810   5.799   3.404  0.4182  0.6276 -0.1211
  300MOL    H4636524   1.992   5.768   3.500  2.6030  1.2896 -0.8032
  300MOL    H4736525   1.934   5.926   3.514 -0.5701 -0.5412 -0.3871
  300MOL    H4836526   1.756   5.877   3.351  2.1563  0.9335 -1.4954
  300MOL    H4936527   1.810   5.716   3.334 -0.5248 -0.0041  0.6072
  300MOL    C5036528   1.722   5.755   3.524  0.2876  0.0647  0.1091
  300MOL    C5136529   1.695   5.859   3.630 -0.2264  0.2610  0.4031
  300MOL    H5236530   1.635   5.714   3.474  0.7562  0.2560 -0.8929
  300MOL    H5336531   1.759   5.663   3.568  0.6218 -0.7026 -1.7115
  300MOL    H5436532   1.781   5.869   3.696 -0.3708  0.1743  0.6059
  300MOL    H5536533   1.665   5.954   3.586  1.2621  0.4511 -0.2142
  300MOL    C5636534   1.584   5.826   3.737 -0.0529  0.4848 -0.0785
  300MOL    C5736535   1.565   5.926   3.855 -0.4180  0.2016  0.8975
  300MOL    H5836536   1.488   5.815   3.688 -0.7996 -0.3286  1.5539
  300MOL    H5936537   1.598   5.724   3.772 -0.9385  0.2612 -0.3645
  300MOL    H6036538   1.666   5.952   3.887 -0.2444 -0.8514  1.2378
  300MOL    H6136539   1.508   6.015   3.829 -0.4066 -0.0527 -0.0393
  300MOL    C6236540   1.488   5.859   3.966 -0.0210  0.3833 -0.0585
  300MOL    C6336541   1.466   5.966   4.080 -0.1653 -1.0213  0.1738
  300MOL    H6436542   1.389   5.823   3.940  0.7792 -1.9247 -0.0789
  300MOL    H6536543   1.535   5.766   4.000  0.2154  0.4050 -0.3157
  300MOL    H6636544   1.566   6.003   4.101  0.5009 -1.6850 -1.6624
  300MOL    H6736545   1.412   6.055   4.048  3.3259  0.5582 -1.5428
  300MOL    C6836546   1.408   5.902   4.203  0.2689  0.0726 -0.1661
  300MOL    C6936547   1.386   6.020   4.308  0.5490  0.2240 -0.4289
  300MOL    H7036548   1.321   5.841   4.178 -0.4360  0.7607  0.5935
  300MOL    H7136549   1.481   5.831   4.241 -0.5387  0.6573  2.5454
  300MOL    H7236550   1.487   6.052   4.335 -0.0803 -0.8007  3.3785
  300MOL    H7336551   1.343   6.110   4.265 -0.9563 -0.1220  0.3505
  300MOL    C7436552   1.308   5.982   4.435  0.1235  0.1070 -0.0686
  300MOL    C7536553   1.316   6.090   4.546  0.5151 -0.4204 -0.6540
  300MOL    H7636554   1.203   5.962   4.416  0.1281 -0.6742  0.7119
  300MOL    H7736555   1.358   5.892   4.471  1.4313  0.6911 -0.3892
  300MOL    H7836556   1.418   6.114   4.578  0.4353  2.2064 -2.2371
  300MOL    H7936557   1.282   6.186   4.506  0.9607  0.3451  0.7792
  300MOL    C8036558   1.225   6.046   4.664 -0.7233  0.3333 -0.2026
  300MOL    C8136559   1.176   6.153   4.760  0.3617  0.2943  0.3634
  300MOL    H8236560   1.145   5.991   4.614  0.7380 -1.4121 -0.6844
  300MOL    H8336561   1.259   5.959   4.719 -2.0792 -0.5497 -0.7128
  300MOL    H8436562   1.152   6.245   4.706  1.8784  1.0098  0.8959
  300MOL    H8536563   1.094   6.111   4.818 -0.8254  3.9808  1.5038
  300MOL    C8636564   1.291   6.186   4.858 -0.7170  0.2260  0.0272
  300MOL    C8736565   1.240   6.300   4.948 -0.3719 -0.8778 -0.0991
  300MOL    H8836566   1.320   6.098   4.915  3.8586  0.2563 -2.0543
  300MOL    H8936567   1.385   6.204   4.806 -0.4628 -1.2414 -0.0261
  300MOL    H9036568   1.223   6.391   4.889 -1.0619 -0.7759  0.2512
  300MOL    H9136569   1.141   6.275   4.988 -0.4167 -2.5976 -1.2481
  300MOL    C9236570   1.339   6.317   5.069  0.0525  1.0170 -0.6566
  300MOL    C9336571   1.312   6.414   5.181  0.1222  0.0992 -0.0644
  300MOL    H9436572   1.329   6.217   5.111 -0.1217  1.1102 -0.4710
  300MOL    H9536573   1.443   6.333   5.043  0.1499  1.0770 -0.2361
  300MOL    H9636574   1.211   6.398   5.220  1.0141 -1.9857  1.5090
  300MOL    H9736575   1.380   6.402   5.265  0.9657 -0.3360 -0.8091
  300MOL    C9836576   1.318   6.565   5.137  0.5859  0.0930 -0.4657
  300MOL    C9936577   1.349   6.673   5.243  0.4699  0.8934 -0.3226
  300MOL   H10036578   1.396   6.574   5.062  1.0835  0.1206  0.0495
  300MOL   H10136579   1.222   6.600   5.099  0.0178  0.7882  1.5380
  300MOL   H10236580   1.272   6.662   5.319 -0.7563  2.2698 -1.3350
  300MOL   H10336581   1.447   6.644   5.283  0.1421  2.1299  1.4117
  300MOL   C10436582   1.344   6.822   5.203  0.0702 -0.2289  0.3142
  300MOL   C10536583   1.441   6.914   5.283  0.1249 -0.3405 -0.3820
  300MOL   H10636584   1.360   6.828   5.095 -2.3484 -1.4170 -0.1647
  300MOL   H10736585   1.245   6.867   5.217 -0.6009 -2.1571  2.0607
  300MOL   H10836586   1.418   6.897   5.388  0.9382 -1.3032 -0.3613
  300MOL   H10936587   1.547   6.893   5.270  0.2873  0.2772 -0.0959
  300MOL   C11036588   1.436   7.055   5.229 -0.1465  0.8504  0.5814
  300MOL   C11136589   1.521   7.155   5.307  0.6574  0.2154 -1.0030
  300MOL   H11236590   1.476   7.054   5.127  0.9203  0.2094  1.0000
  300MOL   H11336591   1.332   7.086   5.219 -0.6951 -0.3415  2.4427
  300MOL   H11436592   1.471   7.188   5.399  1.1167  3.0960 -1.7256
  300MOL   H11536593   1.613   7.102   5.330 -0.2902 -1.9278 -2.0236
  300MOL   C11636594   1.556   7.276   5.230  0.3953  0.3284  0.2598
  300MOL   C11736595   1.435   7.336   5.150  0.6114 -0.1901 -0.2272
  300MOL   H11836596   1.602   7.347   5.299  2.2253  0.1649 -0.7580
  300MOL   H11936597   1.643   7.248   5.169  1.5983  1.2793  1.5206
  300MOL   H12036598   1.453   7.435   5.108  1.5753  0.1544  0.9682
  300MOL   H12136599   1.400   7.278   5.065 -2.0204 -1.6932  1.8181
  300MOL   H12236600   1.352   7.354   5.218 -0.6538 -0.0237 -1.7613
  301MOL     C136601   7.634   1.950   3.040  0.0778 -0.2686 -0.3782
  301MOL     C236602   7.539   1.977   2.924 -0.4709  0.9292 -0.1776
  301MOL     H336603   7.624   1.844   3.064 -2.1363 -0.2041 -0.9706
  301MOL     H436604   7.611   2.009   3.129  0.3310 -0.5638 -0.1152
  301MOL     H536605   7.588   1.949   2.831  0.9579  0.1970  0.7725
  301MOL     H636606   7.449   1.917   2.938  0.5809 -0.7233 -0.3679
  301MOL     H736607   0.045   1.969   3.010  0.1519 -2.2997 -1.4582
  301MOL     C836608   7.486   2.119   2.911 -0.5836  0.1344 -0.1828
  301MOL     C936609   7.375   2.125   2.803 -0.8472 -0.0342 -0.1361
  301MOL    H1036610   7.453   2.145   3.012 -0.8554 -1.4710  0.1517
  301MOL    H1136611   7.570   2.185   2.892 -1.3733  0.8873 -1.1531
  301MOL    H1236612   7.425   2.080   2.716  2.5802 -0.0611  1.7461
  301MOL    H1336613   7.298   2.049   2.816  0.0956 -0.8955  0.5383
  301MOL    C1436614   7.315   2.268   2.790 -0.3273  0.1997  0.3327
  301MOL    C1536615   7.232   2.306   2.917  0.0755 -0.7331  0.5872
  301MOL    H1636616   7.400   2.336   2.787  0.6164 -0.9859 -0.3332
  301MOL    H1736617   7.260   2.270   2.696  1.8794 -1.2364 -1.0354
  301MOL    H1836618   7.156   2.235   2.950 -1.6715  0.8412  0.0307
  301MOL    H1936619   7.294   2.315   3.007  0.2318  0.7204  0.3587
  301MOL    C2036620   7.161   2.436   2.908  0.4979  0.0633  0.6002
  301MOL    C2136621   7.106   2.482   3.046 -0.5825  0.0333 -0.0639
  301MOL    H2236622   7.231   2.514   2.876  0.1823 -0.3398 -1.1145
  301MOL    H2336623   7.093   2.419   2.825 -0.6318 -2.6562  2.0296
  301MOL    H2436624   7.051   2.400   3.092  0.2314  0.8718  2.5125
  301MOL    H2536625   7.185   2.496   3.120 -1.4619 -1.1337  1.1388
  301MOL    C2636626   7.013   2.605   3.040  0.4255 -0.2231 -0.0680
  301MOL    C2736627   6.973   2.667   3.176  0.2402  0.4166  0.5997
  301MOL    H2836628   7.075   2.680   2.991 -1.1978  0.0695 -1.7518
  301MOL    H2936629   6.924   2.594   2.977 -0.5133 -0.1617  1.2120
  301MOL    H3036630   6.903   2.597   3.223 -0.3571 -0.1779 -1.1206
  301MOL    H3136631   7.062   2.674   3.239  0.0480  1.4032  0.7596
  301MOL    C3236632   6.907   2.804   3.161 -0.2623 -0.2831  0.0336
  301MOL    C3336633   6.751   2.803   3.130 -0.2099 -0.0559  0.1091
  301MOL    H3436634   6.934   2.848   3.257  2.2004 -1.7199  0.0508
  301MOL    H3536635   6.958   2.870   3.091  1.4632  0.3887  1.8696
  301MOL    H3636636   6.747   2.751   3.035 -1.0172 -0.2775  0.2644
  301MOL    H3736637   6.693   2.750   3.206 -0.6454 -3.5102 -2.5090
  301MOL    C3836638   6.694   2.947   3.123 -0.1901 -0.3323  0.4621
  301MOL    C3936639   6.544   2.967   3.123  0.0800  0.2283 -0.2634
  301MOL    H4036640   6.714   2.992   3.220 -0.4835  1.2464 -0.1940
  301MOL    H4136641   6.736   3.010   3.045  2.3512 -2.1088  0.3060
  301MOL    H4236642   6.493   2.909   3.200 -1.5261  2.9073  0.7574
  301MOL    H4336643   6.521   3.073   3.138 -0.6770  0.5312 -3.2566
  301MOL    C4436644   6.478   2.926   2.988 -0.3923 -0.2878 -0.3482
  301MOL    C4536645   6.329   2.971   2.987  0.0761 -0.2257  0.6254
  301MOL    H4636646   6.532   2.967   2.903 -0.6563 -0.7194 -0.7296
  301MOL    H4736647   6.490   2.820   2.964 -0.0777 -0.3334  0.0121
  301MOL    H4836648   6.279   2.925   3.072  0.5769 -3.0760 -0.5406
  301MOL    H4936649   6.316   3.079   2.989  1.5946 -0.0358  1.9251
  301MOL    C5036650   6.264   2.924   2.858  0.6480 -0.5288  0.0351
  301MOL    C5136651   6.115   2.971   2.842 -0.5736  0.3308  0.2581
  301MOL    H5236652   6.319   2.959   2.771  1.4623 -3.0432 -0.4965
  301MOL    H5336653   6.255   2.816   2.858 -2.6179 -0.3212  0.5780
  301MOL    H5436654   6.110   3.079   2.858  2.2032  0.9199 -2.1982
  301MOL    H5536655   6.095   2.952   2.736  0.0557 -1.6184  0.4646
  301MOL    C5636656   6.010   2.909   2.930  0.0135 -0.1077  0.1712
  301MOL    C5736657   5.863   2.944   2.894 -1.0238 -0.2903  0.2038
  301MOL    H5836658   6.035   2.803   2.923  3.2975  0.7757 -4.0121
  301MOL    H5936659   6.018   2.932   3.036 -0.1232  0.2065  0.1137
  301MOL    H6036660   5.845   3.045   2.931  3.4493  0.7717 -0.2444
  301MOL    H6136661   5.850   2.915   2.790  0.8360 -2.7434  0.6090
  301MOL    C6236662   5.770   2.861   2.978  0.3150  0.2704 -0.3529
  301MOL    C6336663   5.621   2.891   2.968  0.2915  0.2507 -0.1019
  301MOL    H6436664   5.802   2.759   2.959  0.7266  0.7239 -2.2617
  301MOL    H6536665   5.784   2.852   3.086  0.9088 -3.0649 -0.6635
  301MOL    H6636666   5.589   2.986   3.011 -0.7500  0.9969 -2.4406
  301MOL    H6736667   5.586   2.887   2.865 -2.6822 -0.3073  0.8826
  301MOL    C6836668   5.529   2.799   3.052  1.0192  0.5054 -0.8336
  301MOL    C6936669   5.372   2.816   3.042 -0.1607  0.0381 -0.2313
  301MOL    H7036670   5.557   2.697   3.025  0.7948  0.4556 -0.8788
  301MOL    H7136671   5.565   2.799   3.154  1.1121 -2.0742 -0.8495
  301MOL    H7236672   5.332   2.910   3.080 -1.0951  0.0641 -1.2754
  301MOL    H7336673   5.344   2.812   2.937  0.5915  1.2452 -0.4845
  301MOL    C7436674   5.294   2.713   3.124  0.4785 -0.1209  0.1750
  301MOL    C7536675   5.147   2.724   3.137  0.3919 -0.6601  0.0130
  301MOL    H7636676   5.316   2.611   3.093  0.8696 -0.6696  2.1517
  301MOL    H7736677   5.329   2.724   3.227 -0.3452 -2.7621  0.7954
  301MOL    H7836678   5.126   2.810   3.202 -1.1526 -1.4421  0.5759
  301MOL    H7936679   5.088   2.726   3.045 -0.0471  0.2637  0.3040
  301MOL    C8036680   5.087   2.611   3.209  0.3336  0.5583 -0.7707
  301MOL    C8136681   4.934   2.603   3.200 -0.6830 -0.2129  0.5047
  301MOL    H8236682   5.133   2.524   3.163 -1.3906 -0.5806 -0.3820
  301MOL    H8336683   5.124   2.608   3.312 -2.7131  2.0462  0.4347
  301MOL    H8436684   4.899   2.706   3.209 -1.1055 -0.4328  1.5260
  301MOL    H8536685   4.910   2.563   3.102 -2.2958  1.0988  0.3435
  301MOL    C8636686   4.854   2.517   3.296 -0.2737  0.4940  0.4342
  301MOL    C8736687   4.706   2.543   3.280  0.5195  0.2152 -0.5020
  301MOL    H8836688   4.880   2.413   3.280 -0.4606  0.5131  0.0109
  301MOL    H8936689   4.874   2.542   3.400 -0.7455 -2.4472  1.2817
  301MOL    H9036690   4.687   2.650   3.290  0.1899  0.0774  0.3435
  301MOL    H9136691   4.661   2.506   3.187 -0.1083 -4.2230  1.4839
  301MOL    C9236692   4.624   2.473   3.393 -0.7397 -0.1909 -0.3342
  301MOL    C9336693   4.482   2.505   3.392 -0.4707 -0.2142  0.4200
  301MOL    H9436694   4.641   2.365   3.389  0.0270 -0.1030  0.2581
  301MOL    H9536695   4.663   2.504   3.490 -1.1747  0.7686 -0.4671
  301MOL    H9636696   4.461   2.607   3.427 -0.7042 -1.0423  2.8284
  301MOL    H9736697   4.432   2.494   3.296 -0.7016  1.7725  0.2837
  301MOL    C9836698   4.412   2.409   3.489 -0.6487  0.2945 -0.8734
  301MOL    C9936699   4.275   2.459   3.540  0.4812 -0.2959 -0.0982
  301MOL   H10036700   4.401   2.309   3.448  0.1850 -0.8140  1.5335
  301MOL   H10136701   4.478   2.396   3.575 -3.3946 -0.3627  1.1978
  301MOL   H10236702   4.290   2.560   3.580  2.6716 -0.8440  0.5236
  301MOL   H10336703   4.201   2.477   3.462  1.6586  2.8236 -0.5914
  301MOL   C10436704   4.213   2.359   3.636  0.2714  0.1373 -0.3795
  301MOL   C10536705   4.083   2.409   3.700 -0.6864  0.2101 -0.6984
  301MOL   H10636706   4.192   2.273   3.571  0.6010 -0.7851  0.7162
  301MOL   H10736707   4.292   2.323   3.702  0.0786 -2.0145 -1.2558
  301MOL   H10836708   4.095   2.502   3.756  0.1994  0.6823 -1.6639
  301MOL   H10936709   4.014   2.435   3.620  0.2350 -0.5724 -1.7616
  301MOL   C11036710   4.030   2.311   3.801 -0.0484 -0.0207 -0.2270
  301MOL   C11136711   3.890   2.358   3.850 -0.6205 -0.0218  0.3857
  301MOL   H11236712   4.019   2.205   3.781 -0.0178 -0.2835  1.1599
  301MOL   H11336713   4.090   2.308   3.891  0.4982  1.9179 -0.5058
  301MOL   H11436714   3.897   2.458   3.892  2.2345 -0.7848  1.8714
  301MOL   H11536715   3.838   2.370   3.755 -1.7795  0.2652  1.0405
  301MOL   C11636716   3.806   2.260   3.933 -0.2357  0.0897  0.1429
  301MOL   C11736717   3.854   2.239   4.078  0.1067  0.1849  0.2100
  301MOL   H11836718   3.700   2.286   3.936  0.1727  1.7147  1.4518
  301MOL   H11936719   3.807   2.162   3.884  2.4768  0.8506 -1.3826
  301MOL   H12036720   3.795   2.161   4.126 -2.4503  1.1018 -1.3540
  301MOL   H12136721   3.961   2.214   4.079 -0.0490 -0.7941 -2.5994
  301MOL   H12236722   3.834   2.326   4.140  0.7652  0.2467  0.3448
  302MOL     C136723   3.176   6.507   5.971  0.1659  0.3717  0.5543
  302MOL     C236724   3.150   6.485   6.120 -0.0500 -0.7901 -0.7773
  302MOL     H336725   3.119   6.438   5.909  1.1195  0.9519 -1.0039
  302MOL     H436726   3.280   6.488   5.942 -0.0171 -1.0056  0.7758
  302MOL     H536727   3.045   6.509   6.137 -0.8618 -3.7912 -1.3362
  302MOL     H636728   3.157   6.379   6.141 -0.5026 -0.8342 -0.8383
  302MOL     H736729   3.153   6.609   5.941 -1.4492 -0.2207 -0.2392
  302MOL     C836730   3.244   6.568   6.207 -1.0831  0.4379  0.2910
  302MOL     C936731   3.394   6.520   6.203 -0.7714  0.7615  0.5790
  302MOL    H1036732   3.239   6.670   6.169 -0.5307  0.4507  0.2580
  302MOL    H1136733   3.212   6.581   6.311 -1.4846  0.9493  0.1074
  302MOL    H1236734   3.396   6.413   6.226  0.6468  0.1890 -2.0276
  302MOL    H1336735   3.430   6.528   6.100 -0.7704  0.1701  0.5330
  302MOL    C1436736   3.494   6.584   6.302 -0.1935  0.2360  0.6555
  302MOL    C1536737   3.642   6.523   6.294 -0.5960  0.4458  0.2006
  302MOL    H1636738   3.485   6.682   6.256 -0.2439  0.4293  1.0832
  302MOL    H1736739   3.454   6.578   6.403  1.9457  0.5468  1.5345
  302MOL    H1836740   3.673   6.548   6.193 -0.2454  0.3072  0.2734
  302MOL    H1936741   3.703   6.582   6.362 -0.9548 -2.2651  2.9993
  302MOL    C2036742   3.648   6.371   6.331  1.0996 -0.1281  0.0066
  302MOL    C2136743   3.786   6.308   6.345  0.0675  0.5964 -0.2613
  302MOL    H2236744   3.602   6.351   6.428  0.3608 -0.7391 -0.4650
  302MOL    H2336745   3.587   6.315   6.259 -1.9202  3.0509 -0.0331
  302MOL    H2436746   3.829   6.301   6.245 -1.0255  0.7002 -0.7419
  302MOL    H2536747   3.859   6.380   6.383 -0.3297  1.7592 -1.6587
  302MOL    C2636748   3.769   6.173   6.405 -0.1304 -0.2963  0.5960
  302MOL    C2736749   3.890   6.085   6.404  0.3809 -0.4228  0.2687
  302MOL    H2836750   3.726   6.183   6.505 -0.2831  1.0293  0.3968
  302MOL    H2936751   3.689   6.122   6.352  1.5471 -1.7722 -0.5775
  302MOL    H3036752   3.919   6.052   6.304  0.3411 -1.8773  0.7280
  302MOL    H3136753   3.971   6.134   6.457 -0.7118  1.9499 -0.1671
  302MOL    C3236754   3.870   5.958   6.483 -0.2869 -0.1174  0.5274
  302MOL    C3336755   3.988   5.862   6.460 -0.4369 -0.3782 -0.3247
  302MOL    H3436756   3.861   5.976   6.590 -0.1120  1.1631  0.3311
  302MOL    H3536757   3.775   5.914   6.453  1.6143 -1.0650 -4.5728
  302MOL    H3636758   4.014   5.857   6.354  0.0959 -3.3820 -0.0940
  302MOL    H3736759   4.080   5.908   6.496 -2.4462  2.3853  1.4988
  302MOL    C3836760   3.977   5.723   6.524  0.9743 -0.1577 -0.2681
  302MOL    C3936761   4.103   5.642   6.495 -0.8216  0.0749 -0.4197
  302MOL    H4036762   3.949   5.728   6.630  3.3666 -0.9289  0.4530
  302MOL    H4136763   3.900   5.664   6.475 -0.4826  0.6229  1.0230
  302MOL    H4236764   4.196   5.667   6.546 -0.0500 -2.3373 -0.5659
  302MOL    H4336765   4.089   5.546   6.545 -1.4825  0.6584  0.5276
  302MOL    C4436766   4.118   5.610   6.342 -0.1731  0.0708 -0.3243
  302MOL    C4536767   4.221   5.501   6.312  0.5226  0.1625  0.4274
  302MOL    H4636768   4.022   5.578   6.302 -0.6530 -2.4557  2.6320
  302MOL    H4736769   4.147   5.703   6.294  0.9551 -1.2339 -2.2245
  302MOL    H4836770   4.307   5.507   6.379  0.2974 -3.2515  1.0856
  302MOL    H4936771   4.182   5.402   6.334  2.0919 -0.7680 -0.8245
  302MOL    C5036772   4.282   5.507   6.164  0.6233 -0.0530  0.1088
  302MOL    C5136773   4.380   5.401   6.132  0.1884  0.8665 -0.2823
  302MOL    H5236774   4.195   5.497   6.099 -1.0027 -1.3450  2.4071
  302MOL    H5336775   4.334   5.601   6.142  0.8742  0.0853  1.2470
  302MOL    H5436776   4.462   5.420   6.202  0.3485  1.3159 -0.5857
  302MOL    H5536777   4.343   5.302   6.157 -0.4589  1.3657  0.7818
  302MOL    C5636778   4.420   5.390   5.983 -0.1009  0.6376 -0.3226
  302MOL    C5736779   4.538   5.295   5.943 -0.0818  0.0876 -0.3895
  302MOL    H5836780   4.334   5.348   5.930 -1.1059 -0.6400  2.2451
  302MOL    H5936781   4.436   5.489   5.941 -0.7784  0.1581 -1.7476
  302MOL    H6036782   4.508   5.192   5.963 -0.6667  0.5875  1.3709
  302MOL    H6136783   4.549   5.309   5.835 -1.4284 -0.1486 -0.5757
  302MOL    C6236784   4.671   5.324   6.015  0.3474 -0.2179  0.4149
  302MOL    C6336785   4.792   5.259   5.955 -0.5691 -0.3263  0.3584
  302MOL    H6436786   4.677   5.433   6.017  2.9206 -0.3273  2.7622
  302MOL    H6536787   4.657   5.289   6.117  0.4481  0.4736  0.6712
  302MOL    H6636788   4.769   5.153   5.946  1.4576 -0.7823  0.4314
  302MOL    H6736789   4.815   5.311   5.862 -0.1379  0.4879  0.9054
  302MOL    C6836790   4.924   5.275   6.036 -0.0312 -0.5018 -0.7223
  302MOL    C6936791   5.043   5.187   5.977 -0.6299  0.0208 -0.2785
  302MOL    H7036792   4.955   5.378   6.052 -0.8914 -0.5452  1.3481
  302MOL    H7136793   4.898   5.225   6.130  0.7612 -1.3130 -0.9207
  302MOL    H7236794   5.036   5.083   6.009  0.6065 -0.0323 -0.1390
  302MOL    H7336795   5.029   5.183   5.869  2.6879  1.3275 -0.8185
  302MOL    C7436796   5.183   5.240   6.011 -0.1574  0.2491 -0.7859
  302MOL    C7536797   5.216   5.269   6.157  0.3366  0.4959 -0.1941
  302MOL    H7636798   5.264   5.176   5.977 -0.5504 -0.2321 -0.8307
  302MOL    H7736799   5.185   5.325   5.943 -2.8102 -1.1628 -2.7524
  302MOL    H7836800   5.147   5.343   6.198 -0.5040 -0.0978 -0.5261
  302MOL    H7936801   5.196   5.176   6.209  0.4427  0.2339 -0.6234
  302MOL    C8036802   5.360   5.311   6.185  0.1110 -0.0323 -0.4847
  302MOL    C8136803   5.385   5.297   6.334 -0.1421  0.0218  0.1440
  302MOL    H8236804   5.428   5.246   6.130 -1.1779 -0.2015 -1.9210
  302MOL    H8336805   5.381   5.413   6.154 -3.0202  1.1649  1.1311
  302MOL    H8436806   5.461   5.366   6.373 -0.5804  0.7537 -0.2867
  302MOL    H8536807   5.293   5.331   6.381 -0.5627 -0.9163 -0.0083
  302MOL    C8636808   5.419   5.159   6.387  0.0331  0.0777 -0.2863
  302MOL    C8736809   5.442   5.166   6.545 -0.4359 -0.1540  0.6287
  302MOL    H8836810   5.337   5.087   6.376 -0.9889  0.8601  2.0206
  302MOL    H8936811   5.510   5.116   6.345  0.8441  1.1343  0.3574
  302MOL    H9036812   5.517   5.243   6.561  0.0172 -0.2988 -0.7129
  302MOL    H9136813   5.348   5.199   6.590 -0.4482 -0.9573  1.1973
  302MOL    C9236814   5.475   5.031   6.602  0.0119  0.3329 -0.3262
  302MOL    C9336815   5.471   5.015   6.756 -0.0110  0.0399 -1.2118
  302MOL    H9436816   5.391   4.970   6.568 -0.1851  0.5814 -0.2899
  302MOL    H9536817   5.564   4.987   6.556  0.5059  0.5506  0.4042
  302MOL    H9636818   5.543   5.081   6.806 -1.3320  0.5336  0.0870
  302MOL    H9736819   5.378   5.055   6.796  0.0909  0.9246 -1.8605
  302MOL    C9836820   5.510   4.879   6.812  0.2823  0.6306 -0.3205
  302MOL    C9936821   5.660   4.846   6.797  0.6844 -0.2817 -0.5045
  302MOL   H10036822   5.469   4.875   6.913 -2.0279  0.6640 -1.2480
  302MOL   H10136823   5.456   4.795   6.769  0.9193  0.0610 -0.0318
  302MOL   H10236824   5.678   4.800   6.700 -2.6688 -2.6246 -0.1051
  302MOL   H10336825   5.713   4.940   6.810 -0.6142  0.0264  3.0256
  302MOL   C10436826   5.699   4.744   6.904 -0.0270 -0.0034  0.0921
  302MOL   C10536827   5.843   4.749   6.942  0.0327 -0.9023 -0.3464
  302MOL   H10636828   5.636   4.751   6.993  1.5336 -0.8061  1.2965
  302MOL   H10736829   5.676   4.640   6.884 -1.3965  0.3144 -0.0595
  302MOL   H10836830   5.911   4.723   6.861  1.2974 -0.1040  0.4502
  302MOL   H10936831   5.872   4.852   6.965  3.7401 -2.1249  0.8477
  302MOL   C11036832   5.880   4.655   7.053  0.7212  1.1194  0.5057
  302MOL   C11136833   6.031   4.629   7.079  0.1905 -0.1321  0.3681
  302MOL   H11236834   5.842   4.696   7.146 -1.2233  0.8026 -0.1052
  302MOL   H11336835   5.835   4.556   7.048  0.1112  1.3244  1.7823
  302MOL   H11436836   6.071   4.583   6.988  3.1004  0.1610  1.4497
  302MOL   H11536837   6.086   4.723   7.078  1.0955 -0.6528 -0.3726
  302MOL   C11636838   6.058   4.551   7.211 -0.0216 -0.4926  0.1063
  302MOL   C11736839   6.209   4.523   7.236  0.1857 -0.3851 -0.3642
  302MOL   H11836840   6.031   4.608   7.299 -1.4116 -1.0148  0.0287
  302MOL   H11936841   5.995   4.462   7.213 -0.7593  0.0358  0.2399
  302MOL   H12036842   6.241   4.457   7.154  0.8974  1.1063 -1.3159
  302MOL   H12136843   6.272   4.612   7.238 -0.3540 -0.0180  0.2337
  302MOL   H12236844   6.217   4.456   7.321  1.9253  0.4038  0.1143
  303MOL     C136845   5.767   1.985   3.187 -0.8193  0.6844  0.1243
  303MOL     C236846   5.711   1.999   3.325 -0.4140  0.4763  0.2029
  303MOL     H336847   5.869   1.946   3.177 -0.2641  2.3392 -0.8362
  303MOL     H436848   5.777   2.078   3.131 -1.0299  0.5507 -0.1409
  303MOL     H536849   5.792   2.049   3.378 -1.8996  1.0410  1.9879
  303MOL     H636850   5.627   2.068   3.314 -0.3553  0.1345 -3.0217
  303MOL     H736851   5.708   1.915   3.127  1.8402 -3.6110  2.2807
  303MOL     C836852   5.680   1.873   3.386 -0.3412  0.1260 -0.1456
  303MOL     C936853   5.622   1.878   3.520 -0.6862 -0.1029 -0.1552
  303MOL    H1036854   5.597   1.837   3.325 -1.2777  1.4914  0.2744
  303MOL    H1136855   5.761   1.801   3.386 -0.9892 -0.6173 -1.5516
  303MOL    H1236856   5.697   1.861   3.598 -1.9591 -0.6485  0.9803
  303MOL    H1336857   5.570   1.969   3.547 -1.1661 -0.1599 -0.8954
  303MOL    C1436858   5.511   1.769   3.530 -0.2135 -0.5847  0.2489
  303MOL    C1536859   5.454   1.752   3.669 -0.2290 -0.0248 -0.1018
  303MOL    H1636860   5.438   1.796   3.454  0.9576 -1.6186 -1.2630
  303MOL    H1736861   5.557   1.677   3.494  1.2527  0.3853 -0.3505
  303MOL    H1836862   5.520   1.688   3.727 -0.1578 -0.7558 -0.9719
  303MOL    H1936863   5.426   1.841   3.725  0.9001 -0.8579  1.8533
  303MOL    C2036864   5.320   1.674   3.660  0.2358 -0.3062  0.3092
  303MOL    C2136865   5.261   1.644   3.801 -0.3665 -0.2095  0.2996
  303MOL    H2236866   5.254   1.727   3.592  1.2965  0.6492  0.0107
  303MOL    H2336867   5.333   1.577   3.611 -0.4415 -0.3869  0.2805
  303MOL    H2436868   5.330   1.582   3.858 -0.9738 -1.6955 -0.5609
  303MOL    H2536869   5.241   1.738   3.853 -2.0432 -1.4177  1.8864
  303MOL    C2636870   5.123   1.584   3.783 -0.4282 -0.1792 -0.3185
  303MOL    C2736871   5.060   1.536   3.926 -0.2647 -0.1793  0.1192
  303MOL    H2836872   5.056   1.650   3.729 -1.2079 -0.6914  0.0063
  303MOL    H2936873   5.123   1.500   3.714 -0.3621 -1.6317  1.4181
  303MOL    H3036874   5.138   1.478   3.974 -0.3200 -0.6599 -0.3604
  303MOL    H3136875   5.036   1.622   3.988  0.3217  0.3467 -0.3871
  303MOL    C3236876   4.937   1.445   3.912  0.3893  0.2085  0.6264
  303MOL    C3336877   4.907   1.363   4.033 -0.1522  0.6763  0.1101
  303MOL    H3436878   4.851   1.509   3.892  1.7247  1.9970  0.4636
  303MOL    H3536879   4.969   1.371   3.839  0.6337  0.0063  0.9347
  303MOL    H3636880   4.999   1.323   4.075  0.5108  0.7132 -1.3010
  303MOL    H3736881   4.868   1.437   4.103 -0.9016  0.1503  0.2589
  303MOL    C3836882   4.806   1.248   4.016  0.1097 -0.3622  0.0043
  303MOL    C3936883   4.757   1.201   4.157 -0.3154 -0.3448 -0.0969
  303MOL    H4036884   4.720   1.269   3.952 -0.8892 -2.4799  0.5843
  303MOL    H4136885   4.861   1.178   3.952  0.7663  0.1409  0.0086
  303MOL    H4236886   4.832   1.185   4.234 -0.6519  0.5819  0.4305
  303MOL    H4336887   4.694   1.280   4.198 -0.3553 -0.7403  0.5945
  303MOL    C4436888   4.665   1.082   4.145  0.8122  0.5258 -0.2301
  303MOL    C4536889   4.610   1.034   4.275  0.0034 -0.9051  0.2078
  303MOL    H4636890   4.580   1.113   4.084  0.7604  0.0883 -0.3852
  303MOL    H4736891   4.719   1.003   4.091  0.1935  0.2786 -0.4906
  303MOL    H4836892   4.542   1.109   4.315  1.0748  0.5307 -0.6418
  303MOL    H4936893   4.543   0.950   4.254 -1.1283 -0.2669  1.1736
  303MOL    C5036894   4.713   1.007   4.390 -0.5364  0.1775  0.3530
  303MOL    C5136895   4.818   0.900   4.363 -0.4847 -0.2580 -0.6432
  303MOL    H5236896   4.754   1.094   4.440 -0.5476  0.6423 -0.4372
  303MOL    H5336897   4.640   0.976   4.465 -2.0378  0.6272 -0.8941
  303MOL    H5436898   4.774   0.817   4.307 -0.5733  0.3495 -1.4804
  303MOL    H5536899   4.897   0.948   4.305 -0.2993 -0.0164 -0.1929
  303MOL    C5636900   4.894   0.856   4.496 -0.5100 -0.0837 -0.0706
  303MOL    C5736901   4.997   0.750   4.460  0.4019 -0.7451 -0.4899
  303MOL    H5836902   4.937   0.938   4.554  2.3271 -1.9732  0.5641
  303MOL    H5936903   4.807   0.813   4.546 -1.5595  0.8455 -1.0637
  303MOL    H6036904   4.953   0.674   4.396 -1.8443  1.5261 -1.6914
  303MOL    H6136905   5.063   0.807   4.394  0.3389  0.3040  0.3361
  303MOL    C6236906   5.068   0.687   4.581 -0.2963  0.5398 -0.5762
  303MOL    C6336907   5.187   0.604   4.544 -0.6989 -0.0562 -0.0874
  303MOL    H6436908   5.091   0.756   4.663  0.2427 -1.6002  1.1258
  303MOL    H6536909   4.998   0.618   4.627 -0.3303  0.4776 -0.7210
  303MOL    H6636910   5.163   0.538   4.461  1.4554 -1.1556  0.1143
  303MOL    H6736911   5.256   0.677   4.501 -0.1389 -0.3428  0.3141
  303MOL    C6836912   5.244   0.528   4.662 -0.6048 -0.9102  1.5791
  303MOL    C6936913   5.368   0.452   4.620  0.0712  0.0317  0.7369
  303MOL    H7036914   5.277   0.600   4.736  0.3988 -1.6027  1.8179
  303MOL    H7136915   5.170   0.458   4.700  0.1307 -1.2438  2.4224
  303MOL    H7236916   5.342   0.381   4.541 -1.2807  1.3327  0.0184
  303MOL    H7336917   5.447   0.521   4.590  0.4870 -0.8754 -0.3331
  303MOL    C7436918   5.433   0.375   4.732 -0.4193 -0.2495 -0.0504
  303MOL    C7536919   5.572   0.316   4.699 -0.6041 -0.2870  0.5229
  303MOL    H7636920   5.457   0.447   4.810 -1.9266  0.4163 -0.1719
  303MOL    H7736921   5.368   0.298   4.774 -0.0016 -0.8414 -0.4964
  303MOL    H7836922   5.642   0.388   4.656 -2.6466  0.9267 -0.7964
  303MOL    H7936923   5.603   0.276   4.795  0.9323  0.8291  0.5096
  303MOL    C8036924   5.553   0.196   4.619 -0.2348  0.6669 -0.1163
  303MOL    C8136925   5.678   0.105   4.616  0.5538  0.3113  0.5477
  303MOL    H8236926   5.471   0.132   4.652  0.3218  0.2553  0.4878
  303MOL    H8336927   5.514   0.227   4.522  1.0830  1.4605 -0.4016
  303MOL    H8436928   5.758   0.163   4.569  1.0598  1.1625  2.4015
  303MOL    H8536929   5.710   0.087   4.718  0.6080  0.0119  0.4772
  303MOL    C8636930   5.672   7.673   4.526  0.0113 -0.2802  0.5856
  303MOL    C8736931   5.791   7.577   4.550  0.0311  0.0394 -0.0504
  303MOL    H8836932   5.582   7.615   4.546 -0.4133  0.3084  0.3871
  303MOL    H8936933   5.671   0.012   4.422  0.6199 -2.2494 -0.0380
  303MOL    H9036934   5.888   7.624   4.534 -1.2896  2.1552 -2.1756
  303MOL    H9136935   5.790   7.548   4.655 -1.0122  3.0530  0.8301
  303MOL    C9236936   5.780   7.441   4.472 -0.2717  0.2252  0.4552
  303MOL    C9336937   5.907   7.350   4.463 -0.2440 -0.1885  0.4977
  303MOL    H9436938   5.689   7.384   4.494  0.2065  0.6051  3.5701
  303MOL    H9536939   5.762   7.475   4.370  0.8751 -0.1427  0.1216
  303MOL    H9636940   5.981   7.412   4.412 -0.3302  1.1916  2.0147
  303MOL    H9736941   5.944   7.329   4.564 -1.0550  0.0176  0.8401
  303MOL    C9836942   5.883   7.235   4.369 -0.3206  0.7099  0.1840
  303MOL    C9936943   6.009   7.145   4.383 -0.7546  0.7770 -0.5800
  303MOL   H10036944   5.799   7.178   4.410  0.8799 -0.2465  1.3460
  303MOL   H10136945   5.855   7.278   4.273 -1.8474 -0.7169 -0.0400
  303MOL   H10236946   6.095   7.204   4.353 -0.3066 -0.1011 -1.0264
  303MOL   H10336947   6.014   7.100   4.483 -1.7229 -1.7017 -1.6248
  303MOL   C10436948   6.017   7.016   4.307 -0.6348  0.2933  0.0302
  303MOL   C10536949   6.129   6.919   4.360  0.8225 -0.4117  0.1921
  303MOL   H10636950   5.928   6.954   4.319 -0.3031 -0.2284 -0.1615
  303MOL   H10736951   6.031   7.046   4.203 -0.3316  0.3953  0.1009
  303MOL   H10836952   6.224   6.973   4.360  1.5302 -1.6133  1.3880
  303MOL   H10936953   6.108   6.889   4.463 -1.0293  0.2345  0.0266
  303MOL   C11036954   6.146   6.798   4.276  0.4380 -0.2598 -0.4936
  303MOL   C11136955   6.281   6.736   4.314 -0.1483  0.8418  0.4848
  303MOL   H11236956   6.071   6.725   4.306 -0.6377 -0.3502 -3.3250
  303MOL   H11336957   6.122   6.823   4.173 -3.5902  1.6342  0.7928
  303MOL   H11436958   6.355   6.811   4.287  0.6456 -0.4114 -0.8752
  303MOL   H11536959   6.291   6.721   4.422 -0.9726 -2.4776  0.1760
  303MOL   C11636960   6.321   6.610   4.231 -0.0841  0.7320 -0.1029
  303MOL   C11736961   6.337   6.634   4.076 -0.1410  0.4424 -0.7871
  303MOL   H11836962   6.411   6.569   4.276 -1.2408 -0.9833  0.6874
  303MOL   H11936963   6.260   6.522   4.250  0.3411  0.9013  2.2089
  303MOL   H12036964   6.363   6.544   4.020  2.2410  1.0085 -0.6369
  303MOL   H12136965   6.237   6.660   4.040  0.0372 -0.8976 -2.3468
  303MOL   H12236966   6.414   6.705   4.047 -0.3039  0.6920 -0.6035
  304MOL     C136967   3.292   2.008   5.575 -0.1021  0.1052  0.8238
  304MOL     C236968   3.423   2.081   5.542  0.2854  0.4157  0.1888
  304MOL     H336969   3.278   1.933   5.496 -1.0969  0.8878  0.2398
  304MOL     H436970   3.212   2.074   5.542 -1.4460 -2.6240 -1.6428
  304MOL     H536971   3.505   2.011   5.559 -0.0991 -0.0775  0.0463
  304MOL     H636972   3.429   2.115   5.439 -1.5303  3.7635  1.1201
  304MOL     H736973   3.277   1.972   5.676 -0.2114 -1.8823  0.1298
  304MOL     C836974   3.447   2.205   5.630 -0.5739 -0.3667  0.1616
  304MOL     C936975   3.596   2.228   5.637 -0.1646 -0.2515  0.1331
  304MOL    H1036976   3.400   2.291   5.584  0.1595  1.3743  2.5327
  304MOL    H1136977   3.427   2.198   5.737  1.6930 -0.0269  0.6457
  304MOL    H1236978   3.645   2.131   5.653  0.4926  0.0866  0.1958
  304MOL    H1336979   3.619   2.260   5.536  0.9227  0.6703  0.6551
  304MOL    C1436980   3.637   2.337   5.733 -0.1766  0.3284  0.0682
  304MOL    C1536981   3.787   2.373   5.718 -0.1721 -0.5151  0.6826
  304MOL    H1636982   3.579   2.429   5.730  0.8218  0.9592 -0.1737
  304MOL    H1736983   3.626   2.308   5.837  0.0620 -2.1083 -0.5572
  304MOL    H1836984   3.811   2.387   5.613  3.2200 -2.6358  1.1010
  304MOL    H1936985   3.817   2.469   5.762  1.4795  0.3961 -2.2795
  304MOL    C2036986   3.877   2.252   5.768  0.3142  0.4550  0.1345
  304MOL    C2136987   4.031   2.278   5.757  0.2351 -0.8099 -0.9131
  304MOL    H2236988   3.856   2.249   5.875  1.4509  4.2689  0.5328
  304MOL    H2336989   3.851   2.156   5.724  1.6774  0.9361 -1.7445
  304MOL    H2436990   4.052   2.283   5.650 -0.4724  2.8690 -0.9605
  304MOL    H2536991   4.074   2.374   5.785  1.8192 -1.6468 -0.4686
  304MOL    C2636992   4.120   2.170   5.817 -0.1880  1.0852 -0.3297
  304MOL    C2736993   4.258   2.225   5.830  1.1722 -0.1424  1.0761
  304MOL    H2836994   4.073   2.158   5.915  0.3064  1.9331  0.0209
  304MOL    H2936995   4.123   2.077   5.761  1.7554 -0.0059  1.5389
  304MOL    H3036996   4.287   2.243   5.727 -3.1388 -1.6330 -0.5029
  304MOL    H3136997   4.256   2.323   5.879  2.0172  0.9325 -0.9909
  304MOL    C3236998   4.365   2.138   5.898  0.5354  0.1727 -0.3439
  304MOL    C3336999   4.500   2.201   5.875 -0.5538 -0.2795 -0.3086
  304MOL    H3437000   4.343   2.119   6.003 -2.2881 -2.6693 -1.3634
  304MOL    H3537001   4.364   2.039   5.852  0.6443  0.9123 -1.9698
  304MOL    H3637002   4.513   2.205   5.767  1.5572  0.9747 -0.0441
  304MOL    H3737003   4.506   2.308   5.893 -0.1458 -0.5480  1.2371
  304MOL    C3837004   4.619   2.130   5.941  0.8866 -0.2450  0.5555
  304MOL    C3937005   4.751   2.200   5.927  0.5273  0.4812 -0.4652
  304MOL    H4037006   4.597   2.129   6.047  4.0837  1.5838  1.2891
  304MOL    H4137007   4.625   2.037   5.884  0.3842  0.3435 -0.4786
  304MOL    H4237008   4.773   2.219   5.822  2.4923 -0.2625 -0.2005
  304MOL    H4337009   4.745   2.300   5.971  1.1369  0.7516 -0.9989
  304MOL    C4437010   4.876   2.124   5.974  0.0668  0.2372 -0.3339
  304MOL    C4537011   5.007   2.214   5.975  0.0675  0.8009  0.4934
  304MOL    H4637012   4.862   2.087   6.075 -0.1189 -1.0683 -0.8332
  304MOL    H4737013   4.889   2.033   5.915 -2.1501 -0.6659  0.5258
  304MOL    H4837014   5.021   2.240   5.870 -0.1786 -2.3401 -0.3901
  304MOL    H4937015   4.983   2.306   6.027  1.2189  0.5421  1.5054
  304MOL    C5037016   5.138   2.149   6.036 -0.0632 -0.2458 -0.2750
  304MOL    C5137017   5.271   2.225   6.018 -1.0657  0.0977 -0.2474
  304MOL    H5237018   5.122   2.115   6.138  1.7722 -1.6649 -0.4227
  304MOL    H5337019   5.144   2.047   5.997  0.9150 -0.1191 -0.4765
  304MOL    H5437020   5.281   2.271   5.920 -2.3088  1.2334  0.1343
  304MOL    H5537021   5.288   2.307   6.089  1.0201 -0.4684 -0.0409
  304MOL    C5637022   5.391   2.129   6.043  0.1407  0.1788 -0.4142
  304MOL    C5737023   5.535   2.195   6.054 -0.3001  0.1856  0.3197
  304MOL    H5837024   5.366   2.077   6.135 -1.3220  0.1925 -0.7806
  304MOL    H5937025   5.392   2.053   5.965 -0.1431 -0.9544  0.6696
  304MOL    H6037026   5.543   2.267   5.972 -0.1206 -0.9903 -0.7194
  304MOL    H6137027   5.541   2.255   6.144  1.3751  0.0494  0.2990
  304MOL    C6237028   5.653   2.092   6.050 -0.4620 -0.2785 -0.2538
  304MOL    C6337029   5.695   2.013   5.930  0.3688 -0.1050  0.4425
  304MOL    H6437030   5.742   2.142   6.090 -0.0755 -1.2657  0.1371
  304MOL    H6537031   5.620   2.027   6.132  0.3523 -1.8996 -1.1937
  304MOL    H6637032   5.607   1.975   5.877 -0.4537  0.9735  1.0079
  304MOL    H6737033   5.742   2.088   5.866  1.6588 -1.5969 -0.4085
  304MOL    C6837034   5.782   1.888   5.957 -0.0694  0.4938 -0.0692
  304MOL    C6937035   5.708   1.771   6.022  0.0260 -0.8508  0.2224
  304MOL    H7037036   5.836   1.858   5.867 -0.3949  0.6273 -0.3110
  304MOL    H7137037   5.866   1.903   6.025 -2.6883  1.2061  3.1524
  304MOL    H7237038   5.677   1.808   6.120  0.3664  0.7056 -0.2408
  304MOL    H7337039   5.616   1.752   5.966 -0.2337  1.5192 -0.1977
  304MOL    C7437040   5.793   1.642   6.014  0.1394 -0.4245  0.4219
  304MOL    C7537041   5.739   1.522   6.103 -0.5907 -0.1415 -0.1482
  304MOL    H7637042   5.798   1.616   5.908 -0.2756  0.8506  0.0806
  304MOL    H7737043   5.891   1.670   6.051  0.0719 -0.9457  1.0059
  304MOL    H7837044   5.635   1.497   6.081 -1.0169  1.5666 -0.2163
  304MOL    H7937045   5.793   1.435   6.066  0.7607  0.9811 -0.8633
  304MOL    C8037046   5.759   1.531   6.253  0.0093 -0.1611 -0.6790
  304MOL    C8137047   5.734   1.395   6.323 -0.0934  0.0982  0.2169
  304MOL    H8237048   5.861   1.560   6.276 -0.3599 -0.7772  1.8101
  304MOL    H8337049   5.693   1.611   6.286  1.7652  0.5383  1.1969
  304MOL    H8437050   5.780   1.315   6.265  0.4334  0.4441  0.1601
  304MOL    H8537051   5.791   1.401   6.415  0.2297 -0.2061  0.0394
  304MOL    C8637052   5.582   1.371   6.354  0.0390  0.1827  0.5768
  304MOL    C8737053   5.548   1.275   6.461  0.3089  0.3508 -0.8139
  304MOL    H8837054   5.541   1.466   6.389  2.8845  1.0598  1.7286
  304MOL    H8937055   5.531   1.342   6.262 -1.5277  0.5050  1.3219
  304MOL    H9037056   5.597   1.179   6.444  0.0976 -0.3573  2.2207
  304MOL    H9137057   5.586   1.320   6.553 -1.4319  0.7867 -0.2974
  304MOL    C9237058   5.395   1.254   6.486  0.0705 -0.0510 -0.0855
  304MOL    C9337059   5.332   1.140   6.401  0.3896  0.1561  0.1074
  304MOL    H9437060   5.386   1.225   6.591 -0.2543 -0.1115 -0.1292
  304MOL    H9537061   5.343   1.349   6.480 -0.5297 -0.3316  0.5623
  304MOL    H9637062   5.332   1.165   6.295 -3.6012 -1.7675 -0.4711
  304MOL    H9737063   5.397   1.054   6.418 -0.3161 -0.5844 -0.8928
  304MOL    C9837064   5.193   1.107   6.438  0.2629 -0.5141 -0.2906
  304MOL    C9937065   5.139   0.994   6.350 -0.8989 -0.4454 -0.2332
  304MOL   H10037066   5.192   1.080   6.543  1.2746  0.1898 -0.0957
  304MOL   H10137067   5.124   1.188   6.412 -0.9192 -0.5051  2.7203
  304MOL   H10237068   5.155   1.019   6.245 -2.2439  1.9679  0.1045
  304MOL   H10337069   5.197   0.903   6.366  1.0883  1.2087  2.3654
  304MOL   C10437070   4.987   0.966   6.387 -0.0957  0.1911 -0.9326
  304MOL   C10537071   4.923   0.860   6.297  0.0629 -0.2313  0.0820
  304MOL   H10637072   4.975   0.927   6.488 -3.8965  1.4725 -0.8312
  304MOL   H10737073   4.919   1.051   6.382 -2.7034 -1.7856  0.0495
  304MOL   H10837074   5.006   0.799   6.263 -0.3477 -0.9369  0.3362
  304MOL   H10937075   4.852   0.800   6.354  0.5541 -1.4783 -0.6024
  304MOL   C11037076   4.871   0.898   6.151  0.1917 -0.2916 -0.1841
  304MOL   C11137077   4.765   0.810   6.086 -0.1129  0.4508 -0.0972
  304MOL   H11237078   4.830   0.997   6.172  0.7660 -0.3145  1.0327
  304MOL   H11337079   4.959   0.913   6.089 -0.2376  1.7618 -0.3432
  304MOL   H11437080   4.675   0.839   6.140  0.2158  0.0128  0.6883
  304MOL   H11537081   4.759   0.823   5.978  4.0043 -0.8093 -0.5719
  304MOL   C11637082   4.775   0.655   6.102  0.3319  0.2065 -0.3473
  304MOL   C11737083   4.652   0.590   6.044  0.2675  0.0103 -0.8116
  304MOL   H11837084   4.864   0.621   6.048 -1.2382 -2.4739 -1.3220
  304MOL   H11937085   4.788   0.632   6.207  3.1619 -1.6860 -1.0485
  304MOL   H12037086   4.642   0.603   5.937 -2.6058  0.5108 -0.5371
  304MOL   H12137087   4.640   0.483   6.058  0.5602  0.1448  0.5304
  304MOL   H12237088   4.557   0.630   6.082  0.4503  0.2960 -0.6562
  305MOL     C137089   4.574   4.933   7.363 -0.8457 -0.5757 -0.6830
  305MOL     C237090   4.534   5.009   7.488  0.4331  0.6557 -0.1407
  305MOL     H337091   4.490   4.931   7.292  0.6783 -0.8835 -2.5268
  305MOL     H437092   4.596   4.828   7.379  1.8045 -0.1721 -1.4207
  305MOL     H537093   4.615   4.988   7.557  0.2378  0.0250 -0.1028
  305MOL     H637094   4.527   5.112   7.450 -1.3043  0.3406 -0.7318
  305MOL     H737095   4.665   4.970   7.316 -0.4716 -1.0439 -0.3329
  305MOL     C837096   4.404   4.959   7.548  0.0766  0.7293  0.4441
  305MOL     C937097   4.360   5.040   7.670 -0.4625  0.9529  0.6229
  305MOL    H1037098   4.332   4.967   7.466  2.0686 -0.2612 -1.4489
  305MOL    H1137099   4.418   4.854   7.576 -0.7902  0.3329 -0.5666
  305MOL    H1237100   4.271   4.985   0.008  0.3562 -0.2644  0.8662
  305MOL    H1337101   4.436   5.031   0.056 -2.6960  0.3044  2.7963
  305MOL    C1437102   4.328   5.186   7.648 -0.9577 -0.1528 -0.6383
  305MOL    C1537103   4.218   5.225   7.545 -0.4602  0.1754 -0.2406
  305MOL    H1637104   4.295   5.217   0.055  0.4404  0.2704 -0.2812
  305MOL    H1737105   4.419   5.244   7.629 -0.2729 -0.1059  2.5073
  305MOL    H1837106   4.260   5.202   7.447 -1.1930 -1.9528 -0.0798
  305MOL    H1937107   4.138   5.152   7.554  0.1849 -0.4325  0.5665
  305MOL    C2037108   4.178   5.372   7.553  0.3103  0.2617  0.2336
  305MOL    C2137109   4.113   5.430   7.429 -0.6848 -0.7037  0.6396
  305MOL    H2237110   4.124   5.384   7.647  0.6668  1.4943  0.2928
  305MOL    H2337111   4.269   5.432   7.558 -0.3630  1.6706 -2.9110
  305MOL    H2437112   4.172   5.410   7.339 -0.9642 -0.8727  0.4899
  305MOL    H2537113   4.017   5.379   7.413 -2.2810  2.2052  0.6121
  305MOL    C2637114   4.087   5.579   7.426  0.2951  0.3298 -0.7958
  305MOL    C2737115   4.008   5.630   7.308  0.9024  0.9040 -0.5385
  305MOL    H2837116   4.044   5.605   7.523  0.8115  0.2287 -0.5395
  305MOL    H2937117   4.179   5.638   7.432  0.9513 -0.5034 -2.4756
  305MOL    H3037118   4.060   5.607   7.214 -0.0677  1.9451 -1.3433
  305MOL    H3137119   3.914   5.576   7.302  0.9943  0.7713 -0.8179
  305MOL    C3237120   3.975   5.779   7.318 -0.1605  0.3005 -0.2134
  305MOL    C3337121   3.908   5.834   7.193  0.2287 -0.2695 -0.2706
  305MOL    H3437122   3.907   5.794   7.401 -1.1498 -0.2923 -0.9078
  305MOL    H3537123   4.068   5.830   7.344 -0.0856  0.6568 -1.1550
  305MOL    H3637124   3.983   5.831   7.114  0.8689  1.6180  0.2342
  305MOL    H3737125   3.822   5.773   7.164 -1.2984  0.9022  1.6772
  305MOL    C3837126   3.865   5.979   7.218 -0.4993  0.5885  0.7163
  305MOL    C3937127   3.778   6.027   7.097  0.1783  0.1251 -0.5623
  305MOL    H4037128   3.811   5.998   7.311 -2.4735  0.4754 -0.3884
  305MOL    H4137129   3.960   6.032   7.211  0.0682 -0.6512 -1.2227
  305MOL    H4237130   3.805   5.983   7.001 -1.3862 -1.1326 -0.4641
  305MOL    H4337131   3.677   5.989   7.113 -0.3909  0.8762 -2.1821
  305MOL    C4437132   3.776   6.184   7.096  0.8560 -0.4214 -0.3097
  305MOL    C4537133   3.689   6.247   6.982  0.1535  0.0030  0.3017
  305MOL    H4637134   3.735   6.226   7.188  1.3833 -1.7438  0.5334
  305MOL    H4737135   3.876   6.223   7.076  1.9975 -2.2805  1.5156
  305MOL    H4837136   3.742   6.221   6.890  2.4106  2.0775  0.9314
  305MOL    H4937137   3.585   6.216   6.982  0.4190 -0.9310 -0.7975
  305MOL    C5037138   3.688   6.397   6.989 -0.1126 -0.4351  0.9536
  305MOL    C5137139   3.597   6.467   6.884 -0.2282  0.3785 -0.1112
  305MOL    H5237140   3.651   6.431   7.086 -3.3061  1.5339 -0.8967
  305MOL    H5337141   3.783   6.446   6.966  0.0249 -0.9072  0.5109
  305MOL    H5437142   3.589   6.408   6.792 -0.8868 -1.8192  1.3158
  305MOL    H5537143   3.492   6.456   6.913  0.0426 -2.5421 -0.0398
  305MOL    C5637144   3.630   6.617   6.854 -0.2731  0.6689 -0.1696
  305MOL    C5737145   3.554   6.673   6.732  0.4239 -0.0399  0.6580
  305MOL    H5837146   3.613   6.688   6.935 -0.8381  0.4975 -0.1322
  305MOL    H5937147   3.736   6.628   6.832 -0.6620 -1.5030 -3.5144
  305MOL    H6037148   3.584   6.605   6.652 -0.2550  0.8846 -0.3977
  305MOL    H6137149   3.448   6.660   6.754  0.6467 -1.4883  0.9132
  305MOL    C6237150   3.577   6.814   6.699 -0.3964 -0.1233 -0.1667
  305MOL    C6337151   3.556   6.848   6.552 -0.4478  0.7481  0.1141
  305MOL    H6437152   3.514   6.875   6.763  0.4654 -0.0856  0.6652
  305MOL    H6537153   3.678   6.834   6.737 -1.3473  2.8730  0.8799
  305MOL    H6637154   3.589   6.774   6.479 -2.7610 -1.6378  1.3860
  305MOL    H6737155   3.448   6.849   6.537 -0.2739 -1.8918 -1.6522
  305MOL    C6837156   3.613   6.980   6.512 -0.3210 -0.4825 -0.4994
  305MOL    C6937157   3.567   7.012   6.365 -0.4553 -0.0332  0.0088
  305MOL    H7037158   3.583   7.061   6.579 -0.6463  0.1319 -1.3762
  305MOL    H7137159   3.720   6.987   6.527 -0.8624 -0.1790  4.0055
  305MOL    H7237160   3.462   6.987   6.352 -0.9623  1.8353  0.3288
  305MOL    H7337161   3.584   7.117   6.341  3.3752 -0.1894  1.6447
  305MOL    C7437162   3.652   6.942   6.268  0.2782  0.8001  0.4520
  305MOL    C7537163   3.593   6.937   6.125 -1.0639 -0.0564 -0.1434
  305MOL    H7637164   3.745   6.997   6.255 -0.5747  2.4194  1.1281
  305MOL    H7737165   3.676   6.838   6.291  1.1137  1.3048  1.8980
  305MOL    H7837166   3.492   6.900   6.142 -0.5392 -0.7360  1.6278
  305MOL    H7937167   3.588   7.038   6.084  1.6543 -0.5647 -1.8243
  305MOL    C8037168   3.671   6.842   6.031  0.4933 -0.8843 -0.1051
  305MOL    C8137169   3.604   6.853   5.892 -0.5652 -0.6143 -0.2904
  305MOL    H8237170   3.776   6.871   6.031  0.3159 -0.1142  2.8458
  305MOL    H8337171   3.667   6.739   6.067  1.4534 -0.7370  0.4344
  305MOL    H8437172   3.499   6.842   5.920 -0.3996  1.9693  1.5879
  305MOL    H8537173   3.609   6.955   5.855  1.0918 -0.2103  0.9695
  305MOL    C8637174   3.643   6.750   5.785 -0.2573  0.5327  0.9944
  305MOL    C8737175   3.629   6.600   5.819  0.4508  0.0353  0.2774
  305MOL    H8837176   3.580   6.773   5.700 -0.5764 -2.3971  0.3998
  305MOL    H8937177   3.744   6.776   5.753 -0.1559 -1.0195  0.0252
  305MOL    H9037178   3.669   6.573   5.917  3.7188 -0.1534 -1.0651
  305MOL    H9137179   3.525   6.572   5.838  0.6090 -1.0397 -0.3509
  305MOL    C9237180   3.658   6.514   5.696  0.3506 -0.4941  0.1418
  305MOL    C9337181   3.626   6.367   5.734 -0.3048 -0.1064  0.6667
  305MOL    H9437182   3.612   6.546   5.602  0.4721 -0.8748 -0.0443
  305MOL    H9537183   3.765   6.511   5.677 -0.0931  2.5049 -3.3914
  305MOL    H9637184   3.701   6.330   5.804 -0.9243  1.3283  2.1095
  305MOL    H9737185   3.527   6.358   5.778 -0.9188  0.3404 -0.6137
  305MOL    C9837186   3.620   6.265   5.617 -0.3281 -0.2776  0.3809
  305MOL    C9937187   3.598   6.118   5.657 -0.2150  0.4062  0.3887
  305MOL   H10037188   3.542   6.305   5.552  1.0184 -1.1917 -1.8618
  305MOL   H10137189   3.713   6.276   5.562 -0.6856  2.4462  0.2444
  305MOL   H10237190   3.679   6.096   5.726  1.6813  1.7087 -1.3596
  305MOL   H10337191   3.504   6.107   5.711  1.1635 -3.1365  2.2428
  305MOL   C10437192   3.583   6.029   5.532  0.2989  0.1996  0.0354
  305MOL   C10537193   3.534   5.885   5.569  0.1494  0.4170  0.5419
  305MOL   H10637194   3.513   6.070   5.459  0.3485 -1.2349 -0.8564
  305MOL   H10737195   3.678   6.028   5.479 -0.1255  0.7519 -0.7548
  305MOL   H10837196   3.602   5.850   5.646 -1.0164  0.3242  1.5430
  305MOL   H10937197   3.438   5.895   5.619 -0.0881 -1.8608  0.6041
  305MOL   C11037198   3.516   5.788   5.456 -0.3033 -0.2544  0.3098
  305MOL   C11137199   3.500   5.647   5.504 -0.3855 -0.1909 -1.2772
  305MOL   H11237200   3.435   5.825   5.393 -0.7449 -1.3196  0.2518
  305MOL   H11337201   3.600   5.784   5.387 -0.8897  1.8624 -0.5686
  305MOL   H11437202   3.595   5.601   5.530 -0.8421 -1.3639 -1.6698
  305MOL   H11537203   3.439   5.650   5.594  1.1711 -0.5278 -0.1877
  305MOL   C11637204   3.429   5.557   5.399  0.2239 -0.1956  0.6525
  305MOL   C11737205   3.422   5.408   5.436 -0.2363  0.4113 -0.5850
  305MOL   H11837206   3.322   5.579   5.400  0.3984  0.7170 -0.5161
  305MOL   H11937207   3.465   5.581   5.299 -0.0588  0.3040  0.6716
  305MOL   H12037208   3.359   5.414   5.525 -1.3720 -0.5207 -1.3140
  305MOL   H12137209   3.386   5.344   5.356 -0.5855  0.3328 -0.3654
  305MOL   H12237210   3.519   5.361   5.455  0.6266  0.6555 -3.9893
  306MOL     C137211   5.212   3.073   0.941 -0.3893 -0.0465  0.0654
  306MOL     C237212   5.220   2.978   0.815  1.3193  0.8490 -0.1560
  306MOL     H337213   5.133   3.148   0.938  0.1024  0.4622 -0.0915
  306MOL     H437214   5.308   3.124   0.949 -0.3634 -0.3696  2.2598
  306MOL     H537215   5.280   2.890   0.841 -0.2159 -0.1055  0.2099
  306MOL     H637216   5.122   2.933   0.798  2.4150 -1.3601 -0.9251
  306MOL     H737217   5.204   3.011   1.031  1.6827 -2.8536 -1.5822
  306MOL     C837218   5.268   3.049   0.690 -0.2235 -0.3931  0.1693
  306MOL     C937219   5.274   2.972   0.561  0.2088 -0.3590  0.4403
  306MOL    H1037220   5.202   3.132   0.664  0.8043  0.1814 -0.6440
  306MOL    H1137221   5.369   3.080   0.719 -0.9810  0.8610  1.5297
  306MOL    H1237222   5.316   3.034   0.481 -0.8218  0.4465  0.5108
  306MOL    H1337223   5.351   2.898   0.583 -0.0389 -0.6953  0.1886
  306MOL    C1437224   5.146   2.903   0.517 -0.1745  0.8928  0.4036
  306MOL    C1537225   5.173   2.818   0.390  0.6116 -1.1615 -0.0325
  306MOL    H1637226   5.112   2.848   0.604  1.7515  0.6680  1.0437
  306MOL    H1737227   5.073   2.980   0.492  0.3356  1.5023  0.7754
  306MOL    H1837228   5.215   2.882   0.313  0.5785 -0.3044  0.6621
  306MOL    H1937229   5.249   2.748   0.424  0.6251 -1.1720 -0.0847
  306MOL    C2037230   5.040   2.751   0.331 -0.1699  0.2968  0.0268
  306MOL    C2137231   5.063   2.709   0.188 -0.6467 -0.4824 -0.7770
  306MOL    H2237232   5.030   2.662   0.393  1.0216 -1.4940 -2.2628
  306MOL    H2337233   4.965   2.830   0.333 -2.2144 -1.6372  1.7907
  306MOL    H2437234   5.098   2.792   0.127 -0.2939 -0.9946 -1.2744
  306MOL    H2537235   5.143   2.636   0.190  0.8933  1.2129  0.9320
  306MOL    C2637236   4.934   2.660   0.121  0.0491 -0.6844 -0.2733
  306MOL    C2737237   4.958   2.627   7.664 -0.4386 -0.0134 -0.1508
  306MOL    H2837238   4.898   2.574   0.177 -1.6849  0.6881  0.7759
  306MOL    H2937239   4.847   2.726   0.120 -0.7685 -1.7514 -1.3169
  306MOL    H3037240   5.009   2.712   7.617  1.7308 -1.8616 -1.2220
  306MOL    H3137241   5.046   2.563   7.660 -0.5121 -0.2793  1.8658
  306MOL    C3237242   4.830   2.576   7.593 -0.3214 -0.4728  0.3731
  306MOL    C3337243   4.839   2.548   7.445 -0.3655  0.4194  0.1944
  306MOL    H3437244   4.795   2.484   7.640  1.0959 -2.0990 -1.6066
  306MOL    H3537245   4.745   2.638   7.619  1.0843  1.5274  0.2942
  306MOL    H3637246   4.860   2.638   7.387 -0.1512  0.0263 -0.3446
  306MOL    H3737247   4.928   2.484   7.442 -0.5680  0.0066  2.3008
  306MOL    C3837248   4.715   2.472   7.386  0.2307  0.1379 -0.4094
  306MOL    C3937249   4.721   2.426   7.240  1.4719 -0.0111  0.4450
  306MOL    H4037250   4.705   2.379   7.441 -1.5690  1.5693  1.8082
  306MOL    H4137251   4.620   2.525   7.395 -0.3543 -0.7223 -1.4600
  306MOL    H4237252   4.682   2.509   7.182 -1.1797 -0.2300  1.8261
  306MOL    H4337253   4.825   2.426   7.209  0.7276  0.8557 -2.1684
  306MOL    C4437254   4.653   2.291   7.221  0.0016 -0.4614  0.2583
  306MOL    C4537255   4.665   2.244   7.081  0.5858  0.2430 -0.0896
  306MOL    H4637256   4.703   2.220   7.287 -1.3880 -0.3823  1.4141
  306MOL    H4737257   4.547   2.287   7.246 -0.1636  2.1703  0.1341
  306MOL    H4837258   4.593   2.163   7.075 -2.8652  3.1405  1.0271
  306MOL    H4937259   4.627   2.314   7.007  2.5595  1.1771 -0.2485
  306MOL    C5037260   4.807   2.188   7.041  0.4346  0.7612 -0.3607
  306MOL    C5137261   4.798   2.142   6.900  0.5528 -0.5015 -0.0099
  306MOL    H5237262   4.885   2.261   7.064  1.4677 -0.4725  0.0876
  306MOL    H5337263   4.821   2.099   7.102 -2.0003  1.1211  0.7758
  306MOL    H5437264   4.716   2.070   6.891  0.7767 -0.8635  0.7960
  306MOL    H5537265   4.766   2.226   6.838 -0.6954 -1.7588 -1.1227
  306MOL    C5637266   4.924   2.066   6.859  0.6491  0.3531  1.0067
  306MOL    C5737267   4.931   2.040   6.704  0.2990  0.4683 -0.3027
  306MOL    H5837268   5.013   2.123   6.887  0.3820  1.3811 -0.2280
  306MOL    H5937269   4.920   1.971   6.913 -1.9178  0.8647  1.7911
  306MOL    H6037270   4.839   1.988   6.677  0.5550 -0.9234  1.3427
  306MOL    H6137271   4.940   2.132   6.648 -3.5451 -0.2448 -2.2988
  306MOL    C6237272   5.044   1.945   6.657  0.1636  0.4842 -0.1128
  306MOL    C6337273   5.035   1.905   6.511 -0.6477 -0.7255  0.6000
  306MOL    H6437274   5.145   1.982   6.679 -0.1573  0.8785  0.7482
  306MOL    H6537275   5.043   1.857   6.720  1.6266 -0.5235 -1.4644
  306MOL    H6637276   5.041   1.989   6.441  0.2929  1.2172  2.9316
  306MOL    H6737277   5.125   1.847   6.492 -0.4187 -0.3035  0.3915
  306MOL    C6837278   4.919   1.807   6.480  1.1801  0.3352 -0.1279
  306MOL    C6937279   4.931   1.731   6.342 -0.0702  0.5922  0.0462
  306MOL    H7037280   4.925   1.721   6.547  2.2636 -0.0481 -0.7203
  306MOL    H7137281   4.818   1.843   6.499  0.2307 -0.7951 -2.8080
  306MOL    H7237282   4.848   1.661   6.330 -0.2275  0.8236 -0.2349
  306MOL    H7337283   4.945   1.804   6.262  1.1622  0.2784 -0.0249
  306MOL    C7437284   5.055   1.632   6.338  0.4082 -0.5732  0.8174
  306MOL    C7537285   5.069   1.558   6.202 -0.0825 -0.2604 -0.0136
  306MOL    H7637286   5.151   1.682   6.351 -0.7652  1.7114  0.9681
  306MOL    H7737287   5.044   1.561   6.421 -1.6099 -0.3768  0.7437
  306MOL    H7837288   4.977   1.518   6.161 -0.1149 -0.5584  0.3451
  306MOL    H7937289   5.093   1.633   6.127 -0.6840  1.2773  1.2910
  306MOL    C8037290   5.170   1.447   6.222 -0.1695 -0.0269 -0.6471
  306MOL    C8137291   5.191   1.344   6.116 -0.4902 -0.0988  0.4141
  306MOL    H8237292   5.262   1.490   6.261 -1.8564  2.3823  0.7957
  306MOL    H8337293   5.147   1.393   6.314  0.6173  1.5732  0.5017
  306MOL    H8437294   5.195   1.240   6.148 -0.1617 -0.6442 -1.3110
  306MOL    H8537295   5.093   1.346   6.067 -0.6907  1.4626  0.8620
  306MOL    C8637296   5.303   1.371   6.019 -0.0308  0.7631 -0.3563
  306MOL    C8737297   5.304   1.511   5.953 -0.0689  0.3009 -0.2017
  306MOL    H8837298   5.396   1.363   6.074 -0.1522  1.2534 -0.0714
  306MOL    H8937299   5.303   1.298   5.938 -0.2791  0.5667 -0.1791
  306MOL    H9037300   5.209   1.512   5.900 -0.8466 -0.4943  1.1392
  306MOL    H9137301   5.303   1.596   6.021 -0.5190  0.3401 -0.2579
  306MOL    C9237302   5.409   1.518   5.838  0.3580  0.6279  0.5079
  306MOL    C9337303   5.412   1.662   5.787 -0.0541 -0.2842 -0.3453
  306MOL    H9437304   5.501   1.511   5.895  0.7798  1.8858 -0.0171
  306MOL    H9537305   5.403   1.429   5.775  2.4953  0.3377  0.6880
  306MOL    H9637306   5.433   1.720   5.877  0.2796 -1.8165  0.5925
  306MOL    H9737307   5.509   1.692   5.746  0.9288 -0.1144  2.0092
  306MOL    C9837308   5.293   1.708   5.707 -0.7731 -0.1724  0.2732
  306MOL    C9937309   5.288   1.861   5.694 -0.3914 -0.4160  0.3814
  306MOL   H10037310   5.277   1.662   5.609 -3.5680 -2.7416  1.8256
  306MOL   H10137311   5.197   1.684   5.753 -0.2748 -1.5388  0.6489
  306MOL   H10237312   5.275   1.896   5.796  1.0467 -1.9695  1.1284
  306MOL   H10337313   5.385   1.886   5.651 -1.3424 -0.7180 -2.0515
  306MOL   C10437314   5.171   1.903   5.606  0.3929  0.1095  0.5202
  306MOL   C10537315   5.156   2.053   5.587  0.0421 -0.4496  0.1128
  306MOL   H10637316   5.180   1.863   5.505 -1.1296  1.9374 -0.3738
  306MOL   H10737317   5.090   1.845   5.651 -1.0010 -1.0605 -3.3604
  306MOL   H10837318   5.132   2.101   5.682  2.1096 -1.9239  1.4297
  306MOL   H10937319   5.250   2.088   5.542 -1.0830  1.1763 -1.0299
  306MOL   C11037320   5.042   2.079   5.496  0.6483  0.5676 -1.0929
  306MOL   C11137321   5.040   2.225   5.456 -0.3994 -0.7775 -0.0227
  306MOL   H11237322   5.064   2.020   5.407  0.5960  1.5383 -1.7605
  306MOL   H11337323   4.946   2.046   5.536  0.6012  1.4611 -0.4622
  306MOL   H11437324   5.141   2.261   5.434  0.0448 -2.6345 -1.1892
  306MOL   H11537325   4.987   2.227   5.361  0.9641  2.5367 -0.7900
  306MOL   C11637326   4.977   2.333   5.550 -0.4665  0.5012 -0.3825
  306MOL   C11737327   4.974   2.473   5.495 -0.5822  0.2710  0.0440
  306MOL   H11837328   4.875   2.297   5.563  0.3755 -0.8195  3.1421
  306MOL   H11937329   5.024   2.323   5.648  0.4919 -0.5049 -0.9320
  306MOL   H12037330   4.899   2.482   5.416 -1.8300 -1.3001  1.0175
  306MOL   H12137331   4.945   2.545   5.572 -2.8590  0.8088 -1.2667
  306MOL   H12237332   5.073   2.508   5.467 -0.8222  0.5051 -0.5164
  307MOL     C137333   3.294   6.173   2.523 -0.2325 -0.2335  0.3064
  307MOL     C237334   3.283   6.023   2.493  0.0527  0.5322  0.8894
  307MOL     H337335   3.232   6.231   2.455  2.1506 -1.2628 -2.8249
  307MOL     H437336   3.398   6.198   2.499 -0.4950  2.8550  2.0992
  307MOL     H537337   3.328   6.017   2.395  3.1740 -1.5778  2.3743
  307MOL     H637338   3.344   5.956   2.555  0.3887  0.1978  0.1993
  307MOL     H737339   3.278   6.187   2.630  1.5865 -0.0220  0.5761
  307MOL     C837340   3.132   5.976   2.494  0.6494  0.9576 -0.5511
  307MOL     C937341   3.119   5.825   2.473 -0.2327  0.7382  0.0237
  307MOL    H1037342   3.085   6.012   2.585 -0.6483 -1.3027 -0.2725
  307MOL    H1137343   3.087   6.027   2.409 -2.8862 -2.8772 -1.1829
  307MOL    H1237344   3.014   5.797   2.478  0.2023 -0.5921  2.5243
  307MOL    H1337345   3.146   5.793   2.372  0.7871 -0.3179  0.6177
  307MOL    C1437346   3.200   5.747   2.576  0.2262  0.1571  0.9732
  307MOL    C1537347   3.152   5.600   2.586  0.1708 -0.4278  0.4641
  307MOL    H1637348   3.302   5.745   2.537 -0.4664 -1.9025 -0.8038
  307MOL    H1737349   3.186   5.802   2.670 -1.0914 -0.6750  1.2764
  307MOL    H1837350   3.046   5.606   2.611  0.1584 -1.5453  0.7085
  307MOL    H1937351   3.176   5.553   2.491 -0.3348  0.1006  0.0743
  307MOL    C2037352   3.223   5.511   2.680  0.0581  0.1971 -0.0366
  307MOL    C2137353   3.149   5.380   2.701 -0.5567  0.5347 -0.1775
  307MOL    H2237354   3.321   5.492   2.637  0.3795  0.8608  0.3995
  307MOL    H2337355   3.251   5.556   2.776  1.2217 -0.0508 -0.2490
  307MOL    H2437356   3.135   5.339   2.601 -0.4427 -1.2238  0.5016
  307MOL    H2537357   3.213   5.305   2.749 -0.0591 -0.3583 -2.1775
  307MOL    C2637358   3.021   5.386   2.782 -0.0317  0.7057  0.5684
  307MOL    C2737359   2.924   5.277   2.752  0.5921 -0.0289  0.5049
  307MOL    H2837360   3.048   5.370   2.886  2.3923  0.0013 -0.1300
  307MOL    H2937361   2.966   5.478   2.764 -1.2757 -0.2257 -0.5184
  307MOL    H3037362   2.914   5.285   2.643  0.3637 -1.6448  0.3972
  307MOL    H3137363   2.961   5.178   2.779  1.2285  0.3907  1.2046
  307MOL    C3237364   2.787   5.284   2.811 -0.3871  0.5135 -0.9364
  307MOL    C3337365   2.688   5.176   2.766  0.1103  0.2205 -0.5243
  307MOL    H3437366   2.797   5.269   2.919  2.7523 -2.0602 -1.4850
  307MOL    H3537367   2.753   5.380   2.773 -0.7107 -0.1631 -2.4053
  307MOL    H3637368   2.586   5.214   2.775  0.0244  1.5070 -5.3338
  307MOL    H3737369   2.696   5.164   2.658  0.9539 -1.2784 -0.3084
  307MOL    C3837370   2.706   5.037   2.821  0.0533 -0.2769  0.1436
  307MOL    C3937371   2.604   4.930   2.778  0.1545  0.0932 -0.1864
  307MOL    H4037372   2.809   5.004   2.803  0.0590 -0.1872  0.0085
  307MOL    H4137373   2.705   5.040   2.930  0.3259 -2.4330  0.2417
  307MOL    H4237374   2.502   4.963   2.797 -0.2085 -1.3623  0.4303
  307MOL    H4337375   2.617   4.922   2.670  0.4423 -1.1462 -0.0716
  307MOL    C4437376   2.640   4.794   2.837  0.2757  0.5133  0.0241
  307MOL    C4537377   2.521   4.695   2.822 -0.2956 -0.7711 -0.1305
  307MOL    H4637378   2.725   4.750   2.787 -0.1717 -0.2083 -0.1127
  307MOL    H4737379   2.674   4.809   2.940  0.4453 -0.7613  0.1517
  307MOL    H4837380   2.436   4.717   2.886 -1.7364 -1.4552 -1.7589
  307MOL    H4937381   2.489   4.697   2.717 -3.3953  0.7034  0.7757
  307MOL    C5037382   2.566   4.556   2.845  0.4259  0.0491 -0.0908
  307MOL    C5137383   2.469   4.439   2.811 -0.3273 -0.1015 -0.9414
  307MOL    H5237384   2.660   4.549   2.789  0.7176 -4.7207  0.7844
  307MOL    H5337385   2.596   4.540   2.948 -1.0165 -1.8249  0.0619
  307MOL    H5437386   2.366   4.458   2.843 -0.1433  0.6916 -0.8069
  307MOL    H5537387   2.469   4.446   2.702  2.6771 -0.5544 -1.0117
  307MOL    C5637388   2.518   4.295   2.855  0.6920  0.2551 -0.1225
  307MOL    C5737389   2.403   4.198   2.839  0.2129  0.4678 -0.1497
  307MOL    H5837390   2.604   4.267   2.794  1.3713 -0.1473  1.0060
  307MOL    H5937391   2.548   4.299   2.959  2.0642  1.2313 -0.5322
  307MOL    H6037392   2.319   4.228   2.902 -1.0848  2.4709 -2.7519
  307MOL    H6137393   2.368   4.198   2.736 -0.3443 -1.0728  0.0288
  307MOL    C6237394   2.450   4.053   2.881 -0.7186  0.1499  0.0135
  307MOL    C6337395   2.337   3.950   2.864 -0.0419 -0.0934  0.0804
  307MOL    H6437396   2.538   4.034   2.819 -0.7563  0.2994 -0.0862
  307MOL    H6537397   2.493   4.056   2.981 -0.5244 -2.2166  0.0332
  307MOL    H6637398   2.268   3.963   2.947 -1.5665 -2.5542 -0.7515
  307MOL    H6737399   2.280   3.970   2.773  0.6909 -1.4037 -0.6955
  307MOL    C6837400   2.393   3.801   2.862 -0.0281 -0.5548 -0.1415
  307MOL    C6937401   2.285   3.701   2.868  0.0802  0.0326 -0.0456
  307MOL    H7037402   2.446   3.797   2.766  0.5413  0.6413  0.1127
  307MOL    H7137403   2.471   3.782   2.936  0.9019 -1.4594 -1.3229
  307MOL    H7237404   2.200   3.742   2.813 -1.1360 -0.7739  1.1934
  307MOL    H7337405   2.310   3.612   2.812 -4.8264  0.3022 -2.9430
  307MOL    C7437406   2.233   3.667   3.011  0.8956  0.9312 -0.5493
  307MOL    C7537407   2.150   3.535   3.003 -0.2995  0.4114 -0.1002
  307MOL    H7637408   2.318   3.649   3.077  1.1820 -0.0450 -1.1849
  307MOL    H7737409   2.166   3.748   3.041  0.0315  0.4112 -1.0589
  307MOL    H7837410   2.063   3.553   2.939  1.1417 -0.3808 -2.3325
  307MOL    H7937411   2.202   3.450   2.959 -0.8115  0.1779 -0.2612
  307MOL    C8037412   2.103   3.496   3.150  0.1672 -0.2732  0.0670
  307MOL    C8137413   2.021   3.367   3.150 -0.2091  0.3471  0.0229
  307MOL    H8237414   2.194   3.474   3.205 -1.6857 -2.2151  2.4683
  307MOL    H8337415   2.057   3.583   3.196  1.9498  0.3040  0.7914
  307MOL    H8437416   2.071   3.273   3.127 -2.2455 -0.8596  0.3556
  307MOL    H8537417   1.990   3.355   3.254 -0.5363  3.1884  0.2929
  307MOL    C8637418   1.893   3.375   3.058  1.0464  0.0979  0.7048
  307MOL    C8737419   1.765   3.322   3.126 -0.2432 -0.4093  0.1864
  307MOL    H8837420   1.867   3.473   3.019 -0.7795 -1.5011 -2.2897
  307MOL    H8937421   1.905   3.324   2.963 -2.1744 -1.2235  0.9269
  307MOL    H9037422   1.725   3.394   3.197 -0.9319  1.5260 -2.1004
  307MOL    H9137423   1.685   3.307   3.053 -1.3584 -1.2760  1.5820
  307MOL    C9237424   1.788   3.184   3.199 -0.3884 -0.6617 -0.7936
  307MOL    C9337425   1.661   3.118   3.244  0.2938 -0.1719 -0.3159
  307MOL    H9437426   1.839   3.120   3.127  0.6451  0.4904 -1.1002
  307MOL    H9537427   1.855   3.179   3.285 -0.0892 -0.7698 -1.0322
  307MOL    H9637428   1.611   3.187   3.312 -0.2972  0.0968 -1.0154
  307MOL    H9737429   1.585   3.101   3.168  0.8231 -1.3202 -0.5911
  307MOL    C9837430   1.695   2.981   3.319 -0.4593 -0.1492 -0.2033
  307MOL    C9937431   1.572   2.922   3.402 -0.0124 -0.8601 -0.3560
  307MOL   H10037432   1.720   2.906   3.244 -1.8162 -3.2860  2.3476
  307MOL   H10137433   1.785   2.995   3.379 -1.2486 -2.2754  1.5531
  307MOL   H10237434   1.559   2.996   3.481  1.7835  0.6033 -1.4093
  307MOL   H10337435   1.478   2.921   3.348  0.2558  0.1046 -0.8356
  307MOL   C10437436   1.602   2.789   3.475 -0.5666  0.5878  0.0426
  307MOL   C10537437   1.486   2.764   3.574 -0.5078  0.2861  0.3327
  307MOL   H10637438   1.606   2.720   3.391 -1.4454  0.3266  0.2070
  307MOL   H10737439   1.697   2.808   3.525  0.1461  1.3017 -1.5647
  307MOL   H10837440   1.501   2.842   3.648 -3.2388  1.3615 -0.1813
  307MOL   H10937441   1.396   2.790   3.518 -1.1105  0.8751  1.5522
  307MOL   C11037442   1.491   2.626   3.642  0.5747  0.0583  0.3393
  307MOL   C11137443   1.375   2.605   3.747  1.0629  0.6303 -0.1258
  307MOL   H11237444   1.489   2.546   3.568  2.1710  0.9962 -0.7444
  307MOL   H11337445   1.590   2.616   3.686  1.0317  2.0501 -0.1783
  307MOL   H11437446   1.282   2.593   3.691  0.3482 -1.3808  1.4112
  307MOL   H11537447   1.384   2.507   3.795  0.6429 -0.3961 -2.0741
  307MOL   C11637448   1.359   2.701   3.866  0.1562 -0.3608  0.1361
  307MOL   C11737449   1.222   2.689   3.930  0.1194  0.7423 -0.0354
  307MOL   H11837450   1.439   2.680   3.938 -0.7709  2.1146  1.9310
  307MOL   H11937451   1.370   2.804   3.831 -2.7401  0.0881  0.4929
  307MOL   H12037452   1.229   2.678   4.039 -2.5208  2.7074  0.3998
  307MOL   H12137453   1.149   2.767   3.912 -0.5227  0.2405  0.3604
  307MOL   H12237454   1.168   2.605   3.887  2.7305 -1.2578  0.4484
  308MOL     C137455   5.029   4.837   6.730 -0.3062 -0.3821 -0.1859
  308MOL     C237456   5.146   4.888   6.812  0.1938 -0.1373 -0.0895
  308MOL     H337457   5.044   4.809   6.626 -1.3858  1.2012 -0.8012
  308MOL     H437458   4.944   4.906   6.735  0.0631 -0.0128  1.5061
  308MOL     H537459   5.227   4.815   6.813  0.3260  0.0146  0.9855
  308MOL     H637460   5.194   4.974   6.764 -1.8133  1.2170  0.2502
  308MOL     H737461   4.994   4.759   6.798 -1.7048  3.0920  3.2974
  308MOL     C837462   5.099   4.943   6.950 -0.0831  0.5732  0.2125
  308MOL     C937463   5.086   4.837   7.056 -0.3191  0.0812 -0.5516
  308MOL    H1037464   5.173   5.018   6.978  0.0337  0.4828  0.1466
  308MOL    H1137465   5.005   4.995   6.937 -0.0810  0.0615 -2.1564
  308MOL    H1237466   5.019   4.758   7.024  1.3109 -1.5692  0.0420
  308MOL    H1337467   5.180   4.784   7.068  0.1065  0.6053 -1.4797
  308MOL    C1437468   5.043   4.888   7.201 -0.0544  1.0072 -0.3473
  308MOL    C1537469   5.005   4.767   7.288 -0.6023 -0.1061  0.1912
  308MOL    H1637470   5.119   4.956   7.240  1.0589  0.1508 -0.9592
  308MOL    H1737471   4.963   4.961   7.195 -1.0193  0.0007  0.2483
  308MOL    H1837472   4.932   4.704   7.237 -2.8580  3.6093 -1.3644
  308MOL    H1937473   5.093   4.708   7.315 -0.6223 -0.6592 -0.9106
  308MOL    C2037474   4.951   4.804   7.426  0.1779 -0.5785 -0.1358
  308MOL    C2137475   4.873   4.685   7.498  0.6496  0.1198  0.1778
  308MOL    H2237476   5.024   4.862   7.483 -0.0917  0.5573 -0.9272
  308MOL    H2337477   4.871   4.877   7.413 -0.6418 -1.0582  1.9769
  308MOL    H2437478   4.795   4.668   7.424 -0.0601  0.9016  0.7378
  308MOL    H2537479   4.928   4.593   7.518  0.3076 -0.4380 -1.4397
  308MOL    C2637480   4.811   4.734   7.629 -0.1734 -0.4949 -0.4431
  308MOL    C2737481   4.698   4.647   0.004  0.1820  0.2794  0.5791
  308MOL    H2837482   4.895   4.748   0.005 -0.2291 -2.3613  0.0351
  308MOL    H2937483   4.769   4.834   7.614  1.5711  0.1901 -0.8195
  308MOL    H3037484   4.607   4.649   7.637  0.6760 -0.5053 -0.2300
  308MOL    H3137485   4.733   4.544   0.007  0.3475  0.3424  0.8699
  308MOL    C3237486   4.656   4.691   0.146 -0.0332 -0.5846  0.6346
  308MOL    C3337487   4.588   4.582   0.220 -0.8241  0.1741 -1.0959
  308MOL    H3437488   4.743   4.727   0.201 -0.5751  1.0991  0.4435
  308MOL    H3537489   4.595   4.782   0.156 -0.6567 -0.6538 -2.1539
  308MOL    H3637490   4.489   4.574   0.176 -2.4984 -2.8975  2.8615
  308MOL    H3737491   4.646   4.490   0.216 -0.2550  0.4429  0.5566
  308MOL    C3837492   4.552   4.616   0.361  0.1241  0.8962 -0.1695
  308MOL    C3937493   4.482   4.503   0.437  0.6457 -0.7423 -0.4046
  308MOL    H4037494   4.646   4.634   0.414  0.7455 -0.4296 -0.7931
  308MOL    H4137495   4.496   4.709   0.368 -0.3459  0.5561  0.5785
  308MOL    H4237496   4.451   4.552   0.530 -2.3799 -0.3403 -1.5585
  308MOL    H4337497   4.390   4.468   0.390  0.8098 -0.0888 -1.2245
  308MOL    C4437498   4.571   4.386   0.483 -0.2460 -0.1107  0.2525
  308MOL    C4537499   4.505   4.301   0.588  0.3800 -0.1693  0.0746
  308MOL    H4637500   4.575   4.329   0.390  0.4006  0.3148  0.0100
  308MOL    H4737501   4.674   4.409   0.509 -0.4148 -0.7883  1.5274
  308MOL    H4837502   4.496   4.366   0.674  0.5787 -0.5160  0.3597
  308MOL    H4937503   4.403   4.284   0.553  0.3213  1.4852 -0.6122
  308MOL    C5037504   4.582   4.177   0.621 -0.1814  0.0149 -0.1559
  308MOL    C5137505   4.503   4.061   0.681  0.0123  0.0611  0.6623
  308MOL    H5237506   4.632   4.136   0.534  0.0541 -1.2450  0.5661
  308MOL    H5337507   4.673   4.190   0.680 -1.8680 -1.3470  2.8848
  308MOL    H5437508   4.451   4.099   0.769 -0.8865  1.7923 -0.5651
  308MOL    H5537509   4.416   4.034   0.620 -1.1198  3.0082  0.8799
  308MOL    C5637510   4.595   3.947   0.727  0.0769  0.2775  0.6668
  308MOL    C5737511   4.706   3.974   0.827 -0.1351  0.2059 -0.1515
  308MOL    H5837512   4.531   3.861   0.747 -1.0934  1.0384  0.2355
  308MOL    H5937513   4.646   3.901   0.642  1.4622  0.5937  1.3163
  308MOL    H6037514   4.753   3.878   0.850  0.6057 -0.2513 -3.2995
  308MOL    H6137515   4.784   4.030   0.774  1.6634  0.0535  2.2222
  308MOL    C6237516   4.673   4.049   0.954  0.1127 -0.1628  0.7900
  308MOL    C6337517   4.785   4.057   1.057 -0.1476 -0.3320 -0.4553
  308MOL    H6437518   4.644   4.153   0.937  0.1043 -0.0882  1.2345
  308MOL    H6537519   4.587   3.999   0.999  0.3891 -0.4998  0.9386
  308MOL    H6637520   4.839   3.963   1.060 -1.7005 -1.2590 -0.8633
  308MOL    H6737521   4.862   4.109   1.000 -0.5447  1.0556  0.2529
  308MOL    C6837522   4.770   4.132   1.195 -0.3552  0.1638  0.3651
  308MOL    C6937523   4.775   4.277   1.173  0.3304 -0.7203 -0.1473
  308MOL    H7037524   4.681   4.107   1.253 -0.5986 -1.4442 -0.6634
  308MOL    H7137525   4.855   4.102   1.256  0.5885 -0.5756 -1.2718
  308MOL    H7237526   4.858   4.298   1.106  0.1849  3.6951  0.8998
  308MOL    H7337527   4.686   4.321   1.128 -0.1081 -0.7312  0.6932
  308MOL    C7437528   4.795   4.352   1.303  0.9867 -1.2281  0.3360
  308MOL    C7537529   4.813   4.508   1.288 -0.1119  0.3936  0.2105
  308MOL    H7637530   4.727   4.323   1.383  0.1775  3.2548  1.4039
  308MOL    H7737531   4.896   4.327   1.338  1.2469  1.5144  1.6084
  308MOL    H7837532   4.847   4.536   1.388  1.3898  1.0435 -0.4706
  308MOL    H7937533   4.894   4.533   1.220  0.2338  2.8198  1.4750
  308MOL    C8037534   4.693   4.583   1.238 -0.4490  0.2206  0.0364
  308MOL    C8137535   4.568   4.555   1.329  0.2329 -0.6820  0.0199
  308MOL    H8237536   4.718   4.688   1.230  0.2263  0.0314 -0.3888
  308MOL    H8337537   4.672   4.547   1.137  2.2454  0.4676 -0.6432
  308MOL    H8437538   4.572   4.452   1.365 -0.4238 -0.0095  2.0904
  308MOL    H8537539   4.562   4.619   1.418 -0.4515 -0.8302  0.0772
  308MOL    C8637540   4.438   4.565   1.250  0.3040 -0.6798 -0.2412
  308MOL    C8737541   4.319   4.546   1.342 -0.4296 -0.3262 -0.5614
  308MOL    H8837542   4.429   4.659   1.196  1.4415 -0.1732  0.4204
  308MOL    H8937543   4.444   4.487   1.174 -0.4905  1.8303 -2.9984
  308MOL    H9037544   4.326   4.444   1.379  1.9114 -0.4010 -1.0903
  308MOL    H9137545   4.314   4.610   1.430 -0.5489 -2.0096  0.6706
  308MOL    C9237546   4.182   4.548   1.268  0.6914  0.4863  0.0815
  308MOL    C9337547   4.055   4.525   1.352 -0.6376  0.2175  0.7580
  308MOL    H9437548   4.187   4.639   1.210  1.6880  0.5579  0.2844
  308MOL    H9537549   4.182   4.467   1.195  0.7739  3.4440 -3.3255
  308MOL    H9637550   4.066   4.422   1.386 -1.0322 -0.2418 -0.4778
  308MOL    H9737551   4.048   4.597   1.434 -0.8054  0.3405  0.6364
  308MOL    C9837552   3.937   4.530   1.268 -0.1265  0.7728  0.1951
  308MOL    C9937553   3.812   4.582   1.335  0.2143 -0.2656 -0.4684
  308MOL   H10037554   3.958   4.597   1.184 -1.0517  0.8233  0.0070
  308MOL   H10137555   3.909   4.436   1.221 -0.6511  1.3854 -0.7368
  308MOL   H10237556   3.792   4.506   1.411 -0.9944 -0.6748 -1.1870
  308MOL   H10337557   3.832   4.678   1.384  0.6391  0.1469 -1.4471
  308MOL   C10437558   3.691   4.586   1.236  0.0199  0.4204  0.1381
  308MOL   C10537559   3.561   4.620   1.303 -0.1528 -0.2777  0.2464
  308MOL   H10637560   3.708   4.665   1.161  0.7266 -0.7442 -0.9551
  308MOL   H10737561   3.682   4.491   1.184  1.6100 -0.0506  0.6935
  308MOL   H10837562   3.535   4.529   1.358  1.4250 -1.1103 -0.3516
  308MOL   H10937563   3.583   4.691   1.383  2.0117 -1.0927  0.4144
  308MOL   C11037564   3.439   4.653   1.222  0.3035 -0.2409  0.0926
  308MOL   C11137565   3.308   4.692   1.306  0.0088 -0.1456 -0.4389
  308MOL   H11237566   3.463   4.735   1.155 -1.8661 -2.1200 -3.1448
  308MOL   H11337567   3.401   4.568   1.165  0.5574 -0.2426 -0.0729
  308MOL   H11437568   3.293   4.608   1.374 -0.2397  0.8152  0.7305
  308MOL   H11537569   3.335   4.783   1.361  0.3716 -0.3061 -0.3486
  308MOL   C11637570   3.177   4.732   1.245  0.2955 -0.0431  0.4743
  308MOL   C11737571   3.179   4.872   1.177  0.3788  0.1122  0.0664
  308MOL   H11837572   3.156   4.665   1.161 -0.9848  1.2946 -0.2886
  308MOL   H11937573   3.101   4.735   1.323  1.9219  0.7753  2.0562
  308MOL   H12037574   3.205   4.951   1.248  0.6300  0.4312 -0.3790
  308MOL   H12137575   3.251   4.862   1.096 -1.9910 -0.1882 -2.0701
  308MOL   H12237576   3.083   4.896   1.131 -0.4388 -0.2277  1.5689
  309MOL     C137577   3.513   4.332   3.939  0.0318  0.1227 -0.4748
  309MOL     C237578   3.380   4.358   3.864  0.3588  0.0401 -0.5071
  309MOL     H337579   3.528   4.402   4.022 -0.2653 -0.6280  0.2142
  309MOL     H437580   3.596   4.350   3.871 -0.5508  0.6285 -1.0523
  309MOL     H537581   3.370   4.297   3.774  0.2799 -0.6576 -0.0275
  309MOL     H637582   3.298   4.336   3.932 -0.6909 -0.3667 -1.8765
  309MOL     H737583   3.509   4.228   3.971 -1.5137 -0.1716 -1.5940
  309MOL     C837584   3.365   4.503   3.824  0.7437 -0.6396  0.2250
  309MOL     C937585   3.330   4.606   3.934  0.8840 -0.2212  0.0518
  309MOL    H1037586   3.452   4.547   3.777  0.0951  2.7149  1.9715
  309MOL    H1137587   3.283   4.501   3.752  0.2712  1.4094  0.6758
  309MOL    H1237588   3.245   4.578   3.995 -0.0640 -0.2553 -1.2767
  309MOL    H1337589   3.409   4.617   4.009 -1.1136  1.0238  2.0309
  309MOL    C1437590   3.313   4.750   3.885  0.5693 -0.1328  0.3796
  309MOL    C1537591   3.270   4.848   3.994 -0.5414  0.0241  0.0359
  309MOL    H1637592   3.411   4.774   3.846  0.4137  1.2363  0.8237
  309MOL    H1737593   3.253   4.761   3.794  1.6080  4.2130  0.1252
  309MOL    H1837594   3.172   4.811   4.022 -0.6986  0.2415 -0.2185
  309MOL    H1937595   3.335   4.835   4.081 -0.8343  0.2440  0.2894
  309MOL    C2037596   3.253   4.995   3.960  0.0651 -0.1154  0.2806
  309MOL    C2137597   3.193   5.073   4.067  0.6188 -0.2507 -0.5873
  309MOL    H2237598   3.350   5.037   3.933  0.8799 -1.4421  1.0790
  309MOL    H2337599   3.189   5.013   3.873 -0.7519 -0.2624  0.8473
  309MOL    H2437600   3.090   5.039   4.083  0.9411 -1.1834 -0.4377
  309MOL    H2537601   3.242   5.061   4.164  0.0288  1.9154 -0.0071
  309MOL    C2637602   3.190   5.226   4.039  0.5936  0.0771 -0.6969
  309MOL    C2737603   3.107   5.295   4.147  0.4931 -0.1964 -0.0840
  309MOL    H2837604   3.295   5.257   4.034  0.4214  1.4429  2.5634
  309MOL    H2937605   3.149   5.249   3.941 -1.3126 -0.3376 -0.0163
  309MOL    H3037606   3.008   5.253   4.132  0.1772  0.5654 -0.1547
  309MOL    H3137607   3.141   5.272   4.248 -0.3816  0.1335  0.2913
  309MOL    C3237608   3.103   5.445   4.120  0.3791  0.8812 -0.2950
  309MOL    C3337609   3.007   5.510   4.221  0.0106  0.0969 -0.5499
  309MOL    H3437610   3.203   5.487   4.125  1.4916 -1.8965  1.7278
  309MOL    H3537611   3.065   5.461   4.019 -0.3470 -2.2096 -0.5691
  309MOL    H3637612   2.903   5.484   4.201  0.1726 -3.2825  2.5057
  309MOL    H3737613   3.016   5.473   4.322  0.2663  1.9229  0.1221
  309MOL    C3837614   3.014   5.665   4.218  0.2396  0.1832 -0.5527
  309MOL    C3937615   2.932   5.723   4.324 -0.5167  0.0108  0.0893
  309MOL    H4037616   3.119   5.688   4.234  0.1103  0.0296  0.5263
  309MOL    H4137617   2.987   5.702   4.119 -1.3513 -0.6010 -0.4274
  309MOL    H4237618   2.825   5.711   4.304 -0.6862  0.5474  0.6850
  309MOL    H4337619   2.961   5.663   4.410  0.0569 -1.4961 -1.1263
  309MOL    C4437620   2.958   5.873   4.337 -0.0206  0.0295 -0.0711
  309MOL    C4537621   2.840   5.951   4.407  0.1677  0.1824 -0.0931
  309MOL    H4637622   3.051   5.898   4.388 -0.5306 -0.1314  0.9619
  309MOL    H4737623   2.965   5.908   4.234  1.7242 -1.3675 -0.4359
  309MOL    H4837624   2.741   5.920   4.374  0.2504 -1.0037  0.7352
  309MOL    H4937625   2.843   5.927   4.513 -1.8464 -1.7145 -0.4170
  309MOL    C5037626   2.848   6.106   4.389 -0.0529  0.9148 -0.0121
  309MOL    C5137627   2.723   6.176   4.450 -0.9322  0.0127 -0.2908
  309MOL    H5237628   2.936   6.139   4.445  2.4626 -1.3041 -2.4854
  309MOL    H5337629   2.865   6.139   4.287 -0.5603  2.2302  0.3243
  309MOL    H5437630   2.639   6.158   4.382  0.7462  0.7527 -2.6518
  309MOL    H5537631   2.692   6.129   4.543 -0.4640 -1.3044 -0.7868
  309MOL    C5637632   2.731   6.331   4.472 -0.0933  0.3169  0.3961
  309MOL    C5737633   2.599   6.410   4.502 -0.8219  0.4815  0.1895
  309MOL    H5837634   2.805   6.345   4.551  0.3443  0.3233 -0.0164
  309MOL    H5937635   2.772   6.369   4.378 -0.4826  0.6502  0.3589
  309MOL    H6037636   2.516   6.366   4.447 -1.5011  2.3673 -0.3032
  309MOL    H6137637   2.582   6.389   4.608 -1.2812  0.1837  0.0604
  309MOL    C6237638   2.614   6.558   4.469 -0.6641  0.3891 -0.0105
  309MOL    C6337639   2.485   6.631   4.485  0.4235 -0.3829  0.0744
  309MOL    H6437640   2.681   6.595   4.548  1.8483 -0.7131 -1.5552
  309MOL    H6537641   2.668   6.578   4.377  1.4004  1.3876  1.3632
  309MOL    H6637642   2.399   6.574   4.451  0.6251 -1.1395  0.8195
  309MOL    H6737643   2.454   6.634   4.590 -0.5947  1.8138 -0.2576
  309MOL    C6837644   2.486   6.772   4.417  0.1478 -0.2518  0.7276
  309MOL    C6937645   2.351   6.847   4.434 -0.1889  0.0814  0.2239
  309MOL    H7037646   2.568   6.830   4.458 -0.9842  2.8372 -1.1593
  309MOL    H7137647   2.502   6.766   4.309 -0.1563 -1.7648  0.7498
  309MOL    H7237648   2.265   6.789   4.402 -0.8548  0.4660  1.2986
  309MOL    H7337649   2.348   6.852   4.543  0.4253  2.5607  0.1601
  309MOL    C7437650   2.353   6.987   4.385 -0.1340 -0.0047  0.5338
  309MOL    C7537651   2.370   7.004   4.233 -0.1039 -0.6487  0.0264
  309MOL    H7637652   2.252   7.019   4.410 -0.9435  0.2615 -2.8061
  309MOL    H7737653   2.421   7.047   4.445 -0.8350  2.5691 -1.1647
  309MOL    H7837654   2.476   7.010   4.210  0.1848 -0.6230  1.3284
  309MOL    H7937655   2.328   6.916   4.183  0.9768 -1.7741  1.0613
  309MOL    C8037656   2.297   7.135   4.189  0.6753  0.3412  0.6730
  309MOL    C8137657   2.285   7.148   4.040  0.0332 -0.2252 -0.1242
  309MOL    H8237658   2.192   7.143   4.219  0.6231  1.5041  0.2240
  309MOL    H8337659   2.343   7.227   4.227  1.9746 -0.1181  0.2060
  309MOL    H8437660   2.223   7.072   3.994 -0.7554 -0.0791  0.6969
  309MOL    H8537661   2.234   7.244   4.024 -0.4612 -0.6131 -0.9070
  309MOL    C8637662   2.418   7.152   3.966  0.2965 -0.0176 -0.1448
  309MOL    C8737663   2.496   7.273   4.002  0.0273  0.1012  0.3565
  309MOL    H8837664   2.482   7.066   3.988 -0.2050 -0.5851 -0.8585
  309MOL    H8937665   2.400   7.144   3.858 -1.2713 -1.1566  0.1812
  309MOL    H9037666   2.433   7.361   3.987  1.3304  1.2415  1.4129
  309MOL    H9137667   2.517   7.258   4.107  0.2308  0.1294  0.3208
  309MOL    C9237668   2.623   7.297   3.923  0.1031 -0.2724 -0.1882
  309MOL    C9337669   2.723   7.181   3.926  0.0027 -0.1625  0.1687
  309MOL    H9437670   2.596   7.327   3.821 -0.6859  0.8527  0.3556
  309MOL    H9537671   2.667   7.385   3.968 -1.9530  0.6120  0.1250
  309MOL    H9637672   2.763   7.187   4.027 -1.7894  1.3847  0.8260
  309MOL    H9737673   2.677   7.083   3.916  1.0909 -0.6399 -0.3160
  309MOL    C9837674   2.841   7.185   3.829  0.0414  0.3144  0.0770
  309MOL    C9937675   2.937   7.071   3.845  0.0020 -0.0438  0.6677
  309MOL   H10037676   2.814   7.213   3.727 -0.7736  0.4203  0.3173
  309MOL   H10137677   2.893   7.274   3.866  3.0529 -1.1255 -0.5502
  309MOL   H10237678   3.027   7.115   3.802 -0.2988  0.6660  0.7514
  309MOL   H10337679   2.961   7.046   3.948 -1.6584 -0.6585  0.9182
  309MOL   C10437680   2.899   6.955   3.755  0.1445  0.1943 -0.4498
  309MOL   C10537681   2.996   6.837   3.770  0.4520 -0.0887 -0.2450
  309MOL   H10637682   2.801   6.910   3.773  0.5211  0.4818  2.5782
  309MOL   H10737683   2.899   6.990   3.652  0.7318 -0.4447 -0.6664
  309MOL   H10837684   3.096   6.870   3.743  0.6414 -0.2448  0.2780
  309MOL   H10937685   3.005   6.809   3.875  3.0264 -0.5616 -0.5608
  309MOL   C11037686   2.952   6.706   3.691  0.0670 -0.1812 -0.4491
  309MOL   C11137687   3.055   6.597   3.704 -0.3796 -0.1044  0.2370
  309MOL   H11237688   2.864   6.654   3.729 -0.4368 -0.9151 -2.5518
  309MOL   H11337689   2.929   6.733   3.588  0.6593 -3.2149 -1.3998
  309MOL   H11437690   3.160   6.623   3.691 -0.3904 -0.6181 -0.9270
  309MOL   H11537691   3.049   6.566   3.809 -0.7846 -1.0548 -0.0632
  309MOL   C11637692   3.020   6.478   3.610  0.2390  0.2066  0.0140
  309MOL   C11737693   3.122   6.366   3.633  0.6017  0.1462  0.1523
  309MOL   H11837694   2.916   6.446   3.619  0.3139 -0.4142 -1.2432
  309MOL   H11937695   3.031   6.503   3.504  1.1486 -1.0507 -0.1960
  309MOL   H12037696   3.132   6.308   3.541  2.0622 -0.8425  0.9339
  309MOL   H12137697   3.216   6.410   3.666  0.6594 -0.3011  0.5934
  309MOL   H12237698   3.083   6.305   3.715 -0.8432 -0.2283 -0.7942
  310MOL     C137699   4.998   0.005   4.009  0.0678 -0.5651 -0.4553
  310MOL     C237700   5.129   7.619   3.991  0.2364 -0.2745 -0.0926
  310MOL     H337701   4.991   0.085   4.083  2.4588  0.0466 -0.8448
  310MOL     H437702   4.921   7.627   4.043 -0.6871  0.9247  0.9894
  310MOL     H537703   5.151   7.572   4.087  0.5120 -0.4791 -0.2541
  310MOL     H637704   5.104   7.534   3.927  0.4835 -1.2436  1.0692
  310MOL     H737705   4.969   0.047   3.912 -1.0101 -0.9897 -0.3286
  310MOL     C837706   5.245   0.001   3.925  0.3400  0.2796 -0.4051
  310MOL     C937707   5.385   7.639   3.957  0.3816  0.5808 -0.2227
  310MOL    H1037708   5.228   0.014   3.818  1.3794  0.6474 -0.5298
  310MOL    H1137709   5.234   0.097   3.977  0.6684 -0.8491  1.8215
  310MOL    H1237710   5.410   7.674   4.057  1.0316 -0.3427 -0.0503
  310MOL    H1337711   5.382   7.530   3.951 -2.9495  0.5824  0.5624
  310MOL    C1437712   5.494   7.691   3.865 -0.2947  0.0557  0.0921
  310MOL    C1537713   5.629   7.618   3.891 -0.4979 -0.5385 -0.2194
  310MOL    H1637714   5.460   7.652   3.770  2.5471 -1.6076 -0.3180
  310MOL    H1737715   5.493   0.108   3.873  0.9308  0.0532  0.4889
  310MOL    H1837716   5.617   7.510   3.885 -0.6720 -0.7622  3.2764
  310MOL    H1937717   5.704   7.632   3.812  0.8548  1.0906  1.3237
  310MOL    C2037718   5.696   7.658   4.020  0.2944 -1.1227 -0.1277
  310MOL    C2137719   5.837   7.598   4.034  0.2401 -0.0262  0.5696
  310MOL    H2237720   5.705   0.073   4.039 -1.2986 -1.5526  3.4525
  310MOL    H2337721   5.633   7.635   4.105 -1.2337  0.8324 -0.6984
  310MOL    H2437722   5.833   7.490   4.043  0.3808  0.0136  1.1665
  310MOL    H2537723   5.889   7.623   3.942 -0.8943 -1.8025 -0.5843
  310MOL    C2637724   5.916   7.653   4.154  0.3029 -0.3603  0.0920
  310MOL    C2737725   6.050   7.591   4.188  0.4880  1.0350  0.5192
  310MOL    H2837726   5.938   0.064   4.126 -0.8965 -0.1522 -0.1252
  310MOL    H2937727   5.847   7.644   4.238 -0.2465 -3.9502 -0.6604
  310MOL    H3037728   6.036   7.483   4.193  2.7954  0.6218 -1.1382
  310MOL    H3137729   6.109   7.612   4.099 -0.4436  0.8593 -0.1512
  310MOL    C3237730   6.114   7.645   4.312  0.1780  0.3592 -0.2590
  310MOL    C3337731   6.239   7.578   4.365  0.7106 -0.5742 -0.3568
  310MOL    H3437732   6.148   0.052   4.279 -1.6281  1.3560  0.7750
  310MOL    H3537733   6.042   7.676   4.388  0.3603  1.6201 -0.5839
  310MOL    H3637734   6.222   7.471   4.378  0.0190 -0.6417 -1.7453
  310MOL    H3737735   6.313   7.590   4.286  0.0501  1.1946 -0.7242
  310MOL    C3837736   6.279   7.633   4.502  0.1080 -0.0651  0.4448
  310MOL    C3937737   6.392   7.542   4.557  0.3090 -0.0506 -0.5088
  310MOL    H4037738   6.316   0.044   4.497 -0.4656  0.1015 -0.5211
  310MOL    H4137739   6.189   7.640   4.562  0.0278  2.0324  0.1173
  310MOL    H4237740   6.367   7.437   4.571 -0.9502  0.6505  3.1317
  310MOL    H4337741   6.465   7.529   4.477 -0.4658 -0.7890 -1.1075
  310MOL    C4437742   6.468   7.607   4.674 -0.0018  0.0485  0.6115
  310MOL    C4537743   6.588   7.519   4.723 -0.2542 -0.7703  0.3411
  310MOL    H4637744   6.501   0.003   4.619 -3.4257  1.7756  1.1638
  310MOL    H4737745   6.405   7.643   4.755 -1.4693  0.7732 -0.8293
  310MOL    H4837746   6.557   7.424   4.766 -0.9716 -0.8069 -0.2257
  310MOL    H4937747   6.637   7.488   4.631  1.4301  1.7871  0.3200
  310MOL    C5037748   6.693   7.574   4.818  0.3642 -0.2044 -0.0680
  310MOL    C5137749   6.627   7.607   4.962  0.1490  0.3322  0.0211
  310MOL    H5237750   6.775   7.506   4.842  0.6471  0.0978 -0.1886
  310MOL    H5337751   6.743   7.653   4.763 -0.3906  0.1445 -0.2668
  310MOL    H5437752   6.548   7.681   4.949 -0.4905 -0.5487 -1.2607
  310MOL    H5537753   6.578   7.519   5.002  0.7482  0.3816  0.8742
  310MOL    C5637754   6.730   7.652   5.067 -0.5490  0.7423 -0.0003
  310MOL    C5737755   6.653   0.005   5.194  0.1262  0.6549 -0.1869
  310MOL    H5837756   6.799   7.570   5.091 -0.8289  0.6536  0.5298
  310MOL    H5937757   6.781   0.046   5.025  1.9744 -1.1051 -0.8993
  310MOL    H6037758   6.593   0.094   5.178 -0.3499  0.1264 -1.4527
  310MOL    H6137759   6.580   7.618   5.210  2.4412 -1.6234 -0.5531
  310MOL    C6237760   6.740   0.024   5.315 -0.2262 -0.1094  0.0938
  310MOL    C6337761   6.668   0.098   5.427 -0.2317 -0.1828  0.9663
  310MOL    H6437762   6.784   7.628   5.362  0.9720  0.2420 -0.3580
  310MOL    H6537763   6.824   0.083   5.279  0.3990  1.3055  3.6606
  310MOL    H6637764   6.624   0.193   5.399 -1.5325 -1.0869 -0.0858
  310MOL    H6737765   6.579   0.048   5.465 -1.9620  1.9189 -0.2000
  310MOL    C6837766   6.765   0.109   5.545  0.4389  0.0651  0.9076
  310MOL    C6937767   6.694   0.180   5.664 -0.1019 -0.2398 -0.9290
  310MOL    H7037768   6.796   0.014   5.588  0.5882 -0.6056 -0.6536
  310MOL    H7137769   6.855   0.162   5.514  0.0851 -1.2104 -2.5471
  310MOL    H7237770   6.639   0.267   5.627  0.0422  0.6237  0.8701
  310MOL    H7337771   6.617   0.111   5.697  1.0569 -0.4735  1.3817
  310MOL    C7437772   6.794   0.213   5.775  0.9689  0.1515 -0.4782
  310MOL    C7537773   6.737   0.258   5.908 -0.1005  0.3874 -0.5705
  310MOL    H7637774   6.860   0.128   5.790  2.0193  0.6513 -2.1746
  310MOL    H7737775   6.861   0.292   5.740  2.8773 -1.0608  0.3546
  310MOL    H7837776   6.652   0.323   5.888 -0.6869  0.3903  1.8199
  310MOL    H7937777   6.690   0.173   5.957  0.5156  0.1465 -0.4026
  310MOL    C8037778   6.838   0.312   6.007  0.1284 -0.1485  0.3236
  310MOL    C8137779   6.772   0.347   6.141 -0.9976 -0.2990  0.3680
  310MOL    H8237780   6.913   0.234   6.023 -2.5620 -2.8542  0.3292
  310MOL    H8337781   6.883   0.400   5.962 -2.4306  1.0589  0.0024
  310MOL    H8437782   6.709   0.429   6.110 -1.6718 -1.2594 -0.8312
  310MOL    H8537783   6.707   0.264   6.169 -0.9838  0.1236  1.7218
  310MOL    C8637784   6.867   0.396   6.256  0.3246 -0.4137 -0.2663
  310MOL    C8737785   6.787   0.428   6.385 -0.2072 -0.0752 -0.0364
  310MOL    H8837786   6.938   0.315   6.273 -0.0562 -0.4688  1.0948
  310MOL    H8937787   6.924   0.484   6.228  0.7855 -1.5607 -3.1101
  310MOL    H9037788   6.712   0.506   6.375 -0.3006 -0.3421 -1.5347
  310MOL    H9137789   6.735   0.339   6.422 -1.2594  0.7125  0.3990
  310MOL    C9237790   6.871   0.465   6.517 -0.2939 -0.4640  0.0975
  310MOL    C9337791   6.779   0.494   6.641  0.6201  0.1205  0.0763
  310MOL    H9437792   6.938   0.380   6.533 -0.9430 -0.8087  1.0046
  310MOL    H9537793   6.943   0.540   6.483  0.3360 -1.6190 -1.2079
  310MOL    H9637794   6.728   0.589   6.628  0.7212 -0.1846 -2.8721
  310MOL    H9737795   6.705   0.414   6.648  0.9264 -0.2155 -0.4622
  310MOL    C9837796   6.873   0.489   6.762 -0.2052  0.0236 -0.5342
  310MOL    C9937797   6.801   0.542   6.887 -0.9319 -0.3606 -0.8753
  310MOL   H10037798   6.907   0.388   6.784  1.1787  0.4797 -0.5642
  310MOL   H10137799   6.965   0.542   6.739 -1.3097  2.1412 -0.1511
  310MOL   H10237800   6.751   0.638   6.876 -4.0936 -2.2161 -3.8286
  310MOL   H10337801   6.718   0.472   6.896 -1.9719  1.0566  0.9280
  310MOL   C10437802   6.887   0.534   7.005  0.4816 -0.6833  0.9341
  310MOL   C10537803   6.832   0.599   7.135  0.5462  0.2679  0.3298
  310MOL   H10637804   6.916   0.431   7.027  0.8870 -0.8620 -0.4292
  310MOL   H10737805   6.980   0.587   6.986 -0.2469 -0.1298 -1.2165
  310MOL   H10837806   6.804   0.701   7.112  0.8993  0.4489  0.7002
  310MOL   H10937807   6.750   0.537   7.171 -0.0411  0.9749  0.2268
  310MOL   C11037808   6.925   0.620   7.253 -0.6536 -0.1072  0.6564
  310MOL   C11137809   6.855   0.647   7.379  0.1030  0.1433 -0.1191
  310MOL   H11237810   6.987   0.530   7.258 -0.9498 -0.3220  0.5182
  310MOL   H11337811   6.983   0.708   7.227  0.7542 -1.2839 -0.2739
  310MOL   H11437812   6.803   0.738   7.350  1.3276  0.7035 -0.5751
  310MOL   H11537813   6.780   0.569   7.397 -0.4563  1.0048  1.3712
  310MOL   C11637814   6.946   0.672   7.503 -0.5225 -0.0335  0.4721
  310MOL   C11737815   6.857   0.684   7.626 -0.2583  0.7804 -0.3878
  310MOL   H11837816   7.012   0.585   7.511  0.6813  0.9512  1.4837
  310MOL   H11937817   7.008   0.759   7.480 -0.6612 -0.2073 -0.5737
  310MOL   H12037818   6.910   0.713   0.024  3.0911 -0.7451 -1.8076
  310MOL   H12137819   6.774   0.754   7.611 -0.2583  0.9808  0.5297
  310MOL   H12237820   6.819   0.583   7.639  1.9835  0.1319  1.4963
  311MOL     C137821   3.646   4.902   5.851  0.0364  0.2984  0.0626
  311MOL     C237822   3.651   5.053   5.819 -0.3874  0.0068 -0.7527
  311MOL     H337823   3.557   4.853   5.811 -0.7557  1.8758 -0.1463
  311MOL     H437824   3.647   4.878   5.957  2.9765  2.6769  0.6680
  311MOL     H537825   3.750   5.098   5.831 -0.0537 -0.9116 -0.0330
  311MOL     H637826   3.640   5.073   5.712 -2.4005 -0.6889 -0.6899
  311MOL     H737827   3.732   4.853   5.804 -0.5779  0.3475 -1.1166
  311MOL     C837828   3.552   5.130   5.906 -0.5156  0.9176 -0.4088
  311MOL     C937829   3.409   5.080   5.896 -0.0240  0.2527 -0.4285
  311MOL    H1037830   3.594   5.133   6.007 -2.4167 -3.2828  0.5919
  311MOL    H1137831   3.559   5.237   5.885  3.8288  0.9091  0.5069
  311MOL    H1237832   3.385   5.071   5.791 -1.9086  1.0160 -0.0812
  311MOL    H1337833   3.401   4.980   5.939  1.2617  0.8077  1.1775
  311MOL    C1437834   3.302   5.180   5.947 -0.3893  0.4797  0.3173
  311MOL    C1537835   3.156   5.135   5.921  0.5482  0.3311 -0.0039
  311MOL    H1637836   3.331   5.199   6.050  1.0601 -2.1028  0.4377
  311MOL    H1737837   3.317   5.273   5.891 -1.6947 -1.2248 -3.0174
  311MOL    H1837838   3.140   5.042   5.976  0.0531  1.0245  1.0314
  311MOL    H1937839   3.094   5.210   5.969  0.6083 -0.0715  0.7157
  311MOL    C2037840   3.108   5.123   5.774  0.3009 -0.7010  0.2302
  311MOL    C2137841   2.974   5.046   5.763 -0.1240 -0.1508 -0.0767
  311MOL    H2237842   3.101   5.228   5.743 -0.7133 -0.0622  2.5375
  311MOL    H2337843   3.184   5.063   5.724  0.3576 -0.8894  0.5421
  311MOL    H2437844   2.979   4.957   5.826 -1.1557  0.7111  1.2544
  311MOL    H2537845   2.894   5.108   5.805  1.7385  2.5340 -0.3343
  311MOL    C2637846   2.932   4.990   5.623  0.0129  0.1776  0.6216
  311MOL    C2737847   2.821   4.887   5.629  0.5048  0.6164  0.1899
  311MOL    H2837848   2.906   5.074   5.558  0.5323  0.2148  0.4615
  311MOL    H2937849   3.021   4.952   5.572 -0.3470 -2.1055  1.6449
  311MOL    H3037850   2.860   4.801   5.683 -1.2573 -2.1376 -2.7114
  311MOL    H3137851   2.744   4.931   5.692 -0.4146  0.1147 -0.5761
  311MOL    C3237852   2.758   4.846   5.503 -0.5527  0.9526 -0.2080
  311MOL    C3337853   2.634   4.770   5.533  0.0494  0.3275  0.1086
  311MOL    H3437854   2.729   4.932   5.444 -0.9303 -0.1027 -1.5946
  311MOL    H3537855   2.828   4.803   5.431 -2.2640 -1.2846 -0.6029
  311MOL    H3637856   2.660   4.700   5.612  1.0416  1.3225  0.6962
  311MOL    H3737857   2.558   4.840   5.568 -1.7551 -1.0698 -0.9777
  311MOL    C3837858   2.596   4.673   5.422  0.3218  0.0725 -0.3501
  311MOL    C3937859   2.445   4.625   5.451  0.4893  0.2293 -0.1858
  311MOL    H4037860   2.598   4.708   5.319  0.0180 -2.1209 -1.1162
  311MOL    H4137861   2.661   4.586   5.418  1.0799  0.6565 -0.8003
  311MOL    H4237862   2.431   4.611   5.558 -1.9515  2.7290 -0.1190
  311MOL    H4337863   2.387   4.710   5.415 -0.3180 -0.5228 -0.7143
  311MOL    C4437864   2.407   4.502   5.371 -0.6698  0.0428 -0.0287
  311MOL    C4537865   2.250   4.478   5.370 -0.4614  0.1900  0.6017
  311MOL    H4637866   2.452   4.517   5.273 -0.9238  0.7689 -0.0399
  311MOL    H4737867   2.456   4.414   5.412 -0.4588  0.4912  0.6939
  311MOL    H4837868   2.234   4.432   5.467 -1.6018  1.6358  1.1205
  311MOL    H4937869   2.185   4.565   5.375 -0.7794 -0.0098  0.0418
  311MOL    C5037870   2.210   4.377   5.265  0.2623  0.5011  1.3755
  311MOL    C5137871   2.061   4.346   5.259  0.8341 -0.5856 -0.1300
  311MOL    H5237872   2.243   4.422   5.171  3.1504  1.5472  2.8555
  311MOL    H5337873   2.266   4.287   5.287  0.6923  0.8533  1.7235
  311MOL    H5437874   2.033   4.315   5.360 -1.5496 -1.6852 -1.1077
  311MOL    H5537875   2.012   4.442   5.241  1.1945 -0.3499  0.1178
  311MOL    C5637876   2.020   4.222   5.176 -0.0417 -0.5403 -0.8111
  311MOL    C5737877   1.870   4.195   5.165  0.3021  0.2851  0.1106
  311MOL    H5837878   2.055   4.245   5.075  1.7753 -0.2371 -0.1248
  311MOL    H5937879   2.068   4.133   5.217 -1.2332 -0.2476  1.2976
  311MOL    H6037880   1.835   4.188   5.267 -0.6346  0.4662 -0.1924
  311MOL    H6137881   1.818   4.284   5.128  0.8989  0.0525 -1.3235
  311MOL    C6237882   1.829   4.061   5.094 -0.0897  0.5342  0.3520
  311MOL    C6337883   1.673   4.048   5.079 -0.2073 -0.1493  0.1030
  311MOL    H6437884   1.870   4.067   4.993 -2.9637 -1.2615 -0.9927
  311MOL    H6537885   1.875   3.976   5.144  1.0493 -0.1125 -1.7056
  311MOL    H6637886   1.639   4.075   5.179  0.0223 -0.3761  0.2421
  311MOL    H6737887   1.634   4.123   5.011  2.2091 -0.9683 -2.2883
  311MOL    C6837888   1.619   3.906   5.042  0.0106 -0.6602 -0.0796
  311MOL    C6937889   1.477   3.880   5.099  0.9534 -0.4688  0.3703
  311MOL    H7037890   1.624   3.902   4.933  0.0764 -0.6534 -0.0767
  311MOL    H7137891   1.679   3.831   5.094  0.1301 -0.7287 -0.3191
  311MOL    H7237892   1.423   3.971   5.073  0.0750 -1.2019 -0.4218
  311MOL    H7337893   1.420   3.808   5.040  1.2719 -0.8499  0.5301
  311MOL    C7437894   1.467   3.850   5.256  0.0713  0.7266 -0.3501
  311MOL    C7537895   1.347   3.759   5.287  1.1005  0.3339 -0.2102
  311MOL    H7637896   1.561   3.798   5.277 -0.3154 -0.0840 -0.6448
  311MOL    H7737897   1.461   3.949   5.301  2.3570  1.1069 -0.7854
  311MOL    H7837898   1.253   3.798   5.247  0.0134 -1.3394  0.6718
  311MOL    H7937899   1.364   3.660   5.244  2.0387 -0.2306  1.4425
  311MOL    C8037900   1.308   3.752   5.435  0.3521  0.0928 -0.5356
  311MOL    C8137901   1.191   3.660   5.469  0.0705  0.5233 -0.1775
  311MOL    H8237902   1.396   3.713   5.487  0.8721  1.5269 -0.3325
  311MOL    H8337903   1.289   3.855   5.464  0.9698  0.2827 -0.8034
  311MOL    H8437904   1.099   3.700   5.425 -1.2421 -1.1830  0.9498
  311MOL    H8537905   1.203   3.559   5.429  0.9730 -1.2054  4.1749
  311MOL    C8637906   1.173   3.643   5.619 -0.0371  0.5545  0.3587
  311MOL    C8737907   1.062   3.549   5.655  0.2253 -0.7440 -0.0845
  311MOL    H8837908   1.265   3.595   5.653 -0.1735 -2.9387 -3.6554
  311MOL    H8937909   1.149   3.738   5.666  0.5264  0.7967  0.1647
  311MOL    H9037910   0.969   3.603   5.633  2.0718  2.1272 -1.1221
  311MOL    H9137911   1.066   3.455   5.600  0.5298 -0.0031 -1.3651
  311MOL    C9237912   1.069   3.525   5.806 -0.3492 -0.3423 -0.0849
  311MOL    C9337913   0.956   3.441   5.849  0.5212  0.0483  0.0011
  311MOL    H9437914   1.162   3.474   5.830 -0.3551  0.2961  1.3265
  311MOL    H9537915   1.054   3.623   5.850 -2.2056  0.1330 -1.6806
  311MOL    H9637916   0.866   3.501   5.834  1.1820  0.9311 -0.4799
  311MOL    H9737917   0.954   3.357   5.779  1.4788  0.5171 -0.6012
  311MOL    C9837918   0.965   3.421   6.000  0.7285 -0.0935  0.2208
  311MOL    C9937919   0.834   3.346   6.042 -0.4968  0.4233  0.1091
  311MOL   H10037920   1.049   3.359   6.032  0.6063 -0.0629  0.6051
  311MOL   H10137921   0.967   3.518   6.049 -0.4706 -0.1387  0.3760
  311MOL   H10237922   0.747   3.382   5.988  1.1540  3.9764 -0.3371
  311MOL   H10337923   0.850   3.240   6.020  0.4478  1.0069 -2.0962
  311MOL   C10437924   0.791   3.376   6.186  0.2693 -0.5671 -0.0712
  311MOL   C10537925   0.678   3.288   6.244 -0.0195 -0.7828 -0.2504
  311MOL   H10637926   0.875   3.358   6.254 -0.8473 -2.9240  0.7438
  311MOL   H10737927   0.771   3.482   6.197  0.0614 -0.6742  0.6314
  311MOL   H10837928   0.586   3.306   6.189  2.2342 -0.0588 -4.0596
  311MOL   H10937929   0.709   3.183   6.236 -3.1707 -1.9050  1.6388
  311MOL   C11037930   0.652   3.315   6.392 -0.4267  0.8326 -0.8982
  311MOL   C11137931   0.541   3.227   6.452  0.2930 -0.7488  0.5783
  311MOL   H11237932   0.747   3.283   6.434 -0.2337 -0.7173 -2.4585
  311MOL   H11337933   0.635   3.421   6.411  0.9344  1.4446 -2.9564
  311MOL   H11437934   0.575   3.124   6.460 -1.9719 -1.5477  0.1895
  311MOL   H11537935   0.528   3.278   6.548  0.0560  1.4447 -0.5853
  311MOL   C11637936   0.409   3.247   6.381 -0.9477  0.2050 -0.1992
  311MOL   C11737937   0.285   3.212   6.455  0.2696 -0.0889  0.1480
  311MOL   H11837938   0.396   3.355   6.371  1.0438  0.4363 -0.5181
  311MOL   H11937939   0.400   3.202   6.282 -1.5669  0.0899 -0.0965
  311MOL   H12037940   0.269   3.104   6.444 -1.1867 -0.0102  1.3100
  311MOL   H12137941   0.291   3.249   6.557  0.9420  2.0808 -0.6512
  311MOL   H12237942   0.196   3.257   6.412  0.1991  0.2009  0.6016
  312MOL     C137943   0.199   3.829   4.224  0.2715  0.0655  0.0591
  312MOL     C237944   0.156   3.751   4.346  0.0581 -0.1559 -0.3096
  312MOL     H337945   0.286   3.884   4.261 -0.1800 -0.5050  2.0605
  312MOL     H437946   0.131   3.908   4.192  2.3102  1.3342 -1.2292
  312MOL     H537947   0.218   3.662   4.356 -1.1370 -0.8225  1.4602
  312MOL     H637948   0.180   3.807   4.436  2.2450 -1.8264  0.1956
  312MOL     H737949   0.227   3.763   4.142 -0.0890  1.4065 -1.1543
  312MOL     C837950   0.006   3.721   4.335  0.0503 -0.1382  0.4640
  312MOL     C937951   7.636   3.627   4.435  0.3762 -0.0538 -0.0771
  312MOL    H1037952   7.645   3.816   4.339 -0.0905 -0.1326 -1.1997
  312MOL    H1137953   7.663   3.686   4.237  0.3930  2.9548 -0.8434
  312MOL    H1237954   7.639   3.522   4.404 -3.2213  0.0572 -0.9769
  312MOL    H1337955   0.004   3.629   4.526 -0.8100  1.0869  0.6880
  312MOL    C1437956   7.490   3.666   4.468 -0.4238 -0.4812 -0.7053
  312MOL    C1537957   7.436   3.589   4.587 -0.0538 -0.0276  0.1442
  312MOL    H1637958   7.473   3.774   4.470 -0.5926 -0.4915 -1.4480
  312MOL    H1737959   7.431   3.646   4.378 -0.7246  2.2092 -1.1477
  312MOL    H1837960   7.468   3.485   4.580  0.8015  0.3721 -2.3450
  312MOL    H1937961   7.480   3.621   4.681 -0.7208  0.3581  0.3314
  312MOL    C2037962   7.278   3.597   4.592  0.1773  0.2269 -0.1823
  312MOL    C2137963   7.225   3.501   4.700  0.6936 -0.5703 -1.0128
  312MOL    H2237964   7.250   3.698   4.621  0.0457 -0.1338  0.9497
  312MOL    H2337965   7.230   3.579   4.496 -0.9642 -2.3790  0.8270
  312MOL    H2437966   7.229   3.401   4.659  1.8523 -0.5095 -1.0634
  312MOL    H2537967   7.300   3.500   4.779 -1.6397 -1.6974  1.2754
  312MOL    C2637968   7.080   3.540   4.741 -0.0310 -0.2997 -0.0072
  312MOL    C2737969   6.999   3.425   4.812 -0.5864  0.5903  0.5015
  312MOL    H2837970   7.078   3.630   4.802 -0.6096 -0.2113 -0.1518
  312MOL    H2937971   7.025   3.569   4.651  1.5537 -1.2549 -1.2947
  312MOL    H3037972   7.012   3.341   4.743  0.3762  1.8030 -0.7967
  312MOL    H3137973   7.040   3.397   4.909 -0.7650 -0.5008  0.2793
  312MOL    C3237974   6.841   3.452   4.821  0.3374 -0.1020  0.5467
  312MOL    C3337975   6.760   3.344   4.898 -0.9414  0.5583 -0.3473
  312MOL    H3437976   6.829   3.551   4.865  0.3042  0.8308 -1.4982
  312MOL    H3537977   6.798   3.468   4.722 -0.1213  1.3140  0.9571
  312MOL    H3637978   6.781   3.240   4.872 -1.1612  0.5516 -0.5012
  312MOL    H3737979   6.787   3.345   5.003  1.3475  0.2715 -0.8888
  312MOL    C3837980   6.611   3.368   4.889 -0.0109  0.2039 -0.4498
  312MOL    C3937981   6.532   3.284   5.002  0.3005  0.2404  0.0226
  312MOL    H4037982   6.580   3.473   4.886  0.5620  0.3521 -1.8260
  312MOL    H4137983   6.581   3.340   4.788 -0.9404 -1.9287  0.3902
  312MOL    H4237984   6.551   3.179   4.980 -1.7237 -0.0391 -0.5292
  312MOL    H4337985   6.570   3.303   5.102  1.2535 -1.3076 -0.0389
  312MOL    C4437986   6.381   3.304   4.996 -0.0815  0.0662 -0.0426
  312MOL    C4537987   6.304   3.216   5.100  0.0912  0.6793 -0.2985
  312MOL    H4637988   6.371   3.408   5.026 -0.8262  0.6867 -2.3738
  312MOL    H4737989   6.338   3.290   4.897 -0.6012 -2.5114  0.4969
  312MOL    H4837990   6.319   3.110   5.079 -1.8014  0.1816  0.7679
  312MOL    H4937991   6.339   3.235   5.201 -0.7838  0.2158  0.0952
  312MOL    C5037992   6.145   3.230   5.091  0.2419 -0.0411  0.1124
  312MOL    C5137993   6.067   3.134   5.175  0.4422 -0.3280 -0.2499
  312MOL    H5237994   6.117   3.331   5.123 -1.6539  0.0431 -1.7312
  312MOL    H5337995   6.098   3.222   4.993  3.0805  0.0596 -1.2972
  312MOL    H5437996   6.075   3.037   5.125  0.1276 -1.2265  1.4333
  312MOL    H5537997   6.119   3.122   5.270 -1.0433 -0.2139  0.5756
  312MOL    C5637998   5.916   3.175   5.183 -0.4301  0.4999  0.0744
  312MOL    C5737999   5.825   3.058   5.227  0.1346  0.2373  0.5261
  312MOL    H5838000   5.906   3.258   5.253 -1.0358  0.0953  0.4661
  312MOL    H5938001   5.886   3.220   5.088  1.3392  0.9657 -0.2899
  312MOL    H6038002   5.721   3.086   5.211  0.0679  0.3803  1.2083
  312MOL    H6138003   5.843   2.976   5.157 -0.4049  2.2024 -1.9933
  312MOL    C6238004   5.845   3.014   5.373 -0.3160  0.4874 -0.9027
  312MOL    C6338005   5.747   2.897   5.402  0.0836 -0.1633  0.1909
  312MOL    H6438006   5.949   2.990   5.397 -0.4615  0.0371 -0.7239
  312MOL    H6538007   5.819   3.101   5.435 -0.9315  0.7159 -1.4733
  312MOL    H6638008   5.648   2.940   5.384 -0.2239 -1.4136 -1.1954
  312MOL    H6738009   5.764   2.810   5.339 -1.8517 -0.6317  0.2693
  312MOL    C6838010   5.752   2.852   5.547  0.0355  0.1025 -0.1197
  312MOL    C6938011   5.624   2.802   5.616  0.5235 -0.3112  0.0648
  312MOL    H7038012   5.828   2.773   5.554 -1.7718 -1.7587 -0.9879
  312MOL    H7138013   5.784   2.937   5.606  0.8755 -0.5638  0.3987
  312MOL    H7238014   5.649   2.765   5.715 -1.4163 -0.4922  0.5111
  312MOL    H7338015   5.545   2.877   5.618 -0.8917 -1.7180 -1.5584
  312MOL    C7438016   5.555   2.692   5.544 -0.4801  1.2838 -0.1723
  312MOL    C7538017   5.458   2.608   5.631  0.1615 -0.2286  0.0342
  312MOL    H7638018   5.505   2.723   5.453 -1.3232 -2.4087 -1.0626
  312MOL    H7738019   5.639   2.625   5.522 -4.1103 -3.1579 -1.3615
  312MOL    H7838020   5.500   2.561   5.719 -0.4595 -0.3738  0.2609
  312MOL    H7938021   5.394   2.684   5.677 -1.6922 -0.8102 -1.4926
  312MOL    C8038022   5.381   2.498   5.546 -0.2830 -0.6975  0.3250
  312MOL    C8138023   5.467   2.390   5.487  0.0368 -0.1368  0.0814
  312MOL    H8238024   5.296   2.447   5.591  0.0363 -1.3327  0.2115
  312MOL    H8338025   5.334   2.542   5.458  1.7686  1.0430  0.0480
  312MOL    H8438026   5.408   2.325   5.423 -0.0895 -0.1709  0.2301
  312MOL    H8538027   5.549   2.438   5.434 -1.4021 -0.7892 -2.8265
  312MOL    C8638028   5.541   2.303   5.593 -0.6328  0.0974  0.3230
  312MOL    C8738029   5.662   2.225   5.533 -0.4168 -0.1180 -0.4300
  312MOL    H8838030   5.572   2.364   5.678 -0.2879 -1.4876  1.3431
  312MOL    H8938031   5.473   2.232   5.639 -0.3103  0.6863  1.7618
  312MOL    H9038032   5.713   2.300   5.473 -0.6392  0.5375  0.2113
  312MOL    H9138033   5.729   2.192   5.612 -0.3898  1.1934  0.1027
  312MOL    C9238034   5.627   2.102   5.462 -0.0375  1.0158  0.5601
  312MOL    C9338035   5.746   2.013   5.424  0.4513 -0.0677 -0.6313
  312MOL    H9438036   5.555   2.043   5.518  0.5269  1.0451  1.3288
  312MOL    H9538037   5.575   2.135   5.373 -1.9150 -3.0197  0.0882
  312MOL    H9638038   5.729   1.962   5.329 -1.2147  0.2710 -0.5248
  312MOL    H9738039   5.830   2.082   5.411 -1.2921  2.3667  0.7535
  312MOL    C9838040   5.782   1.915   5.540  0.2586 -0.5716  0.8292
  312MOL    C9938041   5.864   1.789   5.495  0.2286 -0.4935 -0.4013
  312MOL   H10038042   5.838   1.971   5.616 -1.8010  1.1145  1.1384
  312MOL   H10138043   5.685   1.881   5.576  0.5344 -0.3855  1.7671
  312MOL   H10238044   5.840   1.752   5.395  0.5788  1.0208 -1.0683
  312MOL   H10338045   5.970   1.815   5.488  0.1325  0.0328  0.1231
  312MOL   C10438046   5.845   1.680   5.602  0.0398  0.2128  1.1672
  312MOL   C10538047   5.946   1.558   5.595 -0.6095  0.0685  0.2484
  312MOL   H10638048   5.850   1.718   5.704  0.5907 -0.4798  1.4076
  312MOL   H10738049   5.745   1.644   5.579  0.5653 -1.9759  2.1680
  312MOL   H10838050   5.904   1.480   5.658 -0.6569  0.5389  0.8103
  312MOL   H10938051   5.955   1.520   5.494 -0.9986 -0.0564  0.2584
  312MOL   C11038052   6.081   1.597   5.654  0.0367  0.1877  0.7128
  312MOL   C11138053   6.160   1.462   5.676  0.0558 -0.4640 -0.4636
  312MOL   H11238054   6.133   1.672   5.594 -1.8223  0.3338 -0.7726
  312MOL   H11338055   6.062   1.642   5.751 -0.1787 -0.6434  1.0540
  312MOL   H11438056   6.107   1.383   5.727  0.4347  1.9071  3.8130
  312MOL   H11538057   6.196   1.423   5.580 -0.7573 -1.0182 -0.5461
  312MOL   C11638058   6.287   1.487   5.753 -1.3275  0.7435 -0.2489
  312MOL   C11738059   6.397   1.383   5.727  0.2244  0.0193  0.6291
  312MOL   H11838060   6.335   1.582   5.729  2.0670 -0.1377  2.7068
  312MOL   H11938061   6.256   1.491   5.858 -0.4396 -3.1216  0.2202
  312MOL   H12038062   6.353   1.290   5.763 -0.1010  0.8646  2.4641
  312MOL   H12138063   6.421   1.367   5.622 -0.5519 -0.8527  0.5834
  312MOL   H12238064   6.493   1.405   5.774  0.7087 -2.6805  0.9337
  313MOL     C138065   2.784   7.199   6.461 -0.6537  0.0361 -0.2088
  313MOL     C238066   2.694   7.091   6.404 -0.1190  0.1046  0.5505
  313MOL     H338067   2.742   7.232   6.556 -1.3712 -1.1784 -0.0857
  313MOL     H438068   2.792   7.280   6.389  1.0574  0.7824  0.8147
  313MOL     H538069   2.744   7.053   6.315  0.1417 -0.7875  1.0690
  313MOL     H638070   2.692   6.998   6.461 -1.3216  1.5637  2.9379
  313MOL     H738071   2.881   7.155   6.485 -0.9269 -1.2141 -1.2828
  313MOL     C838072   2.548   7.143   6.374 -0.2814  0.0172 -0.5291
  313MOL     C938073   2.460   7.031   6.334  0.2138 -0.4420 -0.0501
  313MOL    H1038074   2.507   7.186   6.465 -0.5946 -1.7874  0.2052
  313MOL    H1138075   2.572   7.223   6.304  2.3720 -1.3461 -1.2496
  313MOL    H1238076   2.510   6.983   6.250 -0.8905  0.8486 -1.4710
  313MOL    H1338077   2.449   6.955   6.412  0.3061  0.6624  1.0429
  313MOL    C1438078   2.335   7.084   6.271  0.4740  0.2794  0.3725
  313MOL    C1538079   2.242   6.983   6.216  0.2319 -0.3612 -0.2199
  313MOL    H1638080   2.281   7.154   6.335  1.9371  0.3656  1.5566
  313MOL    H1738081   2.374   7.150   6.194 -1.2780  3.0168  1.7265
  313MOL    H1838082   2.290   6.933   6.131  1.9781 -1.1550  1.2086
  313MOL    H1938083   2.228   6.900   6.285  1.2734 -0.4808 -0.1468
  313MOL    C2038084   2.107   7.039   6.181  0.0564 -0.4778  0.7449
  313MOL    C2138085   2.015   6.922   6.145 -0.1754 -0.2044 -0.5077
  313MOL    H2238086   2.060   7.102   6.256  1.8800  2.1327 -0.2444
  313MOL    H2338087   2.122   7.108   6.098  2.0683  1.1464  2.4008
  313MOL    H2438088   2.064   6.868   6.064 -1.2062 -0.6526 -0.8401
  313MOL    H2538089   2.005   6.869   6.240 -1.5823  0.7059 -0.1414
  313MOL    C2638090   1.880   6.970   6.089  0.8988 -0.2156  0.0331
  313MOL    C2738091   1.779   6.861   6.062 -0.1710 -0.0072  0.1079
  313MOL    H2838092   1.838   7.038   6.163 -1.3696 -0.7981 -0.6650
  313MOL    H2938093   1.890   7.028   5.997  1.3060  0.7770  0.6933
  313MOL    H3038094   1.831   6.788   6.000  0.0109  0.6822 -0.5671
  313MOL    H3138095   1.750   6.819   6.158  0.7003  1.3702  1.0071
  313MOL    C3238096   1.656   6.908   5.975  0.0462 -0.1993 -0.5197
  313MOL    C3338097   1.543   6.805   5.942  0.0601  0.2633 -0.1641
  313MOL    H3438098   1.613   6.988   6.035 -0.6564 -1.3178  0.5075
  313MOL    H3538099   1.702   6.950   5.885  0.1997  0.3611 -0.1793
  313MOL    H3638100   1.584   6.734   5.870 -3.9689  1.2693 -3.6361
  313MOL    H3738101   1.506   6.753   6.030 -2.0423 -0.2706 -1.3433
  313MOL    C3838102   1.424   6.881   5.875 -0.6700 -0.8705  0.3428
  313MOL    C3938103   1.323   6.785   5.821  0.2992 -0.2492  0.0440
  313MOL    H4038104   1.379   6.934   5.959 -3.0297  0.2882 -1.5881
  313MOL    H4138105   1.459   6.942   5.792  2.8080 -1.0399  1.6212
  313MOL    H4238106   1.368   6.726   5.741 -1.4640  0.0067 -1.1793
  313MOL    H4338107   1.299   6.711   5.898 -0.5917  1.4816  1.4499
  313MOL    C4438108   1.200   6.856   5.771  0.2495  0.1728  0.0427
  313MOL    C4538109   1.102   6.763   5.710  0.2780  0.0799  0.0809
  313MOL    H4638110   1.159   6.915   5.852 -1.5729 -1.3127  0.2515
  313MOL    H4738111   1.237   6.919   5.690  0.1721  0.2510  0.0692
  313MOL    H4838112   1.151   6.692   5.643  1.0633  0.8176 -0.1283
  313MOL    H4938113   1.053   6.700   5.784  0.0457  0.1894  0.0212
  313MOL    C5038114   0.988   6.839   5.638 -1.6939 -0.3422  0.2604
  313MOL    C5138115   0.884   6.735   5.589 -0.1847  0.0308 -0.6097
  313MOL    H5238116   0.946   6.910   5.709 -0.6956  0.0002  0.5170
  313MOL    H5338117   1.004   6.905   5.553 -1.4749 -2.5640 -1.4625
  313MOL    H5438118   0.927   6.680   5.506  1.5557 -0.1815  0.3975
  313MOL    H5538119   0.853   6.667   5.669 -3.1151  2.5866  0.5135
  313MOL    C5638120   0.755   6.802   5.538 -0.0852  0.1405 -0.7453
  313MOL    C5738121   0.643   6.693   5.535  0.2945  0.7432  0.1125
  313MOL    H5838122   0.719   6.879   5.606  0.0253 -3.6881  3.8822
  313MOL    H5938123   0.788   6.853   5.447  1.1225  0.3498 -0.2048
  313MOL    H6038124   0.677   6.617   5.465 -0.2068  1.7765 -1.2841
  313MOL    H6138125   0.634   6.657   5.637  3.1915  2.1420  0.9287
  313MOL    C6238126   0.505   6.732   5.487 -0.1521 -0.1761 -0.2503
  313MOL    C6338127   0.423   6.605   5.473  0.3422  0.2823 -0.3417
  313MOL    H6438128   0.469   6.805   5.559  0.4682 -0.5125  0.4227
  313MOL    H6538129   0.512   6.781   5.390  1.7716  0.3548  0.1277
  313MOL    H6638130   0.470   6.523   5.418 -1.1550 -2.1771  1.9469
  313MOL    H6738131   0.411   6.569   5.575 -2.2658  1.3260 -0.2608
  313MOL    C6838132   0.286   6.636   5.401  0.6591 -0.2812  0.1177
  313MOL    C6938133   0.200   6.509   5.380  0.0047 -0.5297  0.5439
  313MOL    H7038134   0.239   6.709   5.467  0.2398  1.2779 -1.8520
  313MOL    H7138135   0.303   6.684   5.305  0.4839  1.6872  1.0437
  313MOL    H7238136   0.256   6.430   5.329 -1.0619 -0.9339 -0.0079
  313MOL    H7338137   0.166   6.467   5.475  1.4880 -0.0153  1.3199
  313MOL    C7438138   0.061   6.549   5.314 -0.0698 -0.2258  0.1338
  313MOL    C7538139   7.650   6.435   5.315  0.8601 -0.2638  0.3138
  313MOL    H7638140   0.030   6.643   5.359 -0.3928 -0.2946  0.0606
  313MOL    H7738141   0.078   6.572   5.209 -1.4856 -3.2164 -0.8185
  313MOL    H7838142   7.681   6.359   5.243 -0.7336 -1.5290  0.9347
  313MOL    H7938143   7.644   6.401   5.419 -0.4084  0.3976  0.4687
  313MOL    C8038144   7.508   6.495   5.272 -0.0596 -0.2108 -0.1028
  313MOL    C8138145   7.394   6.396   5.314  0.5098  0.4406 -0.0186
  313MOL    H8238146   7.482   6.583   5.331 -0.7372 -0.4341 -0.0643
  313MOL    H8338147   7.501   6.530   5.170  1.1524  1.7677  0.4610
  313MOL    H8438148   7.406   6.306   5.253  2.3106  1.1229 -0.6971
  313MOL    H8538149   7.397   6.366   5.418  3.4367 -1.3522 -0.5531
  313MOL    C8638150   7.258   6.460   5.282  0.2309  1.1749 -0.8028
  313MOL    C8738151   7.141   6.371   5.305  0.6263 -0.0536 -0.2078
  313MOL    H8838152   7.245   6.548   5.346 -2.6131  0.7288 -0.7261
  313MOL    H8938153   7.264   6.490   5.177 -2.3439  1.5803 -0.8582
  313MOL    H9038154   7.163   6.270   5.273  0.4937 -0.0694 -0.2516
  313MOL    H9138155   7.105   6.366   5.408  0.4699 -3.8021 -0.3835
  313MOL    C9238156   7.014   6.428   5.237  0.5900  0.3754 -0.0574
  313MOL    C9338157   6.878   6.352   5.263  0.1565 -0.5656  0.0442
  313MOL    H9438158   7.000   6.531   5.269  2.6323  0.7993 -0.5003
  313MOL    H9538159   7.016   6.432   5.129 -2.6025  2.8028 -0.1255
  313MOL    H9638160   6.888   6.254   5.215  0.2353 -0.1502 -0.7943
  313MOL    H9738161   6.864   6.348   5.371  0.3033  1.4079  0.1556
  313MOL    C9838162   6.754   6.413   5.197  0.0684  0.0325 -0.3045
  313MOL    C9938163   6.628   6.325   5.214 -1.1353  0.4388  0.2304
  313MOL   H10038164   6.750   6.518   5.226  0.0178  0.1177 -0.6200
  313MOL   H10138165   6.775   6.427   5.091 -0.1045  0.5492 -0.2721
  313MOL   H10238166   6.660   6.229   5.174  3.0761  2.2795 -1.1825
  313MOL   H10338167   6.601   6.304   5.318  0.2620  0.4736  0.6205
  313MOL   C10438168   6.509   6.383   5.141 -0.0816  0.0106  0.3491
  313MOL   C10538169   6.404   6.269   5.121 -0.5300 -0.0216 -0.2467
  313MOL   H10638170   6.470   6.476   5.183 -1.4778  0.7327 -2.3925
  313MOL   H10738171   6.538   6.415   5.040  0.1009  0.1098  0.4314
  313MOL   H10838172   6.449   6.178   5.082 -3.0226 -2.3167  1.9662
  313MOL   H10938173   6.378   6.242   5.224 -2.1434 -0.2365 -0.6956
  313MOL   C11038174   6.271   6.307   5.057 -0.3750  0.0694  0.0130
  313MOL   C11138175   6.188   6.184   5.038  0.2309 -0.4039  0.7096
  313MOL   H11238176   6.213   6.370   5.124 -0.8736 -0.3029 -0.0674
  313MOL   H11338177   6.287   6.353   4.960 -0.5734  1.0991  0.4667
  313MOL   H11438178   6.247   6.105   4.992 -0.5170 -1.3549  1.3490
  313MOL   H11538179   6.167   6.142   5.136 -0.4808 -0.6399  0.4630
  313MOL   C11638180   6.048   6.211   4.976  0.0617 -1.7822 -0.1420
  313MOL   C11738181   5.961   6.080   4.961 -0.6937  0.2775  0.3797
  313MOL   H11838182   5.986   6.282   5.031  0.0886 -1.0910 -0.9875
  313MOL   H11938183   6.060   6.252   4.876 -0.9991 -0.2910  0.3252
  313MOL   H12038184   5.865   6.098   4.913 -0.5350 -2.3188 -1.0028
  313MOL   H12138185   6.016   6.008   4.901  0.1630  2.5142 -1.6278
  313MOL   H12238186   5.938   6.045   5.061 -2.2117 -1.0379 -0.4104
  314MOL     C138187   3.817   3.312   3.612  0.1282 -0.2443 -0.8440
  314MOL     C238188   3.743   3.170   3.603 -0.4121  0.3134 -0.0840
  314MOL     H338189   3.899   3.315   3.684 -1.2718  1.1587  0.7695
  314MOL     H438190   3.752   3.389   3.653  0.6229 -0.0852 -0.3512
  314MOL     H538191   3.801   3.095   3.548 -0.3343  1.4768 -1.6230
  314MOL     H638192   3.729   3.128   3.703 -2.1220 -0.8140 -0.7851
  314MOL     H738193   3.857   3.340   3.516 -1.0430 -3.0193 -2.2187
  314MOL     C838194   3.605   3.181   3.538 -0.1104 -0.3664  0.0014
  314MOL     C938195   3.540   3.045   3.526  0.2045  0.8617  0.6653
  314MOL    H1038196   3.539   3.240   3.602 -1.6081 -1.9659 -0.0518
  314MOL    H1138197   3.612   3.232   3.442  0.6502  1.3809  0.9553
  314MOL    H1238198   3.590   2.984   3.450 -1.7458  1.5386 -1.1738
  314MOL    H1338199   3.546   2.990   3.621  0.2621  0.6874  0.5614
  314MOL    C1438200   3.395   3.053   3.477 -0.8512 -0.1267 -0.3879
  314MOL    C1538201   3.347   2.922   3.414  0.0369 -0.8672  0.0012
  314MOL    H1638202   3.318   3.105   3.532  0.6936  1.6157  0.1835
  314MOL    H1738203   3.410   3.112   3.386  0.2065 -0.1235 -0.2217
  314MOL    H1838204   3.260   2.944   3.354 -0.1389 -1.6311 -0.0331
  314MOL    H1938205   3.425   2.895   3.343  1.2209 -1.3450  1.4305
  314MOL    C2038206   3.308   2.820   3.525 -0.3069 -0.8034  0.7748
  314MOL    C2138207   3.161   2.834   3.578 -0.3735 -0.1093  0.0029
  314MOL    H2238208   3.315   2.720   3.484 -1.8942 -0.1749 -1.1509
  314MOL    H2338209   3.374   2.830   3.611  0.7256 -1.5707  0.0719
  314MOL    H2438210   3.151   2.935   3.617  3.8857  0.2672  0.3207
  314MOL    H2538211   3.094   2.816   3.493  1.9951 -0.4552 -1.8305
  314MOL    C2638212   3.123   2.732   3.691  0.0307  0.0458  0.0849
  314MOL    C2738213   2.975   2.718   3.711 -0.6127 -0.5277 -0.3532
  314MOL    H2838214   3.163   2.636   3.661  0.5663  1.2313 -3.1824
  314MOL    H2938215   3.176   2.765   3.781 -1.1216 -0.0719  0.8190
  314MOL    H3038216   2.928   2.812   3.739  1.1643  0.2594  0.0362
  314MOL    H3138217   2.931   2.694   3.614  1.3329  1.0298 -1.6566
  314MOL    C3238218   2.945   2.612   3.816  0.3048 -0.1197  0.4260
  314MOL    C3338219   2.952   2.665   3.951 -0.2583  0.7180 -0.1737
  314MOL    H3438220   2.852   2.562   3.792  0.3359 -0.3043  0.6918
  314MOL    H3538221   3.013   2.528   3.799 -0.0299 -0.1827 -0.6552
  314MOL    H3638222   2.965   2.588   4.026 -1.6206 -0.2131 -0.8684
  314MOL    H3738223   3.049   2.714   3.963  1.0032 -1.8192  0.2435
  314MOL    C3838224   2.822   2.743   4.000  0.5449 -0.0079 -0.3489
  314MOL    C3938225   2.840   2.841   4.121 -1.0236  0.2655 -0.5070
  314MOL    H4038226   2.782   2.793   3.912 -2.4162 -2.5610 -0.5928
  314MOL    H4138227   2.743   2.675   4.033  2.9095 -2.5234  0.3384
  314MOL    H4238228   2.894   2.791   4.201  0.2427  1.2062 -0.7722
  314MOL    H4338229   2.904   2.926   4.100  0.2434  0.1291  2.5862
  314MOL    C4438230   2.706   2.890   4.180  0.3077 -0.1771 -0.2524
  314MOL    C4538231   2.733   2.978   4.291  0.1144  0.4433  0.3698
  314MOL    H4638232   2.636   2.938   4.111 -0.5248 -1.8403 -0.5840
  314MOL    H4738233   2.640   2.807   4.207  0.0452 -0.1807 -0.8954
  314MOL    H4838234   2.795   2.930   4.367 -1.6959 -0.6458  1.2072
  314MOL    H4938235   2.796   3.060   4.258 -1.4469  2.3731  2.0996
  314MOL    C5038236   2.616   3.043   4.352  0.1327 -0.1733 -0.0853
  314MOL    C5138237   2.653   3.116   4.482  0.2782  0.0308 -0.3729
  314MOL    H5238238   2.569   3.105   4.275  0.6276 -0.4106 -0.5787
  314MOL    H5338239   2.543   2.962   4.355 -0.0172 -0.0124  0.7300
  314MOL    H5438240   2.702   3.046   4.550  1.7176  0.3259 -1.0844
  314MOL    H5538241   2.709   3.208   4.462 -2.1797  1.6243 -0.0923
  314MOL    C5638242   2.533   3.173   4.571  0.4321  0.7043  0.2494
  314MOL    C5738243   2.439   3.275   4.498 -0.4633  0.8115 -0.7654
  314MOL    H5838244   2.480   3.082   4.602  2.4618 -0.2595  1.0089
  314MOL    H5938245   2.574   3.216   4.662  0.5959  1.3115 -0.1085
  314MOL    H6038246   2.486   3.371   4.479  0.4840  0.8162  1.5221
  314MOL    H6138247   2.417   3.236   4.398 -0.2304  0.2471 -0.6000
  314MOL    C6238248   2.311   3.295   4.585  0.0355 -0.1046  0.2570
  314MOL    C6338249   2.216   3.380   4.511 -0.4275 -0.4910  0.0631
  314MOL    H6438250   2.259   3.205   4.617 -2.6078  0.1947 -3.0032
  314MOL    H6538251   2.341   3.346   4.677  0.5193 -1.9223  1.1363
  314MOL    H6638252   2.274   3.457   4.459 -0.0350  1.4046  3.2000
  314MOL    H6738253   2.172   3.320   4.432  1.0625  0.5513 -1.6284
  314MOL    C6838254   2.118   3.453   4.608  0.3029 -0.6085 -0.6885
  314MOL    C6938255   2.020   3.542   4.524 -0.2580  0.1600  0.6719
  314MOL    H7038256   2.051   3.380   4.655 -1.3330  1.1770 -0.1820
  314MOL    H7138257   2.174   3.508   4.684 -1.5006 -1.4183  1.2868
  314MOL    H7238258   2.074   3.593   4.444  0.0265 -0.3303  0.5490
  314MOL    H7338259   1.943   3.476   4.484 -1.8121  2.2182  0.1681
  314MOL    C7438260   1.944   3.644   4.605  0.3630  0.3756 -0.1770
  314MOL    C7538261   1.846   3.712   4.504  0.0048  0.5201 -0.3557
  314MOL    H7638262   1.888   3.596   4.685 -1.1348 -1.1780 -2.0883
  314MOL    H7738263   2.017   3.715   4.643  0.9201 -0.7314  0.8310
  314MOL    H7838264   1.900   3.762   4.424 -2.4775 -0.0453 -2.4766
  314MOL    H7938265   1.787   3.628   4.467  3.0788 -1.7063 -0.2993
  314MOL    C8038266   1.754   3.813   4.571 -0.0174 -0.1714 -0.3500
  314MOL    C8138267   1.815   3.947   4.617 -0.0743 -0.2427  0.8180
  314MOL    H8238268   1.671   3.845   4.508  0.8233  3.1374  0.1394
  314MOL    H8338269   1.710   3.754   4.652  0.7206 -1.4974 -0.8994
  314MOL    H8438270   1.853   3.935   4.718  0.3488 -2.1406  0.4529
  314MOL    H8538271   1.895   3.956   4.544  0.4787 -0.8196  1.3432
  314MOL    C8638272   1.720   4.067   4.623 -0.0284  0.0061  0.0512
  314MOL    C8738273   1.792   4.193   4.673  0.2931 -0.4912 -0.6730
  314MOL    H8838274   1.681   4.079   4.522 -0.2132 -0.6028  0.0499
  314MOL    H8938275   1.634   4.047   4.687  0.5291  0.2830  0.9035
  314MOL    H9038276   1.851   4.156   4.757  1.9931  1.0752 -1.1447
  314MOL    H9138277   1.856   4.226   4.591 -0.9788 -2.8487 -2.6741
  314MOL    C9238278   1.686   4.295   4.715  1.2616  0.0162 -0.3342
  314MOL    C9338279   1.748   4.396   4.803  0.4077 -0.4582  0.3239
  314MOL    H9438280   1.632   4.338   4.630 -1.7748 -2.9177 -0.0073
  314MOL    H9538281   1.620   4.236   4.778  2.1256 -1.3094 -0.6475
  314MOL    H9638282   1.821   4.345   4.865  0.0467 -0.1595  0.9993
  314MOL    H9738283   1.802   4.469   4.743  1.0297  0.0353  1.4855
  314MOL    C9838284   1.651   4.480   4.891 -0.2719  0.4077 -0.3416
  314MOL    C9938285   1.721   4.554   4.997  0.2815 -0.8670  0.3506
  314MOL   H10038286   1.610   4.559   4.827 -0.6996  1.1373  0.8139
  314MOL   H10138287   1.581   4.407   4.930 -0.0591 -0.0351 -0.7873
  314MOL   H10238288   1.787   4.498   5.063  0.7785  1.0340  1.5110
  314MOL   H10338289   1.786   4.622   4.942 -0.7656  0.4862  0.7485
  314MOL   C10438290   1.622   4.643   5.072  0.3877  0.3535  0.6232
  314MOL   C10538291   1.546   4.583   5.190  0.9835  0.0832  0.2458
  314MOL   H10638292   1.664   4.741   5.090  0.6969  0.4206 -0.4547
  314MOL   H10738293   1.546   4.674   5.001  2.2196 -0.2305 -1.6507
  314MOL   H10838294   1.441   4.612   5.186  1.0863  0.2641 -1.2628
  314MOL   H10938295   1.541   4.474   5.182 -0.2239 -0.0025  1.8392
  314MOL   C11038296   1.593   4.623   5.331  0.3953 -0.7272 -0.0161
  314MOL   C11138297   1.721   4.564   5.373 -0.4374  0.0182  0.7112
  314MOL   H11238298   1.603   4.731   5.329 -2.7630 -0.4176 -1.3709
  314MOL   H11338299   1.515   4.597   5.403  1.3134 -0.2788  1.1570
  314MOL   H11438300   1.713   4.457   5.361 -0.7922 -0.1600  2.3567
  314MOL   H11538301   1.807   4.593   5.312  1.2154 -0.8474  2.5626
  314MOL   C11638302   1.760   4.592   5.516  0.3269 -0.9045  0.3409
  314MOL   C11738303   1.880   4.522   5.565 -0.0338 -0.0757  0.3538
  314MOL   H11838304   1.763   4.697   5.544  0.3294 -1.0610  0.9490
  314MOL   H11938305   1.676   4.553   5.575  0.5348  0.0258  1.2682
  314MOL   H12038306   1.855   4.416   5.566 -3.1762  0.6261  3.0271
  314MOL   H12138307   1.963   4.526   5.494  1.2889  2.4552  1.9682
  314MOL   H12238308   1.914   4.554   5.663  2.1766  0.6972 -0.6245
  315MOL     C138309   3.876   3.135   3.096 -0.8968  0.2111  0.4148
  315MOL     C238310   3.948   3.194   3.220  0.5177  0.2949 -0.2356
  315MOL     H338311   3.805   3.205   3.052 -0.8003  0.2408  0.3040
  315MOL     H438312   3.819   3.048   3.126 -0.3871 -0.6144 -0.9541
  315MOL     H538313   3.871   3.203   3.297 -0.3796 -1.2070 -0.9260
  315MOL     H638314   4.011   3.112   3.256  0.2928  0.6527  1.0280
  315MOL     H738315   3.955   3.107   3.026  0.0521  0.9411  1.1716
  315MOL     C838316   4.044   3.309   3.174 -0.7824 -0.3370  0.1479
  315MOL     C938317   4.176   3.251   3.125 -0.3161 -0.5646  0.3777
  315MOL    H1038318   3.991   3.366   3.097  0.0304 -1.3508 -1.1806
  315MOL    H1138319   4.057   3.373   3.261 -2.4940  1.1919 -0.6761
  315MOL    H1238320   4.221   3.182   3.197  0.1806  0.0475  0.6493
  315MOL    H1338321   4.159   3.180   3.043 -1.4035 -0.7386  0.7464
  315MOL    C1438322   4.274   3.353   3.070 -0.4310  0.1324  0.1491
  315MOL    C1538323   4.412   3.292   3.047 -0.5398  0.7510 -0.0124
  315MOL    H1638324   4.234   3.409   2.985 -1.7208 -1.0212 -0.0251
  315MOL    H1738325   4.281   3.430   3.147  3.1869 -0.4680  0.4805
  315MOL    H1838326   4.457   3.242   3.132  1.3887 -1.4601 -2.2489
  315MOL    H1938327   4.401   3.215   2.970 -0.8940 -0.3461  1.1300
  315MOL    C2038328   4.508   3.398   2.997  0.1370  0.2910 -0.0955
  315MOL    C2138329   4.651   3.345   2.970 -0.8057 -0.4653  0.3649
  315MOL    H2238330   4.460   3.444   2.911 -0.2137 -0.2859 -0.2121
  315MOL    H2338331   4.511   3.474   3.076  1.3924 -1.5314  1.6607
  315MOL    H2438332   4.701   3.304   3.057  2.1846 -0.1385 -1.1137
  315MOL    H2538333   4.652   3.255   2.909 -1.0854  0.5739 -1.2256
  315MOL    C2638334   4.750   3.446   2.901  0.2160 -0.2822 -0.5475
  315MOL    C2738335   4.888   3.396   2.848  0.0463  0.1799 -0.5838
  315MOL    H2838336   4.707   3.503   2.818 -1.0735  0.2150  0.4420
  315MOL    H2938337   4.769   3.529   2.969  0.1622 -1.1301  0.5084
  315MOL    H3038338   4.941   3.349   2.931 -1.1646 -1.9359 -0.9718
  315MOL    H3138339   4.873   3.328   2.764  0.8005  0.1893 -0.7307
  315MOL    C3238340   4.971   3.509   2.796  0.0364 -0.0266  0.5700
  315MOL    C3338341   5.113   3.456   2.757 -0.2132  0.5595  0.2061
  315MOL    H3438342   4.922   3.577   2.727  1.1451  1.9876  1.7302
  315MOL    H3538343   5.002   3.567   2.883  1.2614 -1.8713  1.4114
  315MOL    H3638344   5.157   3.409   2.846 -2.1691 -2.1414 -0.1950
  315MOL    H3738345   5.108   3.380   2.679  0.1045  0.0611  0.6578
  315MOL    C3838346   5.197   3.572   2.716  0.7096 -1.4371 -0.3536
  315MOL    C3938347   5.341   3.547   2.715 -0.3469 -0.1125  0.5206
  315MOL    H4038348   5.164   3.605   2.618 -1.4506 -1.0453  0.4814
  315MOL    H4138349   5.183   3.664   2.773  0.0244 -0.9095 -1.3482
  315MOL    H4238350   5.376   3.498   2.806  1.8099 -1.1137 -0.7875
  315MOL    H4338351   5.378   3.476   2.641  1.4223  1.3886 -0.0889
  315MOL    C4438352   5.418   3.682   2.689  0.6465 -0.1602  0.2155
  315MOL    C4538353   5.386   3.757   2.553 -0.0381  0.5061  0.5933
  315MOL    H4638354   5.386   3.750   2.767 -0.1363 -0.3836  0.0918
  315MOL    H4738355   5.523   3.652   2.688 -0.1074 -3.0114  1.5558
  315MOL    H4838356   5.412   3.676   2.485 -1.1748  2.3510 -2.1441
  315MOL    H4938357   5.281   3.779   2.532  0.0492 -1.1108 -1.6997
  315MOL    C5038358   5.474   3.874   2.521 -0.4639 -0.4822  0.0804
  315MOL    C5138359   5.473   3.992   2.618 -0.0176  0.2058  0.0070
  315MOL    H5238360   5.578   3.841   2.521 -1.4018 -3.6020 -0.5021
  315MOL    H5338361   5.447   3.909   2.421 -1.3902 -2.3045 -0.3282
  315MOL    H5438362   5.368   4.013   2.642 -0.2322  1.0807 -1.6353
  315MOL    H5538363   5.524   3.952   2.705 -0.6883 -3.2795 -1.1305
  315MOL    C5638364   5.536   4.110   2.549  0.1072  0.2701  0.8425
  315MOL    C5738365   5.528   4.235   2.640 -0.1399  0.1065 -0.4367
  315MOL    H5838366   5.643   4.092   2.537 -0.1338 -0.5851 -0.1651
  315MOL    H5938367   5.496   4.128   2.449  0.8482  1.9779  0.8371
  315MOL    H6038368   5.542   4.322   2.576  2.1602 -0.4636 -0.7435
  315MOL    H6138369   5.430   4.236   2.687 -1.2400 -1.1620 -2.6318
  315MOL    C6238370   5.625   4.224   2.760 -0.5379  0.1097  0.3347
  315MOL    C6338371   5.618   4.333   2.859  0.6370 -0.3303  0.0642
  315MOL    H6438372   5.607   4.129   2.811  2.2750 -0.2122  0.8043
  315MOL    H6538373   5.729   4.222   2.727 -1.1205  0.9903 -1.6485
  315MOL    H6638374   5.641   4.425   2.805  1.0981  1.0846  2.6087
  315MOL    H6738375   5.523   4.353   2.908  1.1100 -1.1103  1.3225
  315MOL    C6838376   5.723   4.315   2.968  0.2665 -0.2405 -0.3914
  315MOL    C6938377   5.734   4.454   3.041 -0.1447  0.1129  0.0965
  315MOL    H7038378   5.701   4.233   3.036 -0.6516  0.8094  0.6088
  315MOL    H7138379   5.820   4.285   2.929 -0.4224 -2.4416 -0.4614
  315MOL    H7238380   5.772   4.525   2.969  0.2875  0.8314  1.0189
  315MOL    H7338381   5.633   4.485   3.066 -0.6076 -1.2781  0.0178
  315MOL    C7438382   5.828   4.441   3.161  0.7949 -0.4674 -0.4125
  315MOL    C7538383   5.851   4.563   3.242  0.5418 -0.7725 -0.0592
  315MOL    H7638384   5.790   4.358   3.220  1.7056 -0.7415 -0.2012
  315MOL    H7738385   5.933   4.421   3.140  0.6337 -0.5071 -1.1932
  315MOL    H7838386   5.909   4.633   3.182 -1.6745  1.8483  0.7200
  315MOL    H7938387   5.752   4.608   3.250 -0.0300 -2.0215  0.0786
  315MOL    C8038388   5.925   4.538   3.379  0.0901 -0.0433 -0.6199
  315MOL    C8138389   5.958   4.663   3.466  0.0292  0.3913  0.5946
  315MOL    H8238390   5.850   4.478   3.430 -0.2896  0.2549 -0.8304
  315MOL    H8338391   6.017   4.482   3.359 -1.3236 -1.4093 -3.4083
  315MOL    H8438392   6.018   4.725   3.400  1.0772  0.4666  1.5942
  315MOL    H8538393   5.865   4.709   3.499  0.3409  0.4054  1.4815
  315MOL    C8638394   6.036   4.629   3.591  0.4872 -0.4683 -0.5807
  315MOL    C8738395   5.978   4.537   3.701 -0.2475 -0.1425  0.0638
  315MOL    H8838396   6.135   4.596   3.557  0.5724 -1.0437  0.2108
  315MOL    H8938397   6.047   4.726   3.639 -0.5338 -0.7490  0.2409
  315MOL    H9038398   5.879   4.572   3.728 -1.7442 -3.9081 -0.1968
  315MOL    H9138399   5.955   4.442   3.651  0.4103  0.1069 -0.7231
  315MOL    C9238400   6.072   4.501   3.825 -0.1214 -0.0074 -0.5421
  315MOL    C9338401   6.212   4.448   3.781 -0.4531  0.0857 -0.5008
  315MOL    H9438402   6.065   4.591   3.887 -0.9183  1.4528 -2.6912
  315MOL    H9538403   6.018   4.427   3.884  0.9415  0.8462  1.5604
  315MOL    H9638404   6.196   4.372   3.705  1.7013 -0.0662 -0.8556
  315MOL    H9738405   6.267   4.532   3.736 -0.5698  0.8535  0.7827
  315MOL    C9838406   6.290   4.397   3.898 -0.1607  0.1512  0.1506
  315MOL    C9938407   6.426   4.353   3.856 -0.1198 -0.2333  0.3261
  315MOL   H10038408   6.283   4.472   3.977 -0.4322  0.8964 -0.5858
  315MOL   H10138409   6.236   4.309   3.934  0.1957 -0.0388  0.2170
  315MOL   H10238410   6.425   4.276   3.778  0.1434  0.4133 -0.3285
  315MOL   H10338411   6.473   4.435   3.801 -0.4481  0.5896  1.2627
  315MOL   C10438412   6.513   4.302   3.971 -0.0667 -0.3768  0.1593
  315MOL   C10538413   6.509   4.388   4.101 -0.6391  0.1855 -0.4099
  315MOL   H10638414   6.470   4.203   3.984 -1.5909  0.3442  0.7982
  315MOL   H10738415   6.614   4.290   3.932 -0.2080 -2.0650  0.2682
  315MOL   H10838416   6.540   4.489   4.077 -0.2497  0.1829  0.0660
  315MOL   H10938417   6.410   4.392   4.147 -2.1327 -1.3623 -3.3396
  315MOL   C11038418   6.610   4.328   4.199 -0.4835 -0.4664 -0.3221
  315MOL   C11138419   6.736   4.409   4.208 -0.7510 -0.3614  0.4763
  315MOL   H11238420   6.568   4.342   4.298  0.3923  0.3266 -0.0507
  315MOL   H11338421   6.639   4.226   4.175  3.3127  1.1203 -2.9136
  315MOL   H11438422   6.781   4.409   4.108 -0.2422  0.2075  0.7038
  315MOL   H11538423   6.716   4.514   4.229 -1.6065 -0.1378 -1.3407
  315MOL   C11638424   6.840   4.358   4.316  0.4528 -0.4073  0.3476
  315MOL   C11738425   6.896   4.211   4.309  0.2148 -0.4356  0.3747
  315MOL   H11838426   6.921   4.430   4.326  0.0923 -0.0900  1.0130
  315MOL   H11938427   6.786   4.367   4.410 -1.3701  1.3341 -0.8155
  315MOL   H12038428   6.817   4.136   4.302  0.3348 -0.6672  1.3444
  315MOL   H12138429   6.938   4.181   4.213  2.4804  0.0336  1.1707
  315MOL   H12238430   6.962   4.183   4.392  1.3192 -1.1722 -0.7301
  316MOL     C138431   0.094   1.573   7.548  0.3215 -0.6129  0.6310
  316MOL     C238432   0.135   1.583   7.402  0.1184 -0.3593 -0.0898
  316MOL     H338433   7.690   1.618   7.574  1.5699  2.2279  0.5199
  316MOL     H438434   0.162   1.627   7.615 -0.1227  1.3527 -0.4644
  316MOL     H538435   0.234   1.542   7.383 -0.4819 -2.7586  1.7505
  316MOL     H638436   0.080   1.522   7.330  1.1758  1.6170 -2.6707
  316MOL     H738437   0.096   1.470   7.583 -2.2560 -1.4755 -1.6178
  316MOL     C838438   0.132   1.732   7.350 -0.2546 -0.1986 -0.6848
  316MOL     C938439   0.154   1.748   7.199 -1.0580 -0.2885 -0.2525
  316MOL    H1038440   0.035   1.779   7.367 -0.1411  0.5868 -2.1284
  316MOL    H1138441   0.192   1.799   7.411 -0.8200  0.3395 -0.7238
  316MOL    H1238442   0.244   1.694   7.169 -0.8168 -1.1110  1.8074
  316MOL    H1338443   0.076   1.697   7.144  0.3655 -1.1468 -1.5263
  316MOL    C1438444   0.161   1.890   7.160 -0.0611 -0.0626  0.4575
  316MOL    C1538445   0.222   1.894   7.024  0.0036 -0.7799 -0.6857
  316MOL    H1638446   0.065   1.942   7.166  0.0159 -0.1586  2.7033
  316MOL    H1738447   0.217   1.946   7.235 -1.1079  1.7223 -0.0585
  316MOL    H1838448   0.322   1.850   7.020  1.1091  1.3008  2.4634
  316MOL    H1938449   0.157   1.834   6.960  0.6359 -2.7916  0.5435
  316MOL    C2038450   0.220   2.026   6.950  0.0129 -0.3726  0.1777
  316MOL    C2138451   0.301   2.016   6.818 -0.2897  0.3201 -0.3151
  316MOL    H2238452   0.116   2.054   6.936  0.5876  1.4360 -0.4972
  316MOL    H2338453   0.259   2.107   7.012  1.7881 -0.6449 -0.5338
  316MOL    H2438454   0.405   1.986   6.827  0.1557  1.9293 -0.0108
  316MOL    H2538455   0.265   1.928   6.763 -0.5459  0.4916 -0.4246
  316MOL    C2638456   0.281   2.144   6.738  0.9818  0.5061 -0.4155
  316MOL    C2738457   0.359   2.132   6.608 -0.2162 -0.1502 -0.4462
  316MOL    H2838458   0.180   2.164   6.701  0.6945 -1.3874 -0.7079
  316MOL    H2938459   0.311   2.238   6.786  0.9836 -0.3334  1.2588
  316MOL    H3038460   0.456   2.086   6.627  0.2555  0.9018 -0.2832
  316MOL    H3138461   0.312   2.062   6.538 -0.4533  2.8119 -3.3698
  316MOL    C3238462   0.379   2.246   6.508 -0.1626  0.3189  0.1125
  316MOL    C3338463   0.465   2.197   6.391 -0.0415  0.0227 -0.2187
  316MOL    H3438464   0.283   2.274   6.464 -0.2158 -1.1570 -0.7327
  316MOL    H3538465   0.425   2.328   6.564  0.4897  0.3917 -0.5235
  316MOL    H3638466   0.562   2.166   6.429  0.7238  2.1706 -0.3481
  316MOL    H3738467   0.411   2.114   6.346 -1.2758 -0.0612  1.3956
  316MOL    C3838468   0.492   2.309   6.282  0.0605  0.0244  0.4058
  316MOL    C3938469   0.606   2.264   6.188 -0.7513 -0.5463  0.1450
  316MOL    H4038470   0.397   2.323   6.229  0.0346 -0.4620  0.3267
  316MOL    H4138471   0.512   2.402   6.335  0.1005 -0.7165  1.6906
  316MOL    H4238472   0.686   2.227   6.253  0.8677  0.7016 -1.0691
  316MOL    H4338473   0.572   2.182   6.125 -1.6531 -0.4035  0.4372
  316MOL    C4438474   0.650   2.377   6.092 -0.1937  0.1023 -0.0932
  316MOL    C4538475   0.771   2.319   6.009 -0.7274  0.2694 -0.2637
  316MOL    H4638476   0.564   2.407   6.032 -0.2500  2.5773  1.1520
  316MOL    H4738477   0.685   2.471   6.135  0.5698  0.3933 -1.3209
  316MOL    H4838478   0.851   2.290   6.076 -0.7298  1.8334  0.4484
  316MOL    H4938479   0.718   2.238   5.959 -0.3002 -1.3655  1.8792
  316MOL    C5038480   0.810   2.432   5.911  0.0448 -0.1780  0.1987
  316MOL    C5138481   0.897   2.400   5.790 -0.0823  0.7227 -0.2654
  316MOL    H5238482   0.715   2.477   5.880  0.2781 -0.1191 -0.4470
  316MOL    H5338483   0.862   2.514   5.959 -1.9449  1.1593  0.1334
  316MOL    H5438484   0.981   2.341   5.827 -2.0965 -1.5067  0.9196
  316MOL    H5538485   0.842   2.339   5.717  0.3946  0.3347 -0.3002
  316MOL    C5638486   0.949   2.527   5.711 -0.4604  0.8524  0.1781
  316MOL    C5738487   1.057   2.502   5.602 -0.3529  0.5404 -0.2973
  316MOL    H5838488   0.864   2.584   5.673 -1.8981 -0.8838  0.6848
  316MOL    H5938489   0.996   2.601   5.775  0.0659 -0.2795  1.1197
  316MOL    H6038490   1.146   2.452   5.642 -1.1627  0.5465  1.5865
  316MOL    H6138491   1.013   2.443   5.522 -0.6689 -1.6427  1.4254
  316MOL    C6238492   1.099   2.625   5.531 -0.2446  0.2718  0.1495
  316MOL    C6338493   1.202   2.590   5.418 -0.7107 -0.4024 -0.4827
  316MOL    H6438494   1.013   2.677   5.489  2.4419  2.9713 -2.2669
  316MOL    H6538495   1.144   2.697   5.599  1.7272 -1.6327  0.8977
  316MOL    H6638496   1.281   2.528   5.460 -0.4888  0.3719  0.2603
  316MOL    H6738497   1.161   2.536   5.333 -3.5637 -0.3817  0.7896
  316MOL    C6838498   1.278   2.716   5.372  0.0794  0.2100  0.0036
  316MOL    C6938499   1.396   2.693   5.278 -0.8498 -0.6166 -0.2312
  316MOL    H7038500   1.211   2.788   5.325  3.0735  2.4060 -1.0399
  316MOL    H7138501   1.309   2.766   5.464 -1.4338 -0.8221  1.1072
  316MOL    H7238502   1.486   2.652   5.325 -0.4753 -0.7790 -1.0791
  316MOL    H7338503   1.375   2.626   5.195  1.5689 -1.5330 -0.1584
  316MOL    C7438504   1.454   2.821   5.207 -0.1226 -0.1265  0.5974
  316MOL    C7538505   1.535   2.805   5.074  0.4370  0.5620  0.3651
  316MOL    H7638506   1.375   2.893   5.184  0.2145  0.0454 -0.0314
  316MOL    H7738507   1.520   2.875   5.274  0.1136 -0.6144  0.7568
  316MOL    H7838508   1.611   2.730   5.096 -0.9408 -0.4044  2.0139
  316MOL    H7938509   1.474   2.760   4.996  0.7672 -0.3991  0.6541
  316MOL    C8038510   1.619   2.926   5.030  1.1115 -0.7898  0.8059
  316MOL    C8138511   1.694   2.904   4.896 -0.2290  0.4370  1.2130
  316MOL    H8238512   1.556   3.013   5.011  1.0229 -1.2066 -0.8553
  316MOL    H8338513   1.705   2.948   5.095  1.6798 -0.1203 -0.1565
  316MOL    H8438514   1.775   2.832   4.908 -0.6483 -0.2242  0.1698
  316MOL    H8538515   1.619   2.872   4.824  0.7617 -0.3941  0.5373
  316MOL    C8638516   1.747   3.043   4.850 -0.1612  0.1980  0.3001
  316MOL    C8738517   1.816   3.036   4.716 -0.2861  0.2438 -0.1612
  316MOL    H8838518   1.672   3.121   4.847 -1.3927 -1.0047 -0.6531
  316MOL    H8938519   1.823   3.070   4.924 -0.0243 -0.1836  0.3017
  316MOL    H9038520   1.922   3.024   4.736 -0.3782 -1.5876 -0.7010
  316MOL    H9138521   1.791   2.949   4.655  2.1441  0.0132 -0.8427
  316MOL    C9238522   1.804   3.165   4.630  0.3210 -0.5436 -0.3619
  316MOL    C9338523   1.672   3.167   4.551 -0.4858  0.4229  0.3397
  316MOL    H9438524   1.811   3.248   4.700 -1.4706  0.5265 -1.4190
  316MOL    H9538525   1.893   3.172   4.567 -1.2905  0.4648 -2.5959
  316MOL    H9638526   1.673   3.090   4.474 -1.9312  3.0905 -2.4501
  316MOL    H9738527   1.582   3.145   4.608  0.4660  0.0687  1.7386
  316MOL    C9838528   1.644   3.300   4.477  0.7409  0.3481  0.5348
  316MOL    C9938529   1.514   3.293   4.379  0.1123  0.4459  0.0060
  316MOL   H10038530   1.625   3.379   4.549 -2.1638  0.1207  0.0668
  316MOL   H10138531   1.723   3.337   4.411 -0.8875  0.5502 -1.3334
  316MOL   H10238532   1.538   3.237   4.289 -0.3108  1.3470 -0.6744
  316MOL   H10338533   1.423   3.259   4.427 -0.7232  2.4552 -0.0809
  316MOL   C10438534   1.483   3.436   4.317  0.4920 -0.4866 -0.7603
  316MOL   C10538535   1.401   3.428   4.191 -0.0461 -0.7042 -0.6094
  316MOL   H10638536   1.432   3.489   4.398  1.1682 -1.1602  0.1239
  316MOL   H10738537   1.574   3.495   4.303 -1.0313  1.9857 -0.6251
  316MOL   H10838538   1.459   3.371   4.119  0.6830 -1.8441  0.8423
  316MOL   H10938539   1.324   3.355   4.218 -1.2477  0.5997 -0.4709
  316MOL   C11038540   1.332   3.555   4.151 -0.2505  0.2294  0.5178
  316MOL   C11138541   1.211   3.526   4.063 -0.3631 -0.6943 -0.4421
  316MOL   H11238542   1.294   3.610   4.237 -1.0548 -0.1301  0.3943
  316MOL   H11338543   1.411   3.604   4.094  0.0627 -0.2231  0.5561
  316MOL   H11438544   1.237   3.455   3.984  1.3575  0.1913 -0.6988
  316MOL   H11538545   1.137   3.467   4.116 -0.8162  0.4288  0.1798
  316MOL   C11638546   1.155   3.659   4.014 -0.1699  0.2677  0.0570
  316MOL   C11738547   1.009   3.646   3.970 -0.7723  0.2776 -0.3540
  316MOL   H11838548   1.150   3.736   4.092 -1.8592  0.0093  0.2023
  316MOL   H11938549   1.224   3.702   3.942 -1.2801 -0.0627 -1.2082
  316MOL   H12038550   0.982   3.738   3.917 -0.0913  0.8357  0.2621
  316MOL   H12138551   0.993   3.556   3.911 -5.7237  1.1328 -0.5547
  316MOL   H12238552   0.949   3.612   4.054 -0.2975 -4.4072 -1.7502
  317MOL     C138553   0.660   6.995   6.437  0.0060 -0.0921 -0.6427
  317MOL     C238554   0.554   6.956   6.326  0.3378  0.0233  0.2267
  317MOL     H338555   0.756   7.011   6.388 -0.0515  0.0996 -0.6941
  317MOL     H438556   0.673   6.922   6.517  0.2573 -1.0112 -1.5133
  317MOL     H538557   0.541   7.039   6.256  0.7627  1.0640  1.3793
  317MOL     H638558   0.589   6.878   6.257  0.0582 -0.5290  0.7074
  317MOL     H738559   0.635   7.089   6.488 -2.5401 -1.0513 -0.0425
  317MOL     C838560   0.415   6.948   6.388  0.8836 -0.5466 -0.0254
  317MOL     C938561   0.308   6.896   6.285  0.6410  0.2480 -0.2419
  317MOL    H1038562   0.413   6.868   6.462 -3.9700 -1.3658 -0.8669
  317MOL    H1138563   0.393   7.042   6.438 -1.8604 -1.5400  0.7299
  317MOL    H1238564   0.311   6.973   6.208 -0.7524  0.3548 -0.2056
  317MOL    H1338565   0.335   6.798   6.246 -0.1284  0.4264 -1.2620
  317MOL    C1438566   0.160   6.881   6.337 -0.7034 -0.5376 -0.2600
  317MOL    C1538567   0.062   6.851   6.227 -0.2748 -0.2097  0.2795
  317MOL    H1638568   0.169   6.801   6.410  1.3539  0.3990  0.5410
  317MOL    H1738569   0.135   6.974   6.387  2.2707  0.9323 -1.3729
  317MOL    H1838570   0.064   6.939   6.162  1.7211 -0.1988  0.3410
  317MOL    H1938571   0.097   6.754   6.190 -1.4227 -1.3565  2.1351
  317MOL    C2038572   7.615   6.828   6.287 -0.3081 -0.7491 -0.4220
  317MOL    C2138573   7.506   6.803   6.183  0.6164  0.4310  0.2305
  317MOL    H2238574   7.626   6.749   6.362  0.7235 -1.2395 -1.0843
  317MOL    H2338575   7.583   6.920   6.336 -1.0858 -2.4424  2.4276
  317MOL    H2438576   7.504   6.891   6.118  0.6110 -0.4166 -0.9268
  317MOL    H2538577   7.538   6.734   6.106  1.8189  0.9238  0.2789
  317MOL    C2638578   7.365   6.762   6.231 -1.0199 -0.1454 -0.6452
  317MOL    C2738579   7.261   6.734   6.131 -0.1582  0.5179 -0.2817
  317MOL    H2838580   7.371   6.671   6.291 -0.0806  0.5409  0.3329
  317MOL    H2938581   7.323   6.840   6.295  2.3608  3.2553 -2.3595
  317MOL    H3038582   7.249   6.821   6.066 -0.6098  1.1616  0.6583
  317MOL    H3138583   7.291   6.643   6.080 -3.4937 -1.0608  0.4555
  317MOL    C3238584   7.136   6.704   6.204 -0.4296  0.1973  0.0816
  317MOL    C3338585   7.022   6.655   6.115  0.1470  0.2196 -0.2819
  317MOL    H3438586   7.147   6.623   6.276 -2.1290 -1.1685 -1.1576
  317MOL    H3538587   7.104   6.784   6.271 -0.6025  0.9998 -0.9585
  317MOL    H3638588   6.996   6.725   6.036 -1.3769 -1.0246 -0.9154
  317MOL    H3738589   7.058   6.559   6.076 -0.8940 -0.7026  0.9531
  317MOL    C3838590   6.900   6.626   6.196  0.7557 -0.2447  0.0513
  317MOL    C3938591   6.799   6.530   6.127 -0.0104  0.0429 -0.2445
  317MOL    H4038592   6.932   6.582   6.290 -0.5309  0.8453  1.0124
  317MOL    H4138593   6.840   6.715   6.212  0.5585 -0.2572 -0.5785
  317MOL    H4238594   6.710   6.528   6.190  0.3558  0.8884  0.3054
  317MOL    H4338595   6.765   6.570   6.031  0.5856 -0.0478 -0.4933
  317MOL    C4438596   6.852   6.384   6.100  0.2227 -0.0900 -0.7665
  317MOL    C4538597   6.741   6.287   6.036 -0.7487  0.6974  0.3343
  317MOL    H4638598   6.937   6.408   6.037  1.8651  0.2092  1.4706
  317MOL    H4738599   6.885   6.337   6.193 -1.7515  0.6146  0.3235
  317MOL    H4838600   6.651   6.301   6.095 -0.5428 -0.4168  0.9305
  317MOL    H4938601   6.716   6.332   5.940 -0.1916  1.3061  0.4691
  317MOL    C5038602   6.777   6.137   6.026  0.1107  0.6065 -0.5749
  317MOL    C5138603   6.857   6.097   5.897 -0.6845 -0.0518  0.3322
  317MOL    H5238604   6.821   6.095   6.117 -2.3606  0.0054  0.3740
  317MOL    H5338605   6.678   6.094   6.016 -0.0559  1.0788 -0.9512
  317MOL    H5438606   6.798   6.149   5.822 -1.1060 -0.0017  0.6970
  317MOL    H5538607   6.952   6.150   5.892 -0.9306  0.4967  1.1986
  317MOL    C5638608   6.855   5.947   5.875 -0.3872 -0.1832 -0.1626
  317MOL    C5738609   6.911   5.900   5.738  0.4816 -0.4025 -0.0032
  317MOL    H5838610   6.900   5.895   5.959  1.6826  2.5075  0.4750
  317MOL    H5938611   6.750   5.920   5.878 -0.0614 -1.6207 -1.1850
  317MOL    H6038612   6.860   5.954   5.658  1.4781 -1.5650 -1.4615
  317MOL    H6138613   7.015   5.929   5.749  0.6859 -1.0748 -0.1085
  317MOL    C6238614   6.892   5.752   5.713  0.5320 -0.2893  0.1995
  317MOL    C6338615   6.962   5.686   5.594 -0.6485  0.6057  0.0812
  317MOL    H6438616   6.914   5.705   5.809  0.9411  1.3428  0.9193
  317MOL    H6538617   6.784   5.740   5.720  0.6119 -0.0208  2.1593
  317MOL    H6638618   6.940   5.745   5.505  0.5802  1.3415  0.2497
  317MOL    H6738619   7.070   5.697   5.609 -0.2499 -0.8183 -1.5859
  317MOL    C6838620   6.932   5.536   5.588 -0.7054 -0.7692 -0.5360
  317MOL    C6938621   6.998   5.469   5.468  0.7580 -0.3851  0.7065
  317MOL    H7038622   6.956   5.482   5.680 -2.5866 -0.4770  0.1563
  317MOL    H7138623   6.825   5.516   5.581 -0.5642 -1.6251 -0.3293
  317MOL    H7238624   6.949   5.502   5.376  0.6102 -0.7239  0.6603
  317MOL    H7338625   7.102   5.500   5.467  0.7725 -0.3747 -1.6477
  317MOL    C7438626   7.012   5.317   5.474 -0.3959  0.1181 -0.0607
  317MOL    C7538627   7.106   5.262   5.365 -0.5649  0.0102 -0.1919
  317MOL    H7638628   7.040   5.281   5.573  1.9180  2.6096  0.2292
  317MOL    H7738629   6.910   5.278   5.463 -0.9363  1.0223  1.5863
  317MOL    H7838630   7.116   5.334   5.284 -0.2096  1.8726  1.4845
  317MOL    H7938631   7.204   5.247   5.410 -0.8230 -2.0791 -0.2384
  317MOL    C8038632   7.045   5.130   5.308 -0.2988  0.0448 -0.1722
  317MOL    C8138633   7.142   5.051   5.221  0.3552  0.0655 -0.4865
  317MOL    H8238634   7.028   5.073   5.400  3.0374 -0.1164  0.4175
  317MOL    H8338635   6.957   5.153   5.249  0.9193  2.2693 -1.1819
  317MOL    H8438636   7.173   5.114   5.136  1.7903 -0.3376 -0.2764
  317MOL    H8538637   7.233   5.021   5.272 -1.5220 -1.9704  1.7807
  317MOL    C8638638   7.079   4.922   5.170 -0.5507  0.0819  0.5471
  317MOL    C8738639   7.169   4.832   5.083 -0.4303 -0.3411  0.2876
  317MOL    H8838640   7.038   4.866   5.253  1.6549 -1.2068  0.8149
  317MOL    H8938641   6.988   4.945   5.115  0.3786 -0.5245 -1.2972
  317MOL    H9038642   7.203   4.886   4.995 -2.1055 -1.9068 -1.3569
  317MOL    H9138643   7.262   4.805   5.134  0.1984  0.5902 -0.3551
  317MOL    C9238644   7.116   4.697   5.029 -0.0299 -0.3069  0.0161
  317MOL    C9338645   7.114   4.597   5.142 -0.6565 -0.2129  0.4964
  317MOL    H9438646   7.015   4.718   4.992 -0.8135 -2.4120  0.8995
  317MOL    H9538647   7.164   4.657   4.940 -1.0737 -0.1120 -0.6487
  317MOL    H9638648   7.213   4.566   5.173 -0.9176 -2.6773 -1.0032
  317MOL    H9738649   7.072   4.650   5.227 -0.9563  3.3697 -1.7616
  317MOL    C9838650   7.031   4.469   5.111  0.0733 -0.1523 -0.3950
  317MOL    C9938651   6.878   4.490   5.100  0.0983  0.4037  0.2558
  317MOL   H10038652   7.063   4.410   5.025 -2.8787 -2.1573 -0.1661
  317MOL   H10138653   7.042   4.398   5.193 -1.4632 -0.5580 -0.5258
  317MOL   H10238654   6.839   4.556   5.177  0.6649  1.8199 -0.6644
  317MOL   H10338655   6.848   4.527   5.002 -0.9796  1.4481  0.9697
  317MOL   C10438656   6.803   4.362   5.114  0.0949  0.1460  0.4252
  317MOL   C10538657   6.655   4.380   5.108 -0.4138 -0.3038  0.2458
  317MOL   H10638658   6.844   4.294   5.039  0.6323  0.5528  0.3516
  317MOL   H10738659   6.825   4.306   5.205  1.9892  0.0298 -0.0927
  317MOL   H10838660   6.643   4.450   5.191 -2.0315 -0.6681  0.3355
  317MOL   H10938661   6.610   4.417   5.016  0.6401 -0.1938 -0.2266
  317MOL   C11038662   6.580   4.247   5.140  0.0884  0.0042  0.1686
  317MOL   C11138663   6.437   4.272   5.188  0.3823  0.6122 -0.1940
  317MOL   H11238664   6.592   4.190   5.048 -0.8933  0.2682 -0.1292
  317MOL   H11338665   6.622   4.176   5.211 -0.2199 -3.0975 -2.6313
  317MOL   H11438666   6.443   4.335   5.276 -0.7461 -1.2435  1.2499
  317MOL   H11538667   6.379   4.320   5.109 -0.5974 -0.9905 -0.4765
  317MOL   C11638668   6.355   4.138   5.224  0.3385 -0.8725 -0.5993
  317MOL   C11738669   6.228   4.163   5.303 -0.4618 -0.1722 -0.3313
  317MOL   H11838670   6.327   4.082   5.135  0.8570 -1.8208 -0.1805
  317MOL   H11938671   6.418   4.068   5.280  0.4379 -1.3853 -1.3365
  317MOL   H12038672   6.185   4.257   5.269  0.8220  0.2997 -0.6767
  317MOL   H12138673   6.156   4.082   5.291 -2.5343  1.5688  0.0658
  317MOL   H12238674   6.235   4.176   5.411 -0.0670 -0.6198 -0.3018
  318MOL     C138675   4.785   0.026   7.326  0.4101  0.2163 -0.5310
  318MOL     C238676   4.790   0.155   7.261  0.1171  0.0581  0.1009
  318MOL     H338677   4.835   7.641   7.267  1.6551 -0.3200  1.1726
  318MOL     H438678   4.685   7.681   7.348  0.2349  0.0081 -1.6215
  318MOL     H538679   4.896   0.183   7.263  0.9658 -2.7583 -1.9483
  318MOL     H638680   4.764   0.164   7.155 -0.5224  3.6120  0.4814
  318MOL     H738681   4.852   0.032   7.412  1.4294  1.8449 -1.4098
  318MOL     C838682   4.710   0.251   7.343  0.3636  0.6608 -0.1424
  318MOL     C938683   4.752   0.398   7.302 -0.0839 -0.2423  0.7656
  318MOL    H1038684   4.608   0.235   7.308 -0.4189  1.9115  1.4877
  318MOL    H1138685   4.729   0.248   7.450  2.0763  2.6397 -0.3538
  318MOL    H1238686   4.859   0.416   7.309 -0.1380 -0.0855  1.1970
  318MOL    H1338687   4.743   0.406   7.194  1.4581  2.2693  0.7796
  318MOL    C1438688   4.674   0.517   7.365 -0.8399  0.4774  0.0966
  318MOL    C1538689   4.730   0.649   7.312 -0.6994 -0.4210 -0.4076
  318MOL    H1638690   4.568   0.507   7.342 -0.7672  2.0740 -0.9849
  318MOL    H1738691   4.684   0.498   7.472  0.0886  1.4879  0.2036
  318MOL    H1838692   4.829   0.668   7.353 -1.5327  3.8985 -0.1596
  318MOL    H1938693   4.745   0.653   7.204 -0.4470  1.9609 -0.3188
  318MOL    C2038694   4.647   0.780   7.353  0.4600  0.0723 -0.2208
  318MOL    C2138695   4.695   0.919   7.300 -0.2579  0.3449 -0.3319
  318MOL    H2238696   4.541   0.773   7.326  0.6473  0.1598 -0.9856
  318MOL    H2338697   4.647   0.780   7.462 -1.2097 -0.8056 -0.2026
  318MOL    H2438698   4.791   0.926   7.350  0.7404  0.2883 -2.1762
  318MOL    H2538699   4.712   0.919   7.192 -1.5618  0.1807 -0.5540
  318MOL    C2638700   4.603   1.035   7.336 -0.9376 -0.3048 -0.5883
  318MOL    C2738701   4.653   1.181   7.297  0.3161  0.0785  0.0196
  318MOL    H2838702   4.508   1.014   7.287 -0.6409  0.0673 -1.3265
  318MOL    H2938703   4.589   1.032   7.444  0.3910 -0.7129 -0.4224
  318MOL    H3038704   4.738   1.211   7.358  0.8394  0.4479 -0.8797
  318MOL    H3138705   4.682   1.173   7.192  0.2361  0.1286 -0.0067
  318MOL    C3238706   4.548   1.296   7.314  0.2788  0.2054 -0.2581
  318MOL    C3338707   4.617   1.433   7.296  0.1529  1.3303  0.3264
  318MOL    H3438708   4.466   1.277   7.245  0.3268  0.3192 -0.3471
  318MOL    H3538709   4.501   1.294   7.413 -0.0311  1.4800 -0.3645
  318MOL    H3638710   4.692   1.449   7.374  0.9776  2.3484 -0.6590
  318MOL    H3738711   4.652   1.436   7.193  0.8778 -1.6744  0.4419
  318MOL    C3838712   4.523   1.554   7.305  0.8952 -0.0935  0.0254
  318MOL    C3938713   4.596   1.688   7.268 -0.3215  0.4860  0.7871
  318MOL    H4038714   4.434   1.537   7.243  0.9148 -0.5015  0.1102
  318MOL    H4138715   4.490   1.567   7.408  0.9324  0.6170 -0.0480
  318MOL    H4238716   4.679   1.710   7.336  1.4764 -0.0443 -1.1988
  318MOL    H4338717   4.650   1.671   7.175  0.4808  1.1041  1.1316
  318MOL    C4438718   4.501   1.800   7.256  0.3788 -0.3956 -0.3757
  318MOL    C4538719   4.475   1.861   7.394 -0.5658 -0.1995  0.1877
  318MOL    H4638720   4.552   1.871   7.191 -0.3544 -0.0577 -0.5847
  318MOL    H4738721   4.408   1.776   7.206 -1.9765 -0.8166  3.9138
  318MOL    H4838722   4.393   1.807   7.442 -2.4984  2.5107  0.0417
  318MOL    H4938723   4.563   1.864   7.458 -0.1688  1.2450 -0.4101
  318MOL    C5038724   4.406   2.000   7.384  0.1445  0.4195  0.0931
  318MOL    C5138725   4.404   2.081   7.511 -0.1136  0.0803 -0.0159
  318MOL    H5238726   4.472   2.062   7.324  0.3063  1.2655  1.1303
  318MOL    H5338727   4.315   2.002   7.324  0.1839  0.9802  0.0490
  318MOL    H5438728   4.353   2.026   7.590  1.7841 -0.2038  1.0562
  318MOL    H5538729   4.508   2.086   7.544 -0.8925  2.4858  2.1946
  318MOL    C5638730   4.367   2.223   7.495  0.9274 -0.2525  0.0017
  318MOL    C5738731   4.429   2.309   7.603  0.3445 -0.2222  0.0059
  318MOL    H5838732   4.407   2.262   7.402 -0.5965  2.0396  0.2631
  318MOL    H5938733   4.260   2.234   7.479  1.2694  3.0585 -0.4284
  318MOL    H6038734   4.413   2.257   0.005  1.2901  1.1105  0.9168
  318MOL    H6138735   4.538   2.304   7.598  0.2401 -3.6032  0.0866
  318MOL    C6238736   4.385   2.454   7.599 -0.2414  0.0686  0.5067
  318MOL    C6338737   4.429   2.536   0.033 -0.2367  0.5586 -0.1039
  318MOL    H6438738   4.410   2.506   7.507  0.0766 -0.7633  0.1175
  318MOL    H6538739   4.278   2.471   7.603 -0.1976  0.9067 -1.2123
  318MOL    H6638740   4.375   2.506   0.123  2.3810  0.1178  1.3615
  318MOL    H6738741   4.533   2.526   0.063 -0.7505  1.3912  2.0653
  318MOL    C6838742   4.405   2.688   0.016  0.3274 -0.6185 -0.2506
  318MOL    C6938743   4.455   2.769   0.133 -0.2027 -0.9740 -0.4156
  318MOL    H7038744   4.452   2.723   7.616  1.2314  1.6897  1.0454
  318MOL    H7138745   4.299   2.708   0.000  0.2702  0.8127  1.8048
  318MOL    H7238746   4.393   2.746   0.220 -0.8715  1.3653 -0.2572
  318MOL    H7338747   4.559   2.744   0.151 -1.1270 -2.6220  3.0833
  318MOL    C7438748   4.455   2.920   0.115 -0.3787  0.4291  0.0751
  318MOL    C7538749   4.534   3.001   0.221  0.1412 -1.1595  0.5052
  318MOL    H7638750   4.488   2.941   0.013 -0.6936  0.1614 -0.0829
  318MOL    H7738751   4.351   2.951   0.125 -0.9777 -1.2280 -0.7904
  318MOL    H7838752   4.494   2.992   0.322 -0.5920  1.1577  0.4555
  318MOL    H7938753   4.636   2.964   0.223  0.1283 -1.1460  2.0960
  318MOL    C8038754   4.549   3.154   0.187  0.6350 -0.1278 -0.0831
  318MOL    C8138755   4.629   3.223   0.302 -0.3270  0.3791  0.0536
  318MOL    H8238756   4.593   3.150   0.087  1.2083  2.9734 -0.0074
  318MOL    H8338757   4.452   3.197   0.163  1.1377  1.0101 -0.1315
  318MOL    H8438758   4.569   3.235   0.392  0.4352 -0.2857  0.6697
  318MOL    H8538759   4.718   3.160   0.312 -0.6341 -0.1499 -0.5349
  318MOL    C8638760   4.682   3.358   0.256  0.1289 -0.2363 -0.2775
  318MOL    C8738761   4.573   3.465   0.237  0.2453 -0.3608 -0.4092
  318MOL    H8838762   4.755   3.400   0.326 -0.0610  0.4686 -0.4991
  318MOL    H8938763   4.741   3.336   0.167  1.5747  0.9411  0.3668
  318MOL    H9038764   4.632   3.542   0.186 -0.9866  0.4080 -0.7003
  318MOL    H9138765   4.477   3.436   0.195  1.1399 -2.2854 -1.2012
  318MOL    C9238766   4.514   3.527   0.367 -0.5129 -1.0216 -0.0454
  318MOL    C9338767   4.441   3.664   0.344  0.8657 -0.2033  0.2467
  318MOL    H9438768   4.458   3.454   0.426  1.2514 -0.1268  2.8423
  318MOL    H9538769   4.590   3.555   0.440 -1.2066  2.4662 -0.5661
  318MOL    H9638770   4.517   3.730   0.302  0.5444 -0.8229 -1.3423
  318MOL    H9738771   4.368   3.645   0.265  0.7374 -0.0366  0.3246
  318MOL    C9838772   4.390   3.720   0.476 -0.6938  0.1071 -0.1131
  318MOL    C9938773   4.262   3.659   0.525  0.2024  0.8181  0.4514
  318MOL   H10038774   4.467   3.717   0.554 -1.9514 -0.3929  1.1415
  318MOL   H10138775   4.376   3.823   0.445  0.9634  0.3693 -0.0295
  318MOL   H10238776   4.186   3.661   0.447  2.2104  1.1288 -1.5601
  318MOL   H10338777   4.283   3.559   0.562 -0.2257 -0.6144 -2.9869
  318MOL   C10438778   4.210   3.743   0.637  0.0029 -0.5764 -0.3739
  318MOL   C10538779   4.106   3.660   0.718  0.3194  0.4850  0.2302
  318MOL   H10638780   4.294   3.772   0.700  0.3189 -2.2340 -0.0145
  318MOL   H10738781   4.146   3.822   0.597 -0.8734 -0.5952  0.9467
  318MOL   H10838782   4.022   3.610   0.669  0.6960 -0.8818  0.9373
  318MOL   H10938783   4.168   3.584   0.766  1.3039  1.5103  0.5930
  318MOL   C11038784   4.045   3.752   0.837 -0.2760 -0.2443 -0.2581
  318MOL   C11138785   3.959   3.664   0.932  0.2245 -0.3929  0.3133
  318MOL   H11238786   4.126   3.815   0.872 -0.0965 -0.4680 -0.2689
  318MOL   H11338787   3.981   3.833   0.802 -0.2479 -1.1223 -2.4210
  318MOL   H11438788   3.881   3.614   0.875 -0.4751 -0.4555  1.3203
  318MOL   H11538789   4.031   3.589   0.965  1.4333  0.0858 -1.1370
  318MOL   C11638790   3.913   3.747   1.050 -0.2914 -0.3351  0.7923
  318MOL   C11738791   3.849   3.663   1.158  0.4945 -0.1158  0.1767
  318MOL   H11838792   3.997   3.804   1.091 -0.8575  1.0550  0.0291
  318MOL   H11938793   3.843   3.823   1.018  0.6754  0.6763  1.0561
  318MOL   H12038794   3.919   3.594   1.205  2.3037  1.5854  0.0406
  318MOL   H12138795   3.798   3.718   1.237  2.6606  0.4887  1.2008
  318MOL   H12238796   3.766   3.610   1.112 -1.0394  1.3824  1.1741
  319MOL     C138797   2.243   1.075   3.537 -0.2417 -0.1756  0.6057
  319MOL     C238798   2.210   1.054   3.389  0.5657 -0.1277  0.2511
  319MOL     H338799   2.295   1.168   3.560 -1.2454  0.1083  1.7898
  319MOL     H438800   2.309   0.993   3.563  1.1848  0.3166 -1.3574
  319MOL     H538801   2.295   1.075   3.324  0.6784  0.0530  0.4556
  319MOL     H638802   2.176   0.952   3.369  1.1830 -0.5658  1.3776
  319MOL     H738803   2.153   1.079   3.599 -0.0915 -0.5452  0.8501
  319MOL     C838804   2.091   1.143   3.351  0.5535 -0.3019 -0.6112
  319MOL     C938805   2.065   1.125   3.203 -0.5228  0.5201 -0.1133
  319MOL    H1038806   1.997   1.131   3.405 -0.0898  0.1564 -1.6107
  319MOL    H1138807   2.115   1.248   3.364 -3.5282  0.5817  0.6460
  319MOL    H1238808   2.047   1.024   3.167  1.2295  0.3542 -0.5847
  319MOL    H1338809   1.964   1.164   3.190 -0.8783  0.0361  1.1730
  319MOL    C1438810   2.148   1.206   3.099 -0.1413  0.0319  0.1288
  319MOL    C1538811   2.094   1.178   2.958  0.8380 -0.6237 -0.4786
  319MOL    H1638812   2.136   1.313   3.118 -0.0274 -0.3078  2.2046
  319MOL    H1738813   2.252   1.173   3.100 -0.2235 -0.2230  0.3746
  319MOL    H1838814   2.071   1.072   2.951  0.1978 -0.5863  0.9186
  319MOL    H1938815   2.002   1.234   2.944  0.7367 -0.0637  2.1558
  319MOL    C2038816   2.191   1.227   2.851 -0.4150  0.2896  0.4212
  319MOL    C2138817   2.147   1.220   2.705  0.0874  0.1286  0.1793
  319MOL    H2238818   2.228   1.324   2.882 -0.3957 -0.0373  1.4542
  319MOL    H2338819   2.271   1.155   2.871 -1.1470 -1.0020 -1.2135
  319MOL    H2438820   2.115   1.119   2.678 -1.0110 -0.3158  2.9417
  319MOL    H2538821   2.073   1.295   2.680 -0.4056  0.4383  2.4162
  319MOL    C2638822   2.268   1.252   2.619  0.8052 -0.1408 -0.0054
  319MOL    C2738823   2.248   1.272   2.471  0.4368 -0.4011  0.2171
  319MOL    H2838824   2.315   1.342   2.658  1.7384 -1.1405  1.2157
  319MOL    H2938825   2.341   1.175   2.645  2.8158  1.1867 -1.6104
  319MOL    H3038826   2.171   1.208   2.428 -0.6376  1.1582 -0.2132
  319MOL    H3138827   2.204   1.371   2.463  0.1506 -0.5742 -0.4191
  319MOL    C3238828   2.377   1.268   2.394  0.5479  0.3405 -0.3253
  319MOL    C3338829   2.365   1.264   2.243  0.6135  0.2107  0.1259
  319MOL    H3438830   2.440   1.354   2.416 -1.7718  2.0059 -0.0365
  319MOL    H3538831   2.437   1.183   2.429 -1.7351 -0.7723  1.0198
  319MOL    H3638832   2.334   1.174   2.190 -0.9620  1.0503 -0.3960
  319MOL    H3738833   2.299   1.342   2.206  0.0082  0.3653  1.5087
  319MOL    C3838834   2.501   1.305   2.186 -0.6107  0.2817 -0.1297
  319MOL    C3938835   2.486   1.303   2.035  0.3552 -0.3653 -0.4775
  319MOL    H4038836   2.545   1.398   2.223  0.5794 -0.4242  0.2341
  319MOL    H4138837   2.582   1.243   2.223  2.1155  3.1437 -1.0654
  319MOL    H4238838   2.452   1.203   2.006 -0.2658 -0.3801  0.2835
  319MOL    H4338839   2.404   1.370   2.010 -0.6093 -0.9660  1.0085
  319MOL    C4438840   2.612   1.349   1.963  0.2522  0.2588 -0.3685
  319MOL    C4538841   2.726   1.241   1.957  0.4933 -0.0252 -0.4198
  319MOL    H4638842   2.594   1.380   1.860  0.2524  3.2325  0.4679
  319MOL    H4738843   2.648   1.441   2.009 -2.2403 -0.7806  3.9371
  319MOL    H4838844   2.768   1.212   2.053  1.4129  0.7084 -0.5913
  319MOL    H4938845   2.677   1.149   1.922  0.9365 -0.1017 -0.8497
  319MOL    C5038846   2.849   1.275   1.871 -0.6422 -0.2258 -0.0910
  319MOL    C5138847   2.936   1.149   1.848  0.0398  1.1026 -0.1683
  319MOL    H5238848   2.832   1.320   1.773 -0.4676  0.3590  0.1437
  319MOL    H5338849   2.897   1.347   1.938 -0.6950  0.5224 -0.8430
  319MOL    H5438850   2.929   1.094   1.942 -0.3703  0.5033 -0.5454
  319MOL    H5538851   2.889   1.083   1.775  1.2459  0.5804 -0.4861
  319MOL    C5638852   3.084   1.183   1.826  0.7418  0.0249  0.7576
  319MOL    C5738853   3.168   1.059   1.844  0.1029  0.3850 -0.5961
  319MOL    H5838854   3.106   1.231   1.731 -2.5090 -1.0840 -0.6214
  319MOL    H5938855   3.115   1.266   1.888 -0.1067  1.7499 -1.0819
  319MOL    H6038856   3.145   1.003   1.935 -1.4162  0.2957 -1.0276
  319MOL    H6138857   3.137   0.994   1.763  1.8110 -0.4451 -0.6150
  319MOL    C6238858   3.321   1.082   1.832 -0.0936 -0.4273 -0.0883
  319MOL    C6338859   3.397   0.956   1.857 -0.0864  1.4657  0.0574
  319MOL    H6438860   3.351   1.104   1.730  2.0802 -1.1043  0.3700
  319MOL    H6538861   3.354   1.158   1.902  0.7267  0.0282 -0.9633
  319MOL    H6638862   3.370   0.912   1.953  0.5126  0.8016 -0.0754
  319MOL    H6738863   3.373   0.879   1.784 -1.4677  1.9205  0.0247
  319MOL    C6838864   3.544   0.975   1.869  0.1501  0.1295 -0.1263
  319MOL    C6938865   3.618   0.972   1.727 -0.2340 -0.2290  0.6057
  319MOL    H7038866   3.572   1.066   1.921  0.5767 -0.8708  1.4446
  319MOL    H7138867   3.585   0.897   1.934  1.1096  2.2278  1.8268
  319MOL    H7238868   3.578   0.882   1.680 -0.5831 -0.9181  2.1803
  319MOL    H7338869   3.587   1.055   1.663 -0.5806  0.2038  1.3361
  319MOL    C7438870   3.769   0.956   1.734  0.2326  0.0458 -0.2523
  319MOL    C7538871   3.850   0.961   1.599  0.4413 -0.3745 -0.2133
  319MOL    H7638872   3.824   1.019   1.805 -0.4042 -0.3569  0.6137
  319MOL    H7738873   3.798   0.856   1.765  1.2708  0.7720  1.2461
  319MOL    H7838874   3.813   0.882   1.533 -0.7119 -0.3418  0.3815
  319MOL    H7938875   3.831   1.056   1.549  0.9880  0.0633  0.3997
  319MOL    C8038876   3.996   0.936   1.624  0.9325 -0.0037 -0.3457
  319MOL    C8138877   4.021   0.799   1.682 -0.2303  0.0563 -0.4601
  319MOL    H8238878   4.050   0.957   1.531  1.1271  2.4571  0.2859
  319MOL    H8338879   4.047   1.004   1.693  2.1631  0.4243 -1.6496
  319MOL    H8438880   4.021   0.793   1.791 -0.2305 -0.1217 -0.4706
  319MOL    H8538881   3.941   0.733   1.646 -2.6644  1.4472  2.2248
  319MOL    C8638882   4.150   0.751   1.636 -1.0277  0.5418 -0.0317
  319MOL    C8738883   4.199   0.628   1.716  0.6208  0.4285 -0.0516
  319MOL    H8838884   4.141   0.721   1.532  0.3185 -1.9163  0.5202
  319MOL    H8938885   4.227   0.828   1.638 -1.4230  0.9274  0.7014
  319MOL    H9038886   4.125   0.548   1.722  0.4821  0.5018 -0.7711
  319MOL    H9138887   4.278   0.592   1.650  0.9156  1.4041 -0.2449
  319MOL    C9238888   4.258   0.651   1.858  0.3250 -0.1597 -0.7799
  319MOL    C9338889   4.377   0.562   1.895 -0.4689  0.1707 -0.7977
  319MOL    H9438890   4.293   0.754   1.855 -0.0653  0.0599  1.2841
  319MOL    H9538891   4.185   0.642   1.938  0.8786  1.6710 -0.0319
  319MOL    H9638892   4.383   0.549   2.004  0.5565  0.9301 -0.7513
  319MOL    H9738893   4.350   0.458   1.876  1.8016 -0.4639 -0.6738
  319MOL    C9838894   4.518   0.599   1.834  0.4144  0.8221  0.2684
  319MOL    C9938895   4.594   0.692   1.937 -0.0304  1.0644  0.2630
  319MOL   H10038896   4.572   0.506   1.814 -2.8778 -1.5337  1.9183
  319MOL   H10138897   4.514   0.656   1.741  1.9237 -0.7646 -0.8191
  319MOL   H10238898   4.532   0.779   1.962 -0.8375  1.2296 -2.2103
  319MOL   H10338899   4.605   0.632   2.027 -1.3486  2.9193  1.7138
  319MOL   C10438900   4.737   0.733   1.881  0.3062  0.4203  0.2269
  319MOL   C10538901   4.803   0.855   1.952  0.4528  0.1024  0.5436
  319MOL   H10638902   4.787   0.637   1.887 -0.2075  0.0754 -1.0290
  319MOL   H10738903   4.701   0.753   1.781  0.6622 -1.0518 -0.2049
  319MOL   H10838904   4.728   0.934   1.947 -0.2995 -0.6304 -0.0921
  319MOL   H10938905   4.818   0.829   2.057 -0.8235 -0.5037  0.5956
  319MOL   C11038906   4.939   0.908   1.887  0.4092  0.5231 -0.3671
  319MOL   C11138907   5.006   1.025   1.950  0.5053  0.4700  0.6379
  319MOL   H11238908   5.010   0.827   1.872  1.3889  1.4433 -0.7754
  319MOL   H11338909   4.913   0.935   1.785  1.4589  0.7148 -0.5930
  319MOL   H11438910   4.940   1.082   2.016 -0.3002 -1.1953  1.3252
  319MOL   H11538911   5.080   0.982   2.019  0.2822 -2.1293 -0.6541
  319MOL   C11638912   5.069   1.117   1.842  0.2549 -0.4053  0.5750
  319MOL   C11738913   5.184   1.062   1.757  0.9219  0.2877 -0.2404
  319MOL   H11838914   4.988   1.159   1.783 -0.3860 -2.6584 -0.1907
  319MOL   H11938915   5.105   1.200   1.903  0.3066 -0.8050  1.0901
  319MOL   H12038916   5.263   1.018   1.819 -1.5764 -1.2307  2.0048
  319MOL   H12138917   5.147   0.984   1.690 -0.0692  1.2378 -0.8175
  319MOL   H12238918   5.230   1.129   1.685  0.8831 -0.8231 -1.3069
  320MOL     C138919   7.073   7.602   4.632 -0.2405  0.0606 -0.2197
  320MOL     C238920   7.152   7.660   4.751 -0.4736  0.9159 -0.0047
  320MOL     H338921   7.088   7.494   4.644 -1.2110  0.1274  1.6749
  320MOL     H438922   7.118   7.620   4.534  1.0970  0.3421  0.4238
  320MOL     H538923   7.246   7.606   4.753 -1.1152 -0.3173 -1.5560
  320MOL     H638924   7.177   0.073   4.736 -1.4240  1.0563 -0.6402
  320MOL     H738925   6.972   7.642   4.639  0.6673  2.1360  1.6438
  320MOL     C838926   7.086   7.640   4.895 -0.2195  0.1103 -0.0571
  320MOL     C938927   7.176   0.007   5.002 -0.1215  0.2268  0.8093
  320MOL    H1038928   6.985   7.679   4.907 -0.1456 -0.2342  1.7718
  320MOL    H1138929   7.070   7.535   4.920 -1.6361 -0.2806 -2.4311
  320MOL    H1238930   7.265   7.640   5.027 -0.7771 -0.3400  1.8460
  320MOL    H1338931   7.223   0.103   4.984 -0.0811 -0.1644 -1.2724
  320MOL    C1438932   7.096   0.021   5.133  0.3946 -0.6427 -0.6827
  320MOL    C1538933   7.181   0.070   5.247  0.9179  0.3367  0.1551
  320MOL    H1638934   7.013   0.087   5.108 -1.0008 -1.8084  0.8129
  320MOL    H1738935   7.047   7.622   5.167 -0.2032  0.6889  2.1397
  320MOL    H1838936   7.256   7.685   5.263 -0.7305 -1.2520  0.2984
  320MOL    H1938937   7.239   0.160   5.227  1.0833 -0.0933 -1.3969
  320MOL    C2038938   7.105   0.093   5.375 -0.0618  0.2534  0.2948
  320MOL    C2138939   7.212   0.137   5.488  0.0118  0.5969  1.0151
  320MOL    H2238940   7.038   0.177   5.360  0.0710 -0.2094 -3.4677
  320MOL    H2338941   7.052   7.691   5.393  0.7118 -0.5400 -1.3482
  320MOL    H2438942   7.284   0.061   5.520  0.1138  0.0381 -0.5113
  320MOL    H2538943   7.261   0.222   5.442 -0.7944  0.7219  0.3760
  320MOL    C2638944   7.131   0.204   5.610  0.3355  0.2444  0.4293
  320MOL    C2738945   7.228   0.255   5.721  0.1007  0.6138 -0.2792
  320MOL    H2838946   7.078   0.291   5.573  1.3101  1.3807  1.6779
  320MOL    H2938947   7.058   0.138   5.657 -0.5084  1.1670  0.4095
  320MOL    H3038948   7.313   0.190   5.741  0.4405  1.1433 -0.0166
  320MOL    H3138949   7.273   0.346   5.682  2.0381 -0.3173 -0.2633
  320MOL    C3238950   7.159   0.287   5.851 -0.4864 -0.3637 -0.6071
  320MOL    C3338951   7.259   0.357   5.943 -0.6335 -0.1287 -0.2612
  320MOL    H3438952   7.063   0.336   5.835 -0.1006  0.7090  0.2907
  320MOL    H3538953   7.124   0.196   5.899 -1.2408  0.2002 -0.0657
  320MOL    H3638954   7.335   0.280   5.961 -0.6841 -0.1682 -0.2150
  320MOL    H3738955   7.302   0.447   5.899 -2.8101  0.9467 -0.2026
  320MOL    C3838956   7.187   0.406   6.067  0.6282 -0.2646  0.0346
  320MOL    C3938957   7.280   0.436   6.186  0.7136 -0.5874  0.0719
  320MOL    H4038958   7.139   0.499   6.038  3.5184  1.3695  0.2480
  320MOL    H4138959   7.119   0.329   6.102  0.2984  0.0883  0.1754
  320MOL    H4238960   7.353   0.356   6.200  1.6052 -0.0541 -1.3875
  320MOL    H4338961   7.332   0.530   6.166 -0.2037 -0.1108 -0.1155
  320MOL    C4438962   7.209   0.451   6.327 -0.0960 -0.2185 -0.5285
  320MOL    C4538963   7.316   0.486   6.430 -0.3264  0.2538 -0.9787
  320MOL    H4638964   7.136   0.532   6.323  0.6286  0.4564 -0.1030
  320MOL    H4738965   7.151   0.364   6.359 -0.9943  0.7912  0.6535
  320MOL    H4838966   7.387   0.406   6.448 -0.2766  0.8052  1.4592
  320MOL    H4938967   7.365   0.581   6.409  0.6168  0.2935  1.2300
  320MOL    C5038968   7.255   0.508   6.570  0.0673 -0.1288 -0.1066
  320MOL    C5138969   7.355   0.562   6.676 -1.1817  0.1418  0.3019
  320MOL    H5238970   7.165   0.570   6.567  1.0236  1.2731 -0.2279
  320MOL    H5338971   7.211   0.417   6.610  0.0524  0.6709  1.7502
  320MOL    H5438972   7.432   0.485   6.676 -0.7110  0.5976  1.3906
  320MOL    H5538973   7.407   0.650   6.639 -0.5702  0.1801  1.2381
  320MOL    C5638974   7.291   0.596   6.812  0.0717 -0.2681 -0.0107
  320MOL    C5738975   7.383   0.601   6.928  0.6021 -0.7210  0.0544
  320MOL    H5838976   7.244   0.694   6.802 -0.6627 -0.7148 -1.1425
  320MOL    H5938977   7.216   0.517   6.817  0.8937 -1.0713 -0.1892
  320MOL    H6038978   7.415   0.497   6.941 -0.1751 -1.0485 -0.5858
  320MOL    H6138979   7.459   0.673   6.897 -2.1052  2.5632  0.7359
  320MOL    C6238980   7.312   0.642   7.057 -0.1248  0.5593 -0.6213
  320MOL    C6338981   7.408   0.666   7.177  0.1485  0.0145  0.4594
  320MOL    H6438982   7.255   0.733   7.038  0.9359  2.4939  4.5361
  320MOL    H6538983   7.239   0.569   7.092 -0.0803  1.1787  0.8203
  320MOL    H6638984   7.465   0.578   7.206  0.9126  0.7263  1.1660
  320MOL    H6738985   7.490   0.732   7.147 -0.5040  0.1619 -1.0343
  320MOL    C6838986   7.325   0.725   7.288 -0.0738 -0.3957 -0.2290
  320MOL    C6938987   7.419   0.748   7.409 -0.7754 -0.8241  0.8966
  320MOL    H7038988   7.282   0.817   7.249  0.0421  0.5305  1.7731
  320MOL    H7138989   7.252   0.653   7.323  0.2202 -0.0827  1.0534
  320MOL    H7238990   7.481   0.663   7.437  0.5671  0.2621  1.3413
  320MOL    H7338991   7.492   0.813   7.361 -0.8959  0.0166  1.8238
  320MOL    C7438992   7.340   0.806   7.525 -0.4315 -0.4394  0.7531
  320MOL    C7538993   7.427   0.822   7.646 -0.2998  0.5890 -0.9856
  320MOL    H7638994   7.308   0.907   7.501  2.0181  0.5763  1.5875
  320MOL    H7738995   7.257   0.739   7.549 -2.4300  2.6531  2.8233
  320MOL    H7838996   7.454   0.724   7.687 -0.7351  1.0427  0.4151
  320MOL    H7938997   7.519   0.873   7.619 -0.1128  0.9401  0.2635
  320MOL    C8038998   7.354   0.910   0.064  0.7348 -0.3374 -0.0535
  320MOL    C8138999   7.233   0.825   0.118 -0.2088 -0.1050 -0.3135
  320MOL    H8239000   7.420   0.923   0.150  1.0565 -0.8244 -0.2250
  320MOL    H8339001   7.338   1.005   0.013  3.0752  0.6033  0.8867
  320MOL    H8439002   7.163   0.794   0.041  1.6226 -0.2958 -1.9361
  320MOL    H8539003   7.279   0.735   0.160  0.0567 -0.2739 -0.9633
  320MOL    C8639004   7.159   0.898   0.229 -0.2361 -0.0307  0.3059
  320MOL    C8739005   7.038   0.815   0.281 -0.8472  0.7398  0.8539
  320MOL    H8839006   7.221   0.918   0.316 -0.6772  1.5629  0.2678
  320MOL    H8939007   7.121   0.991   0.185  1.8333 -0.3931 -2.4046
  320MOL    H9039008   6.980   0.775   0.198  0.8472  1.1102 -0.5326
  320MOL    H9139009   7.078   0.730   0.337  1.0167  1.3526  0.4894
  320MOL    C9239010   6.949   0.895   0.387  0.1672 -0.6431  0.2841
  320MOL    C9339011   6.810   0.849   0.388  0.1989 -0.2646 -0.2867
  320MOL    H9439012   7.004   0.874   0.478  2.2654 -2.0034 -1.2356
  320MOL    H9539013   6.947   0.998   0.350 -0.1344 -0.7864 -0.0939
  320MOL    H9639014   6.801   0.741   0.397 -2.5464 -0.0304  0.1185
  320MOL    H9739015   6.767   0.889   0.481  0.3097  0.9905 -0.7590
  320MOL    C9839016   6.725   0.891   0.266 -0.0597  0.3244 -0.2832
  320MOL    C9939017   6.670   1.033   0.273  0.0864 -0.5003 -0.5257
  320MOL   H10039018   6.775   0.880   0.170  1.3545  0.9479  0.3794
  320MOL   H10139019   6.641   0.821   0.263  0.2085 -0.0574  0.8878
  320MOL   H10239020   6.594   1.045   0.350  0.4303 -2.0122  0.0675
  320MOL   H10339021   6.754   1.096   0.303  0.3660 -1.4187  0.6798
  320MOL   C10439022   6.619   1.079   0.136 -0.4042  0.2516 -0.4914
  320MOL   C10539023   6.555   1.216   0.128 -0.3043  0.6598 -0.2109
  320MOL   H10639024   6.694   1.062   0.060 -2.3138 -0.6710 -2.2272
  320MOL   H10739025   6.540   1.006   0.118 -0.3840 -0.1314  0.9039
  320MOL   H10839026   6.481   1.206   0.208  1.4019 -1.8859  1.1060
  320MOL   H10939027   6.622   1.295   0.160 -0.5837  0.9348 -0.2958
  320MOL   C11039028   6.493   1.256   7.688  0.3459  0.3947 -0.3025
  320MOL   C11139029   6.392   1.365   0.016  0.2968  0.5669  0.5337
  320MOL   H11239030   6.575   1.296   7.630  1.5494  1.7847  2.2514
  320MOL   H11339031   6.461   1.166   7.635  0.7734  0.9031 -1.4295
  320MOL   H11439032   6.320   1.360   0.098  1.4223 -2.7353  1.3989
  320MOL   H11539033   6.445   1.460   0.031  0.4444  0.2253  2.3589
  320MOL   C11639034   6.322   1.381   7.571 -0.2019  1.1511  0.2417
  320MOL   C11739035   6.240   1.509   7.568 -0.1173 -0.6245 -0.3373
  320MOL   H11839036   6.393   1.387   7.489 -0.6102  0.0235 -0.2201
  320MOL   H11939037   6.265   1.291   7.545  2.4358 -0.0835 -1.4373
  320MOL   H12039038   6.295   1.604   7.576 -0.4026 -0.6157  1.7790
  320MOL   H12139039   6.198   1.528   7.469  0.3948  1.9635 -0.1130
  320MOL   H12239040   6.160   1.504   7.641 -1.9200  3.1158 -1.9301
  321MOL     C139041   6.645   3.499   1.589  0.3486  0.3985 -0.4425
  321MOL     C239042   6.697   3.384   1.679  0.3137 -0.6172  0.1762
  321MOL     H339043   6.723   3.526   1.518  0.8762 -0.0396 -0.0375
  321MOL     H439044   6.615   3.587   1.646  2.8914 -0.9127  3.0882
  321MOL     H539045   6.733   3.313   1.604  1.7995 -0.2314  0.5135
  321MOL     H639046   6.768   3.430   1.747  0.5471  0.6220 -0.8758
  321MOL     H739047   6.562   3.469   1.525 -0.6185  0.3893  0.7984
  321MOL     C839048   6.579   3.334   1.759  0.0162 -0.5667 -0.7124
  321MOL     C939049   6.610   3.236   1.876  0.0654  0.0833 -0.4960
  321MOL    H1039050   6.530   3.418   1.807 -0.0707  0.1969 -2.1166
  321MOL    H1139051   6.516   3.293   1.680 -3.3018  2.4400  0.2569
  321MOL    H1239052   6.508   3.207   1.901  0.4441  0.3454  1.4273
  321MOL    H1339053   6.667   3.147   1.849  2.0196  0.9789  0.5853
  321MOL    C1439054   6.682   3.313   1.992 -0.1096 -0.3559 -0.0811
  321MOL    C1539055   6.705   3.241   2.128 -0.9046  0.0638 -0.0491
  321MOL    H1639056   6.762   3.378   1.957 -0.4744  1.5757  2.5418
  321MOL    H1739057   6.619   3.398   2.018 -0.4498 -0.7584  0.4423
  321MOL    H1839058   6.609   3.219   2.174 -0.3368 -1.7547  0.3139
  321MOL    H1939059   6.768   3.153   2.114 -1.0874  0.1330 -1.4573
  321MOL    C2039060   6.801   3.328   2.213 -0.2413  0.3512  0.2685
  321MOL    C2139061   6.815   3.280   2.352  0.6036 -0.0891  0.3521
  321MOL    H2239062   6.902   3.326   2.172  0.0348 -0.7698  0.9935
  321MOL    H2339063   6.773   3.433   2.199 -0.8677 -0.1732 -2.6121
  321MOL    H2439064   6.726   3.305   2.410  0.1191 -0.8127 -0.0735
  321MOL    H2539065   6.819   3.171   2.353  0.5868 -0.1675 -2.8267
  321MOL    C2639066   6.944   3.330   2.420 -0.1478 -0.2550 -0.4714
  321MOL    C2739067   6.952   3.485   2.422 -0.2193 -0.0126  0.3301
  321MOL    H2839068   6.951   3.283   2.518  0.5290  1.1148  0.1548
  321MOL    H2939069   7.031   3.296   2.365  1.5915  0.4414  1.7913
  321MOL    H3039070   7.044   3.517   2.472  0.6423 -0.3301 -1.0309
  321MOL    H3139071   6.966   3.522   2.321  0.9582 -0.7474  0.2136
  321MOL    C3239072   6.846   3.553   2.505  0.1645 -0.3682  0.3590
  321MOL    C3339073   6.849   3.707   2.491 -0.2726  0.3687 -0.7435
  321MOL    H3439074   6.745   3.529   2.474  0.5985 -2.5073  0.5281
  321MOL    H3539075   6.851   3.526   2.611  2.4700 -0.2603  0.3110
  321MOL    H3639076   6.949   3.749   2.497 -0.0121 -0.4420  1.1660
  321MOL    H3739077   6.814   3.730   2.391  0.2538  1.5074 -0.6807
  321MOL    C3839078   6.745   3.785   2.581 -0.3679 -0.1592 -0.0663
  321MOL    C3939079   6.723   3.927   2.518  0.8250  0.0922  0.2063
  321MOL    H4039080   6.648   3.737   2.573 -0.6782  0.1761  1.6960
  321MOL    H4139081   6.774   3.780   2.686 -1.0844  0.0462  0.1432
  321MOL    H4239082   6.813   3.987   2.505 -1.4521  3.3824 -0.9672
  321MOL    H4339083   6.671   3.908   2.424 -0.2077 -0.8632  0.9519
  321MOL    C4439084   6.632   4.003   2.614 -0.0549  0.5201  0.2614
  321MOL    C4539085   6.612   4.143   2.540  0.5871  0.0543  0.2242
  321MOL    H4639086   6.541   3.945   2.629  0.1914 -0.0083 -0.2698
  321MOL    H4739087   6.682   4.019   2.710  0.8200 -0.0850 -0.0938
  321MOL    H4839088   6.706   4.194   2.518  0.6086 -0.6198 -1.3167
  321MOL    H4939089   6.582   4.122   2.438 -0.2310  1.1990  0.2117
  321MOL    C5039090   6.516   4.235   2.613 -0.0323  0.1622 -0.7892
  321MOL    C5139091   6.519   4.380   2.565  0.7453 -0.5004  0.1773
  321MOL    H5239092   6.415   4.196   2.600 -0.0107 -0.2234  0.1339
  321MOL    H5339093   6.508   4.250   2.721 -0.9377  1.1838 -0.9847
  321MOL    H5439094   6.547   4.381   2.459  0.1056  0.0023  0.0145
  321MOL    H5539095   6.418   4.421   2.565 -0.1176 -2.4605 -2.8625
  321MOL    C5639096   6.626   4.475   2.635  0.0575 -0.3652 -0.3048
  321MOL    C5739097   6.594   4.622   2.603 -0.0852  0.2724 -0.7067
  321MOL    H5839098   6.636   4.458   2.742  1.0337 -0.1566 -0.3656
  321MOL    H5939099   6.725   4.454   2.595  0.4805  0.4232  0.3150
  321MOL    H6039100   6.623   4.641   2.500  1.6116  0.0208 -0.2895
  321MOL    H6139101   6.486   4.633   2.603 -0.1899 -0.6083  1.4359
  321MOL    C6239102   6.653   4.719   2.702  0.0620  0.0181 -0.2098
  321MOL    C6339103   6.645   4.861   2.656  0.0804 -0.0349 -0.2969
  321MOL    H6439104   6.598   4.709   2.795 -0.7758  0.5592 -0.6416
  321MOL    H6539105   6.757   4.696   2.727 -0.0358  0.0930  0.2717
  321MOL    H6639106   6.714   4.866   2.571  1.2940 -1.4240  0.5741
  321MOL    H6739107   6.547   4.890   2.619  0.1870 -0.3635 -0.8502
  321MOL    C6839108   6.695   4.971   2.753  0.1434  0.7330 -0.1559
  321MOL    C6939109   6.743   5.101   2.690 -0.1751  0.1922 -0.0795
  321MOL    H7039110   6.628   4.976   2.839  2.0149 -0.9241  1.4690
  321MOL    H7139111   6.783   4.931   2.803  0.0417 -0.0018 -0.5730
  321MOL    H7239112   6.828   5.083   2.624  1.0054  0.0888  1.4538
  321MOL    H7339113   6.667   5.132   2.618  0.3650  1.0760 -0.2755
  321MOL    C7439114   6.779   5.204   2.796  0.2316  0.3496  0.5363
  321MOL    C7539115   6.798   5.349   2.743 -0.4926 -0.0632 -0.4683
  321MOL    H7639116   6.699   5.201   2.870 -0.2021 -3.5949 -0.0349
  321MOL    H7739117   6.865   5.169   2.854  0.8649 -0.8024 -1.0661
  321MOL    H7839118   6.877   5.333   2.669  0.1280 -0.0773  0.1922
  321MOL    H7939119   6.720   5.394   2.682  2.2048  2.5136 -2.1250
  321MOL    C8039120   6.839   5.460   2.839 -0.1514  0.2467 -0.3543
  321MOL    C8139121   6.878   5.593   2.775  0.2739 -0.0980 -0.1820
  321MOL    H8239122   6.757   5.477   2.909  0.1299  1.2787 -0.2631
  321MOL    H8339123   6.924   5.418   2.892 -1.5484 -1.2241  0.7498
  321MOL    H8439124   6.956   5.573   2.701 -0.8954 -0.5021 -1.3303
  321MOL    H8539125   6.795   5.632   2.717  0.6889 -0.0828 -0.7755
  321MOL    C8639126   6.920   5.696   2.878 -0.4155  0.1452  0.1659
  321MOL    C8739127   6.980   5.818   2.806  1.0641 -0.4423  0.1481
  321MOL    H8839128   6.845   5.735   2.946 -0.3446  0.1655  0.2322
  321MOL    H8939129   6.996   5.653   2.944 -1.0807  0.2282  1.0005
  321MOL    H9039130   7.070   5.788   2.754 -1.2719 -4.2053 -1.9208
  321MOL    H9139131   6.915   5.855   2.727  0.9793  1.0376  0.8816
  321MOL    C9239132   7.012   5.925   2.910  0.1794 -1.4747 -0.8717
  321MOL    C9339133   7.094   6.050   2.860 -0.5859 -0.0416 -0.1338
  321MOL    H9439134   6.916   5.958   2.951  1.1249  0.5641 -0.1820
  321MOL    H9539135   7.061   5.887   3.000  2.0647 -0.7508 -1.5522
  321MOL    H9639136   7.198   6.019   2.845 -0.8403  0.2375 -2.7398
  321MOL    H9739137   7.066   6.065   2.755  0.4146 -2.1574 -0.7323
  321MOL    C9839138   7.087   6.178   2.941  0.2942 -0.9063 -0.4393
  321MOL    C9939139   7.180   6.283   2.880 -0.2754 -0.5209  0.0551
  321MOL   H10039140   6.989   6.220   2.966  0.8416  0.4677 -0.6061
  321MOL   H10139141   7.129   6.153   3.039  0.4636  1.1595  0.0400
  321MOL   H10239142   7.279   6.254   2.847  0.2520  0.5788  0.6382
  321MOL   H10339143   7.126   6.321   2.793  1.2403 -0.6814 -0.9705
  321MOL   C10439144   7.201   6.394   2.994  0.1423  0.9191 -0.2359
  321MOL   C10539145   7.274   6.519   2.946 -0.3766 -0.0523  0.3415
  321MOL   H10639146   7.101   6.411   3.032 -0.1888  1.3168 -1.2604
  321MOL   H10739147   7.263   6.353   3.074 -1.1773  0.8603  0.7769
  321MOL   H10839148   7.371   6.481   2.914  0.2861  1.9420 -0.0644
  321MOL   H10939149   7.235   6.565   2.855 -1.0280  2.3579  1.8056
  321MOL   C11039150   7.312   6.613   3.057  0.0971 -0.6198  0.2802
  321MOL   C11139151   7.208   6.663   3.158  0.8226  0.5999 -0.5319
  321MOL   H11239152   7.385   6.556   3.115  1.2643  1.6935  1.1563
  321MOL   H11339153   7.374   6.689   3.010  0.0216 -1.1407 -0.6687
  321MOL   H11439154   7.143   6.734   3.106 -1.8438  0.3149  2.2956
  321MOL   H11539155   7.136   6.587   3.186 -0.3903  2.4821  1.6229
  321MOL   C11639156   7.265   6.728   3.283 -0.4494  0.0978  0.1499
  321MOL   C11739157   7.156   6.782   3.377 -0.4389 -0.3563  0.3470
  321MOL   H11839158   7.328   6.656   3.335  0.3481 -0.4762 -1.5662
  321MOL   H11939159   7.328   6.811   3.250 -1.5807  0.9048 -0.0066
  321MOL   H12039160   7.086   6.859   3.345  0.7404  1.5237  2.1759
  321MOL   H12139161   7.095   6.698   3.409 -1.2608  0.2689  0.4400
  321MOL   H12239162   7.207   6.821   3.464  0.6378 -1.8975  0.4252
  322MOL     C139163   3.265   5.061   5.116  0.5262  0.5745  0.1125
  322MOL     C239164   3.187   4.997   5.236  0.2099  0.3309  0.1020
  322MOL     H339165   3.317   4.978   5.068  3.2284  2.7137 -0.7427
  322MOL     H439166   3.330   5.138   5.156  0.0499  0.8537  0.3534
  322MOL     H539167   3.116   5.069   5.278  0.3965 -0.3265  1.5696
  322MOL     H639168   3.129   4.911   5.202  0.1337  0.0237  0.9901
  322MOL     H739169   3.193   5.105   5.046 -1.9229 -1.7475  1.0430
  322MOL     C839170   3.288   4.975   5.360 -0.3528 -0.5425  0.5389
  322MOL     C939171   3.423   4.916   5.311 -0.7651  0.6003 -0.3233
  322MOL    H1039172   3.305   5.067   5.417  1.8416 -0.4263 -0.2498
  322MOL    H1139173   3.247   4.914   5.440  0.6302  1.6913  2.8379
  322MOL    H1239174   3.420   4.845   5.229  0.5357  0.5947 -0.3760
  322MOL    H1339175   3.486   5.001   5.283 -1.1220 -0.0713 -3.2650
  322MOL    C1439176   3.502   4.849   5.433 -0.0865  0.8339  0.1672
  322MOL    C1539177   3.646   4.832   5.384 -0.5182  0.0914 -0.7221
  322MOL    H1639178   3.498   4.909   5.524 -1.0241  0.8275  0.1272
  322MOL    H1739179   3.467   4.748   5.453 -2.3091  1.4958 -0.2943
  322MOL    H1839180   3.639   4.791   5.283  1.0967  3.8082 -2.4590
  322MOL    H1939181   3.694   4.930   5.379  0.6851 -0.5396 -1.9154
  322MOL    C2039182   3.745   4.746   5.469  0.1601  0.1192 -0.3642
  322MOL    C2139183   3.889   4.751   5.405  0.4073 -0.4362  0.3868
  322MOL    H2239184   3.737   4.781   5.572 -0.5486 -0.7097 -0.1383
  322MOL    H2339185   3.725   4.640   5.483 -1.8264  0.4847 -0.2741
  322MOL    H2439186   3.920   4.851   5.374 -0.3639  0.0624  1.1713
  322MOL    H2539187   3.967   4.714   5.472  0.0303 -2.4510 -0.2566
  322MOL    C2639188   3.911   4.655   5.281 -0.1195 -0.1132  0.2566
  322MOL    C2739189   4.056   4.672   5.221  0.2117  0.2631 -1.3252
  322MOL    H2839190   3.877   4.553   5.299  2.1650 -0.9628 -0.0364
  322MOL    H2939191   3.843   4.689   5.202  2.2820  1.3109 -1.2625
  322MOL    H3039192   4.115   4.668   5.312  0.6793  2.9665 -1.4664
  322MOL    H3139193   4.082   4.585   5.159 -1.9044 -1.4432  0.0905
  322MOL    C3239194   4.088   4.792   5.135  0.1886  0.1621 -0.6337
  322MOL    C3339195   4.233   4.784   5.079  0.2830  0.1825 -0.0374
  322MOL    H3439196   4.030   4.793   5.043 -0.3025 -0.0590 -0.3337
  322MOL    H3539197   4.070   4.881   5.197 -2.1323 -0.2243 -0.7021
  322MOL    H3639198   4.311   4.794   5.155  0.0968 -0.4142  0.2381
  322MOL    H3739199   4.235   4.684   5.035 -0.5491 -0.9920  2.4704
  322MOL    C3839200   4.259   4.880   4.962 -0.6229 -0.1915  0.0434
  322MOL    C3939201   4.252   5.029   5.000 -0.5149 -0.1714  0.0519
  322MOL    H4039202   4.349   4.858   4.904  1.0551  3.0878  1.3349
  322MOL    H4139203   4.173   4.868   4.896 -1.4113  2.1948  0.6184
  322MOL    H4239204   4.280   5.079   4.907  1.7541 -0.5852  0.4975
  322MOL    H4339205   4.147   5.058   5.012  0.1127  1.8551  0.8658
  322MOL    C4439206   4.329   5.065   5.125  0.4894  0.3530  0.0395
  322MOL    C4539207   4.317   5.212   5.157  0.3942 -0.5268 -0.0890
  322MOL    H4639208   4.296   5.000   5.206 -3.8071  1.6903 -0.4990
  322MOL    H4739209   4.431   5.028   5.114  1.2187  1.5461  2.6571
  322MOL    H4839210   4.362   5.267   5.075  0.0529 -1.9087 -1.2217
  322MOL    H4939211   4.215   5.248   5.154  0.0891 -0.9095  3.2624
  322MOL    C5039212   4.393   5.257   5.286 -0.1536 -0.2537 -0.3280
  322MOL    C5139213   4.377   5.399   5.329 -0.5376 -0.6055 -0.7489
  322MOL    H5239214   4.351   5.188   5.360 -3.2065  0.7423 -1.0580
  322MOL    H5339215   4.497   5.235   5.262 -0.1232 -0.3873 -0.0753
  322MOL    H5439216   4.431   5.471   5.267  0.3709  0.1065  0.8459
  322MOL    H5539217   4.276   5.440   5.324  0.0910  1.2513  0.9257
  322MOL    C5639218   4.424   5.412   5.478 -0.0737  0.2187 -0.3537
  322MOL    C5739219   4.431   5.562   5.515  0.5286 -0.0826  0.2262
  322MOL    H5839220   4.356   5.362   5.546  0.5264 -1.1922 -0.7701
  322MOL    H5939221   4.524   5.369   5.491 -0.0145 -0.5200 -3.0237
  322MOL    H6039222   4.487   5.611   5.435 -0.0679 -1.8307 -1.2932
  322MOL    H6139223   4.329   5.600   5.506  0.6545  0.9021  2.6913
  322MOL    C6239224   4.474   5.587   5.659 -0.2407  0.2468 -0.4956
  322MOL    C6339225   4.490   5.738   5.687 -0.3246 -0.3215 -0.4079
  322MOL    H6439226   4.408   5.531   5.725  1.5837 -1.3321  0.0354
  322MOL    H6539227   4.576   5.550   5.669  0.9949  2.9149 -2.5485
  322MOL    H6639228   4.555   5.777   5.609 -1.3379 -0.4372 -1.3175
  322MOL    H6739229   4.393   5.787   5.692 -0.3838 -0.6280  1.7649
  322MOL    C6839230   4.561   5.763   5.821  0.1758  0.2358  0.1920
  322MOL    C6939231   4.560   5.911   5.843 -1.0540 -0.3281  0.7025
  322MOL    H7039232   4.535   5.704   5.909  1.1914 -3.2806 -1.7869
  322MOL    H7139233   4.664   5.731   5.809  0.2620  1.1024 -1.5495
  322MOL    H7239234   4.616   5.963   5.765  0.3372  0.1795  2.0095
  322MOL    H7339235   4.459   5.951   5.843 -0.3110  1.6368 -0.3413
  322MOL    C7439236   4.623   5.943   5.979  0.1036  0.4017 -0.4757
  322MOL    C7539237   4.632   6.090   5.996 -0.3057  0.7846  0.2624
  322MOL    H7639238   4.567   5.911   6.066  0.6074  1.2736  0.1834
  322MOL    H7739239   4.724   5.901   5.984 -0.0884 -0.0308 -0.2429
  322MOL    H7839240   4.690   6.143   5.920  1.9193  0.0560  1.4223
  322MOL    H7939241   4.535   6.139   5.985  0.3271  2.2315  1.0577
  322MOL    C8039242   4.690   6.122   6.138 -0.1246 -0.9251 -0.1415
  322MOL    C8139243   4.706   6.273   6.179 -0.7676  0.0373  0.1468
  322MOL    H8239244   4.618   6.074   6.205  0.1959 -1.5507 -0.2470
  322MOL    H8339245   4.781   6.063   6.150 -0.8989 -1.8978  1.1172
  322MOL    H8439246   4.778   6.314   6.108 -0.1930 -0.1313  0.6196
  322MOL    H8539247   4.612   6.324   6.160 -0.6675  0.8719  1.7683
  322MOL    C8639248   4.756   6.298   6.324 -0.1232  0.1288 -0.5965
  322MOL    C8739249   4.784   6.448   6.340 -0.8609  0.8096  0.0903
  322MOL    H8839250   4.678   6.263   6.393 -1.8286 -1.7094 -3.3477
  322MOL    H8939251   4.837   6.229   6.347 -0.4743 -0.3104 -0.6537
  322MOL    H9039252   4.844   6.488   6.258  3.0069 -1.1100  1.8168
  322MOL    H9139253   4.698   6.514   6.338 -1.7889 -0.3463  1.1550
  322MOL    C9239254   4.875   6.475   6.464  0.1374  0.5082 -0.3195
  322MOL    C9339255   4.924   6.625   6.476  0.8369  0.5365  0.2272
  322MOL    H9439256   4.816   6.445   6.551  0.4977  0.1491 -0.1960
  322MOL    H9539257   4.961   6.408   6.463 -0.2347  0.0154  0.4625
  322MOL    H9639258   4.977   6.655   6.385  1.7314 -2.8088 -0.4383
  322MOL    H9739259   4.839   6.692   6.486  1.6138  1.6666 -0.5642
  322MOL    C9839260   5.006   6.658   6.598  0.2459  0.5318  0.1003
  322MOL    C9939261   5.059   6.798   6.591  0.1758  0.4505  0.3203
  322MOL   H10039262   4.935   6.643   6.679  3.0655 -1.2564  2.3231
  322MOL   H10139263   5.084   6.584   6.615  0.2129  0.0132 -1.8122
  322MOL   H10239264   5.131   6.809   6.510  0.6625  2.9317  1.0271
  322MOL   H10339265   4.989   6.872   6.554 -0.2511 -0.1136 -0.0076
  322MOL   C10439266   5.114   6.840   6.733  0.7411  0.7445 -0.2433
  322MOL   C10539267   5.161   6.989   6.756  0.5867  0.5253  0.4650
  322MOL   H10639268   5.040   6.815   6.808 -1.9556  1.7584 -2.4677
  322MOL   H10739269   5.193   6.765   6.741  0.3569  0.0570 -2.4289
  322MOL   H10839270   5.211   7.025   6.665 -1.1045  1.9259  0.0448
  322MOL   H10939271   5.073   7.051   6.770  0.4078  0.4982 -0.4676
  322MOL   C11039272   5.262   7.005   6.875  0.0024 -0.4364  0.0751
  322MOL   C11139273   5.319   7.150   6.883 -0.0261  0.8455 -0.2562
  322MOL   H11239274   5.222   6.977   6.973  0.3746  0.1124  0.3830
  322MOL   H11339275   5.348   6.942   6.853 -2.1751 -3.2145 -0.7767
  322MOL   H11439276   5.419   7.141   6.924 -0.8769 -1.3240  1.4114
  322MOL   H11539277   5.324   7.193   6.783  2.3424  2.1045  0.3648
  322MOL   C11639278   5.226   7.236   6.973  0.0546  0.4856  0.0208
  322MOL   C11739279   5.265   7.378   7.009 -0.8472  0.0539 -0.1184
  322MOL   H11839280   5.127   7.233   6.926 -1.7889  2.0878  3.6087
  322MOL   H11939281   5.221   7.190   7.072  0.7570 -0.4383 -0.3561
  322MOL   H12039282   5.245   7.452   6.932  1.9939  0.7193 -0.2742
  322MOL   H12139283   5.218   7.414   7.101  1.5555  0.7378  0.8982
  322MOL   H12239284   5.374   7.377   7.022 -0.8639  0.4759  0.0596
  323MOL     C139285   3.046   5.366   6.211 -0.1245  0.0729  0.2041
  323MOL     C239286   3.037   5.270   6.331 -0.5018 -0.4364  0.3628
  323MOL     H339287   3.015   5.464   6.246 -2.4167 -1.0568  1.4702
  323MOL     H439288   2.980   5.350   6.126 -0.2188  1.4515  0.0133
  323MOL     H539289   3.028   5.169   6.289 -1.3460 -0.8407  1.4915
  323MOL     H639290   3.127   5.270   6.392 -0.2981 -0.1749  0.0600
  323MOL     H739291   3.146   5.377   6.169  0.4186 -0.0123  1.4395
  323MOL     C839292   2.915   5.293   6.418  0.1095 -0.5756  0.4296
  323MOL     C939293   2.876   5.176   6.511  0.0262  0.3026  0.4338
  323MOL    H1039294   2.929   5.384   6.476  0.1337 -0.5480  0.3803
  323MOL    H1139295   2.834   5.300   6.346 -0.1221 -1.0942  0.6403
  323MOL    H1239296   2.860   5.083   6.456  0.0323  1.2209 -1.1492
  323MOL    H1339297   2.959   5.147   6.574 -0.7007 -0.0948  1.2219
  323MOL    C1439298   2.760   5.218   6.600 -0.0074  0.6793 -0.6036
  323MOL    C1539299   2.733   5.113   6.715 -0.4029  0.2836 -1.3053
  323MOL    H1639300   2.778   5.314   6.649  0.5424  0.1802  0.1644
  323MOL    H1739301   2.664   5.229   6.549 -1.1275  0.6432  1.4418
  323MOL    H1839302   2.718   5.014   6.672  0.7409 -0.4275 -0.1095
  323MOL    H1939303   2.809   5.105   6.793 -1.4319  3.5951  0.1579
  323MOL    C2039304   2.603   5.154   6.796 -0.1198  0.5321 -0.4059
  323MOL    C2139305   2.579   5.077   6.926 -0.0201 -0.0924  0.6454
  323MOL    H2239306   2.630   5.256   6.824  2.9958 -0.1046 -0.9190
  323MOL    H2339307   2.516   5.167   6.731  0.2915 -0.8314 -1.2442
  323MOL    H2439308   2.573   4.968   6.914 -0.9813  0.0215  0.0658
  323MOL    H2539309   2.653   5.111   6.998 -2.8457  2.9275  2.2046
  323MOL    C2639310   2.442   5.114   6.982 -0.6154  0.1618 -0.6398
  323MOL    C2739311   2.427   5.052   7.119 -0.1677 -0.3546 -0.1557
  323MOL    H2839312   2.430   5.221   6.995  3.5301  0.3357  2.4693
  323MOL    H2939313   2.360   5.079   6.919 -0.0158 -2.4141 -0.0507
  323MOL    H3039314   2.519   5.059   7.177 -0.4537  1.0451  0.1494
  323MOL    H3139315   2.351   5.109   7.172 -0.3221 -1.0339  0.3684
  323MOL    C3239316   2.359   4.912   7.121 -0.7027 -0.1134  0.3609
  323MOL    C3339317   2.340   4.878   7.269 -0.5105  0.6526 -0.1288
  323MOL    H3439318   2.263   4.910   7.070 -1.3126 -1.7463  1.5232
  323MOL    H3539319   2.423   4.845   7.063 -1.1259  0.5975 -0.9380
  323MOL    H3639320   2.436   4.902   7.313 -0.3741 -0.1395  0.0173
  323MOL    H3739321   2.253   4.934   7.304 -0.6452  0.7564 -0.6152
  323MOL    C3839322   2.302   4.728   7.300  0.4294  0.1683 -0.5545
  323MOL    C3939323   2.300   4.701   7.455  0.1106  0.6922  0.8112
  323MOL    H4039324   2.200   4.700   7.273  0.3110 -1.8190  1.7630
  323MOL    H4139325   2.377   4.664   7.253  1.1437  0.4559  0.1787
  323MOL    H4239326   2.387   4.752   7.495  1.3031 -0.3611 -0.3871
  323MOL    H4339327   2.213   4.750   7.498 -0.3501  1.1860 -0.6580
  323MOL    C4439328   2.297   4.551   7.486 -1.0242  0.5031  0.3237
  323MOL    C4539329   2.170   4.475   7.453 -0.3304 -0.2365  0.7219
  323MOL    H4639330   2.375   4.495   7.433 -1.7062 -0.1137 -0.0378
  323MOL    H4739331   2.335   4.537   7.588 -2.5019 -0.0087  0.8179
  323MOL    H4839332   2.088   4.528   7.502 -0.7614  0.8181 -1.0999
  323MOL    H4939333   2.167   4.479   7.345  1.8005 -1.5533  0.5878
  323MOL    C5039334   2.170   4.332   7.499  0.0474  0.1691 -1.6797
  323MOL    C5139335   2.026   4.270   7.487 -0.2662 -0.6407 -0.1402
  323MOL    H5239336   2.241   4.268   7.447  0.1720 -0.4080 -0.8145
  323MOL    H5339337   2.192   4.329   7.606 -2.1156  2.1841 -1.1276
  323MOL    H5439338   1.956   4.322   7.554  0.6469 -0.1520  0.4517
  323MOL    H5539339   1.999   4.278   7.382 -0.2996  0.7452 -0.0370
  323MOL    C5639340   2.025   4.122   7.519 -1.1045 -0.0406 -0.2681
  323MOL    C5739341   2.036   4.085   7.665  0.2393  0.3334  0.0532
  323MOL    H5839342   1.930   4.075   7.491 -1.6778  0.4583  0.8293
  323MOL    H5939343   2.102   4.074   7.458 -0.2229 -0.4115  1.1248
  323MOL    H6039344   2.118   4.143   0.017 -0.0373  0.6780  0.1206
  323MOL    H6139345   1.947   4.115   0.029 -0.8290 -0.8591 -0.9685
  323MOL    C6239346   2.050   3.939   7.683  0.2993  0.1221 -0.1036
  323MOL    C6339347   2.070   3.903   0.139  0.5886  0.5644 -0.4064
  323MOL    H6439348   1.967   3.884   7.638 -1.3024  0.6075  2.1546
  323MOL    H6539349   2.140   3.895   7.641  0.6291 -1.0023  1.7400
  323MOL    H6639350   2.161   3.953   0.174 -1.3792  1.4209  3.8635
  323MOL    H6739351   1.991   3.947   0.199  1.4537  0.2253  1.0222
  323MOL    C6839352   2.092   3.749   0.162 -0.0590 -0.2428  0.0654
  323MOL    C6939353   2.099   3.718   0.316  0.4064 -0.4750 -0.3410
  323MOL    H7039354   2.005   3.707   0.112 -1.9266  1.9632  1.4182
  323MOL    H7139355   2.174   3.704   0.107  0.1643  0.5978 -0.2972
  323MOL    H7239356   2.192   3.767   0.346  1.5143  0.1705 -4.5107
  323MOL    H7339357   2.011   3.764   0.362 -0.1344 -3.6815  2.0350
  323MOL    C7439358   2.099   3.563   0.343  0.0154  0.6009 -0.5801
  323MOL    C7539359   2.125   3.542   0.488  0.0840  0.0747  0.3285
  323MOL    H7639360   2.001   3.524   0.316 -0.3976  2.3693 -1.6929
  323MOL    H7739361   2.170   3.510   0.278 -0.5239  0.3788 -0.9986
  323MOL    H7839362   2.219   3.594   0.512 -0.6960  0.8678  1.7172
  323MOL    H7939363   2.054   3.597   0.550  3.2238  3.7110  0.8996
  323MOL    C8039364   2.137   3.399   0.530  0.9457  0.0938  0.8771
  323MOL    C8139365   2.210   3.384   0.667 -0.2736  0.1029 -0.0138
  323MOL    H8239366   2.046   3.339   0.520  1.0630  0.2120 -1.0088
  323MOL    H8339367   2.195   3.345   0.456  0.5068 -0.5343  0.9935
  323MOL    H8439368   2.163   3.449   0.741  0.8912  1.6382 -0.5682
  323MOL    H8539369   2.187   3.279   0.686  0.4329  0.3611  2.5084
  323MOL    C8639370   2.367   3.414   0.661  0.1002  0.0618  0.0849
  323MOL    C8739371   2.420   3.450   0.800 -0.2854 -0.1930 -0.2722
  323MOL    H8839372   2.412   3.324   0.621  0.2186  0.3565 -0.4400
  323MOL    H8939373   2.388   3.495   0.591 -1.7417  2.3455  2.0318
  323MOL    H9039374   2.386   3.548   0.831 -0.4476  0.3452 -2.0852
  323MOL    H9139375   2.391   3.374   0.872 -1.8595  1.7894  1.2259
  323MOL    C9239376   2.571   3.457   0.810 -0.9734 -0.3346  0.3666
  323MOL    C9339377   2.619   3.520   0.939  0.6019 -0.3777 -0.5750
  323MOL    H9439378   2.626   3.363   0.810  0.6154  0.5353  2.4352
  323MOL    H9539379   2.614   3.508   0.724 -2.3461 -0.7239 -0.5634
  323MOL    H9639380   2.589   3.624   0.942 -2.0196 -1.1216  0.4225
  323MOL    H9739381   2.582   3.474   1.031  2.9213  1.4494  1.3072
  323MOL    C9839382   2.771   3.532   0.947  0.1859 -0.8001 -0.9545
  323MOL    C9939383   2.836   3.599   1.072 -0.6376 -0.6930 -0.4445
  323MOL   H10039384   2.818   3.433   0.949  1.0297 -0.3794  1.8971
  323MOL   H10139385   2.814   3.592   0.866 -0.1531  2.0752  0.9410
  323MOL   H10239386   2.795   3.699   1.066  0.4764 -0.1022  1.5758
  323MOL   H10339387   2.797   3.570   1.169 -1.1240 -1.0142 -0.7302
  323MOL   C10439388   2.991   3.607   1.044 -0.3435  0.0625  0.1018
  323MOL   C10539389   3.069   3.673   1.157 -0.0965 -0.5078  0.0680
  323MOL   H10639390   3.037   3.509   1.029 -1.2726 -0.3011 -0.4099
  323MOL   H10739391   3.005   3.663   0.951  0.7704 -1.3054 -0.5876
  323MOL   H10839392   3.034   3.775   1.141 -0.0573 -0.3790  0.7965
  323MOL   H10939393   3.029   3.635   1.251  0.9687  0.2461  0.8438
  323MOL   C11039394   3.219   3.667   1.143 -0.2482 -0.0408  0.3947
  323MOL   C11139395   3.298   3.731   1.259 -0.2031 -0.0913 -0.6780
  323MOL   H11239396   3.264   3.568   1.133 -1.5606 -0.5715 -0.4091
  323MOL   H11339397   3.245   3.724   1.054  0.5319 -0.5031  0.3253
  323MOL   H11439398   3.277   3.837   1.272  1.0487  0.3461 -2.0255
  323MOL   H11539399   3.278   3.687   1.357  2.1700 -0.9841 -0.5523
  323MOL   C11639400   3.458   3.729   1.247  0.4708  0.4753  0.1461
  323MOL   C11739401   3.530   3.786   1.370  0.6341 -0.0880 -0.3977
  323MOL   H11839402   3.504   3.636   1.214  0.0690  0.4785 -0.4220
  323MOL   H11939403   3.494   3.794   1.167  0.3849  0.2350 -0.0871
  323MOL   H12039404   3.638   3.779   1.359  1.0600  0.6907  2.6858
  323MOL   H12139405   3.492   3.882   1.407  1.9188  0.0888  0.5003
  323MOL   H12239406   3.518   3.716   1.453  0.6350  1.2700  0.7768
  324MOL     C139407   5.127   6.444   2.351  0.2627 -0.0231  0.1277
  324MOL     C239408   5.249   6.356   2.364 -0.6250 -0.1655  0.2140
  324MOL     H339409   5.167   6.544   2.339  0.9962 -0.4850 -1.4543
  324MOL     H439410   5.076   6.444   2.447 -1.6577 -0.3756 -0.8702
  324MOL     H539411   5.318   6.378   2.282 -0.4590  0.9240  0.6361
  324MOL     H639412   5.297   6.391   2.455  0.4182 -1.0602  0.0147
  324MOL     H739413   5.062   6.427   2.265 -0.6598  1.0826  0.5877
  324MOL     C839414   5.214   6.208   2.374 -0.9805 -0.0665 -0.5533
  324MOL     C939415   5.350   6.133   2.374  0.6070  0.2927  0.6903
  324MOL    H1039416   5.154   6.182   2.461 -1.4455 -0.3308 -0.9532
  324MOL    H1139417   5.156   6.180   2.286 -0.6492  1.5057 -1.2952
  324MOL    H1239418   5.406   6.148   2.282  0.2113  0.2146  0.4393
  324MOL    H1339419   5.413   6.161   2.459  2.4057 -1.3711 -0.0417
  324MOL    C1439420   5.317   5.979   2.380  0.0934 -0.0954  1.3628
  324MOL    C1539421   5.441   5.896   2.388  0.1765 -0.3237 -0.3419
  324MOL    H1639422   5.250   5.958   2.463  0.9122  1.2202  2.3928
  324MOL    H1739423   5.277   5.941   2.286  1.7469  1.3103  0.0544
  324MOL    H1839424   5.422   5.799   2.342 -0.4488 -0.8639  1.0198
  324MOL    H1939425   5.526   5.937   2.334  0.0941 -2.1470 -1.9020
  324MOL    C2039426   5.483   5.880   2.534 -0.0133 -0.6141  0.1672
  324MOL    C2139427   5.636   5.856   2.560  1.1718  0.5369  0.3725
  324MOL    H2239428   5.466   5.978   2.576  1.4289 -0.0863 -0.4524
  324MOL    H2339429   5.422   5.798   2.574 -2.2500  1.1875  0.5630
  324MOL    H2439430   5.652   5.799   2.652  2.0706 -0.2173 -0.2382
  324MOL    H2539431   5.671   5.785   2.485  1.2899 -1.9631  2.6958
  324MOL    C2639432   5.735   5.975   2.571  0.6950 -0.2763  0.1787
  324MOL    C2739433   5.760   6.003   2.725  0.0805 -0.2153  0.4209
  324MOL    H2839434   5.825   5.946   2.517 -0.7433 -0.3121 -2.2922
  324MOL    H2939435   5.702   6.064   2.518  0.2802  1.8025  3.7756
  324MOL    H3039436   5.763   5.914   2.787 -2.1015 -0.7958 -0.2645
  324MOL    H3139437   5.862   6.042   2.729  0.1923 -0.4732  0.1625
  324MOL    C3239438   5.655   6.097   2.785 -0.2140  0.1223  0.2410
  324MOL    C3339439   5.653   6.248   2.727  0.0609  0.4087 -0.2881
  324MOL    H3439440   5.554   6.056   2.787 -0.3149  0.2562 -1.3651
  324MOL    H3539441   5.682   6.105   2.891 -2.4768 -0.1960  0.8652
  324MOL    H3639442   5.747   6.297   2.753  1.3803 -0.9628 -2.2346
  324MOL    H3739443   5.662   6.239   2.618  0.4211 -1.5010 -0.1351
  324MOL    C3839444   5.535   6.334   2.773  0.5585 -0.9291 -0.2092
  324MOL    C3939445   5.540   6.482   2.720 -0.2554 -0.8897  0.3616
  324MOL    H4039446   5.441   6.298   2.732 -1.1490  0.2413  2.5549
  324MOL    H4139447   5.516   6.325   2.880 -1.6587 -2.8791 -0.7417
  324MOL    H4239448   5.639   6.521   2.744 -1.3939  1.0404  2.0855
  324MOL    H4339449   5.538   6.473   2.611  1.4633  3.1539 -0.1129
  324MOL    C4439450   5.437   6.588   2.764 -0.4780 -1.3295 -0.0517
  324MOL    C4539451   5.296   6.558   2.713 -0.6873 -0.4812 -0.8505
  324MOL    H4639452   5.417   6.582   2.871 -0.3797  1.7017  0.1643
  324MOL    H4739453   5.458   6.692   2.739 -2.6564 -0.5343  1.2726
  324MOL    H4839454   5.300   6.545   2.605 -0.0534 -2.4803 -0.6003
  324MOL    H4939455   5.253   6.466   2.750 -2.2874  1.4159  2.1786
  324MOL    C5039456   5.194   6.661   2.754  1.4726  0.0772  0.0520
  324MOL    C5139457   5.073   6.659   2.659 -0.2544 -0.4923 -0.2179
  324MOL    H5239458   5.173   6.629   2.856  1.1639 -0.4848 -0.1889
  324MOL    H5339459   5.256   6.750   2.747  0.6374  0.5999 -0.8411
  324MOL    H5439460   5.107   6.654   2.555 -1.4316 -0.8832 -0.5942
  324MOL    H5539461   5.028   6.563   2.683  1.3360 -0.8939  1.2659
  324MOL    C5639462   4.982   6.782   2.691  0.8432  0.6305 -0.5972
  324MOL    C5739463   4.855   6.783   2.591 -0.6997 -0.1719  0.3986
  324MOL    H5839464   4.948   6.784   2.795  2.6996  3.3895  0.0134
  324MOL    H5939465   5.041   6.871   2.670  1.6308 -0.2887 -2.3938
  324MOL    H6039466   4.904   6.772   2.494 -1.9877  1.0656 -0.3923
  324MOL    H6139467   4.787   6.699   2.607 -3.4078  2.3898  2.9816
  324MOL    C6239468   4.774   6.913   2.590 -0.0878 -0.3231  0.1920
  324MOL    C6339469   4.671   6.920   2.472  0.1536  0.2111  0.0886
  324MOL    H6439470   4.718   6.933   2.682 -1.8809  1.7113 -1.2796
  324MOL    H6539471   4.848   6.992   2.582 -0.4070 -0.1218 -0.9172
  324MOL    H6639472   4.712   6.880   2.380  3.1835  0.3542  1.2915
  324MOL    H6739473   4.587   6.857   2.500  1.2918 -1.2514  0.2443
  324MOL    C6839474   4.626   7.063   2.443  0.5242  0.0148 -0.2186
  324MOL    C6939475   4.537   7.066   2.323 -0.3010  0.0333  0.1586
  324MOL    H7039476   4.578   7.106   2.531  0.5859  0.9114 -0.6235
  324MOL    H7139477   4.718   7.120   2.429  1.5007 -1.3961  0.3452
  324MOL    H7239478   4.570   7.005   2.240  1.3122 -1.0001  1.5345
  324MOL    H7339479   4.437   7.031   2.350  0.0232 -3.0083 -2.3516
  324MOL    C7439480   4.540   7.214   2.273 -0.2322  0.9756  0.5662
  324MOL    C7539481   4.455   7.304   2.365 -0.8980 -0.6429  0.5546
  324MOL    H7639482   4.641   7.255   2.269  0.5475 -0.8471  0.9086
  324MOL    H7739483   4.508   7.215   2.169 -0.3533  1.3126  0.6053
  324MOL    H7839484   4.353   7.264   2.372 -0.7021 -1.1858  0.3823
  324MOL    H7939485   4.478   7.317   2.471 -0.4314 -0.4846  0.4308
  324MOL    C8039486   4.442   7.447   2.315 -0.1405 -0.2060 -0.5523
  324MOL    C8139487   4.419   7.465   2.158 -0.1345  0.1283 -0.1024
  324MOL    H8239488   4.352   7.491   2.357  0.7022 -0.1102  1.2139
  324MOL    H8339489   4.512   7.513   2.367 -1.5896 -1.7291  3.5960
  324MOL    H8439490   4.503   7.427   2.098 -1.4398 -1.1171 -1.1710
  324MOL    H8539491   4.333   7.408   2.124  0.3966 -2.2715  2.4019
  324MOL    C8639492   4.386   7.603   2.111  0.2061 -0.0482  0.3147
  324MOL    C8739493   4.501   0.011   2.132 -0.3211  0.0140  0.5386
  324MOL    H8839494   4.365   7.591   2.005  1.5941  0.4659 -0.0369
  324MOL    H8939495   4.295   7.638   2.160  0.9176 -0.3023  1.8433
  324MOL    H9039496   4.513   0.010   2.240  0.2179 -1.3534  0.4771
  324MOL    H9139497   4.584   7.659   2.077 -0.8819 -0.4698  0.0715
  324MOL    C9239498   4.482   0.150   2.066 -0.2366 -0.1819  0.1815
  324MOL    C9339499   4.589   0.249   2.108  0.7123  0.4927  0.5432
  324MOL    H9439500   4.476   0.141   1.958 -2.3305 -0.3056  0.2895
  324MOL    H9539501   4.383   0.186   2.095  0.1964  1.8267 -0.7934
  324MOL    H9639502   4.546   0.348   2.099  0.2471  0.1265 -1.6317
  324MOL    H9739503   4.616   0.229   2.212 -0.4162 -0.7596  0.6027
  324MOL    C9839504   4.730   0.243   2.038  0.4621 -0.7418 -0.1361
  324MOL    C9939505   4.814   0.360   2.081  0.4622  0.1972  0.0632
  324MOL   H10039506   4.779   0.147   2.053  0.4419 -0.9176 -1.1887
  324MOL   H10139507   4.716   0.248   1.930  1.1102 -0.2432 -0.1933
  324MOL   H10239508   4.762   0.455   2.070 -2.1355 -1.1450  0.2611
  324MOL   H10339509   4.834   0.365   2.188 -0.6720  0.1457  0.2854
  324MOL   C10439510   4.952   0.347   2.001 -0.0176  0.6421  0.2571
  324MOL   C10539511   5.032   0.481   2.021  1.0211 -0.2035 -0.0840
  324MOL   H10639512   5.004   0.256   2.032  1.3486  1.5687  0.6838
  324MOL   H10739513   4.930   0.333   1.895 -1.1901 -1.7861  0.7789
  324MOL   H10839514   4.966   0.567   2.031 -1.0251 -1.5774 -1.3772
  324MOL   H10939515   5.075   0.474   2.121 -1.9236  2.2648  1.4404
  324MOL   C11039516   5.138   0.501   1.911 -0.3473 -0.2881  0.4846
  324MOL   C11139517   5.231   0.618   1.956  0.1620 -0.7165 -0.1784
  324MOL   H11239518   5.193   0.409   1.891  0.8405  0.2048  1.4244
  324MOL   H11339519   5.089   0.545   1.824 -0.2976  1.4891  1.3416
  324MOL   H11439520   5.169   0.704   1.982 -0.0371 -0.9345  0.0737
  324MOL   H11539521   5.282   0.588   2.048 -2.1055 -2.5670  0.5230
  324MOL   C11639522   5.325   0.672   1.847  0.6016  0.8918  0.2270
  324MOL   C11739523   5.397   0.801   1.895 -0.7135 -0.4696  0.6817
  324MOL   H11839524   5.404   0.607   1.810  0.2744 -0.2103  1.4100
  324MOL   H11939525   5.255   0.699   1.767 -1.2993  2.2243  2.2806
  324MOL   H12039526   5.462   0.826   1.811 -0.2564 -2.6664  0.3566
  324MOL   H12139527   5.349   0.877   1.958  0.0225  0.3804  0.2292
  324MOL   H12239528   5.471   0.772   1.969  1.3383  0.3067 -1.0145
  325MOL     C139529   0.105   2.654   7.636  0.4007  0.0729  0.4416
  325MOL     C239530   0.186   2.576   0.045  0.1673 -0.0673  0.0179
  325MOL     H339531   0.032   2.594   7.583  1.1481 -1.3770  1.0134
  325MOL     H439532   0.162   2.707   7.560  1.4279 -0.7459  0.6305
  325MOL     H539533   0.253   2.506   7.687 -0.8611  1.4439 -3.6091
  325MOL     H639534   0.246   2.635   0.115  0.2227  1.0131 -0.9294
  325MOL     H739535   0.049   2.733   7.686  0.1563  0.9463 -1.1767
  325MOL     C839536   0.102   2.482   0.134  0.0655 -0.9670  0.6157
  325MOL     C939537   0.183   2.415   0.242 -0.0790 -0.1389  0.0960
  325MOL    H1039538   0.026   2.545   0.181  0.7190 -0.2807  0.7546
  325MOL    H1139539   0.044   2.420   0.065 -1.0152 -0.4836  1.0798
  325MOL    H1239540   0.263   2.360   0.192 -0.5324 -0.2258 -0.5353
  325MOL    H1339541   0.215   2.492   0.312 -0.1889 -0.2027  0.2148
  325MOL    C1439542   0.094   2.312   0.313  0.3221 -0.2511 -0.3623
  325MOL    C1539543   0.179   2.246   0.423  0.1298  0.1405 -0.7059
  325MOL    H1639544   0.013   2.375   0.349  0.9090  0.2865  0.0365
  325MOL    H1739545   0.040   2.244   0.247 -1.4278 -1.1214  1.8937
  325MOL    H1839546   0.275   2.210   0.384  0.5558  1.0086 -0.4565
  325MOL    H1939547   0.201   2.319   0.500 -1.5445 -0.7418  0.6488
  325MOL    C2039548   0.104   2.127   0.484 -0.2696 -0.6853 -0.1314
  325MOL    C2139549   0.179   2.065   0.602  0.1726 -0.3442  0.4176
  325MOL    H2239550   0.010   2.168   0.522 -1.1000 -2.4365 -0.2277
  325MOL    H2339551   0.077   2.051   0.411 -1.6581 -0.2732 -0.0700
  325MOL    H2439552   0.276   2.025   0.572  0.1664  0.7318 -1.1248
  325MOL    H2539553   0.195   2.142   0.677  0.3160  1.0812 -1.0373
  325MOL    C2639554   0.096   1.954   0.667 -0.2209  0.8025  0.0491
  325MOL    C2739555   0.176   1.895   0.788  0.9248 -0.9776 -0.1676
  325MOL    H2839556   7.691   1.990   0.702 -1.0529 -0.3414 -1.0293
  325MOL    H2939557   0.084   1.872   0.597  0.7306 -0.2601  1.1140
  325MOL    H3039558   0.275   1.863   0.758  2.0658 -0.6703  3.0845
  325MOL    H3139559   0.189   1.973   0.862  1.9533 -0.9093 -0.4263
  325MOL    C3239560   0.103   1.774   0.853 -0.1740 -0.2340 -0.2078
  325MOL    C3339561   0.184   1.707   0.970 -0.1140  0.4790  0.0586
  325MOL    H3439562   0.002   1.799   0.885 -0.3362 -1.3576  0.2082
  325MOL    H3539563   0.088   1.688   0.787  1.7272 -0.7074 -0.0321
  325MOL    H3639564   0.280   1.686   0.922 -1.5782 -2.1765 -1.8527
  325MOL    H3739565   0.212   1.771   1.053  0.9258 -0.1393  0.2010
  325MOL    C3839566   0.104   1.589   1.020 -0.3870 -0.0549  0.3445
  325MOL    C3939567   0.177   1.485   1.118  0.0031 -0.2135 -0.6472
  325MOL    H4039568   0.011   1.626   1.064 -1.2464 -1.0424 -0.5986
  325MOL    H4139569   0.054   1.537   0.938  0.1772  0.3474 -0.2566
  325MOL    H4239570   0.258   1.436   1.064  0.3801 -2.0497  1.5019
  325MOL    H4339571   0.223   1.541   1.199 -0.8655 -1.3818  0.6674
  325MOL    C4439572   0.081   1.373   1.162 -0.2371  0.4970 -0.5039
  325MOL    C4539573   0.152   1.299   1.284  0.1343  0.5458 -0.1824
  325MOL    H4639574   7.672   1.397   1.196 -0.2883  1.1736 -1.1270
  325MOL    H4739575   0.057   1.305   1.080  0.7967 -0.0274 -0.3879
  325MOL    H4839576   0.246   1.257   1.249  0.5354 -0.4687  2.0030
  325MOL    H4939577   0.171   1.382   1.353 -1.1438  0.9099 -0.2498
  325MOL    C5039578   0.065   1.190   1.358  0.3186  0.4576 -0.2796
  325MOL    C5139579   0.136   1.112   1.472  0.1365 -1.1398 -0.8236
  325MOL    H5239580   7.664   1.231   1.398 -0.2442 -2.2154  1.2577
  325MOL    H5339581   0.020   1.117   1.291  0.3896  0.2315 -0.0820
  325MOL    H5439582   0.232   1.076   1.433 -0.0262 -1.3059 -1.0702
  325MOL    H5539583   0.152   1.167   1.565  1.3408 -0.7652 -1.2346
  325MOL    C5639584   0.056   0.997   1.528  0.2054 -0.2661  0.3363
  325MOL    C5739585   0.123   0.940   1.658  0.4525 -0.1521  0.2920
  325MOL    H5839586   7.654   1.036   1.568 -0.5113 -0.4251 -1.1546
  325MOL    H5939587   0.038   0.920   1.453 -0.2081 -2.1680  2.3288
  325MOL    H6039588   0.223   0.915   1.625 -0.2525  0.2517 -2.2447
  325MOL    H6139589   0.122   1.013   1.739  0.0703  1.8158 -1.4316
  325MOL    C6239590   0.061   0.813   1.707  0.1723  0.8614  0.4118
  325MOL    C6339591   0.142   0.758   1.826 -0.1541 -0.0186  0.5294
  325MOL    H6439592   7.650   0.839   1.734 -0.1539  1.8402 -1.6503
  325MOL    H6539593   0.051   0.734   1.632 -1.3022 -0.9622  2.4898
  325MOL    H6639594   0.246   0.766   1.796 -1.1554  0.9514 -2.9264
  325MOL    H6739595   0.125   0.827   1.909  1.9196 -0.1862  1.1191
  325MOL    C6839596   0.104   0.616   1.864 -0.0297  0.6950  0.7569
  325MOL    C6939597   0.186   0.565   1.990  0.4725 -0.1417  0.1224
  325MOL    H7039598   7.687   0.610   1.871 -0.0824  0.1322 -0.3721
  325MOL    H7139599   0.144   0.551   1.786  1.5626 -0.4928  2.5300
  325MOL    H7239600   0.191   0.637   2.071  1.0429 -1.5774  1.3713
  325MOL    H7339601   0.132   0.476   2.021  0.5675 -0.8701 -1.7081
  325MOL    C7439602   0.327   0.521   1.957  0.5757 -0.5451 -0.2534
  325MOL    C7539603   0.418   0.534   2.082  0.5149 -0.1841 -0.7395
  325MOL    H7639604   0.314   0.419   1.921 -0.0233  0.4597 -2.9860
  325MOL    H7739605   0.363   0.572   1.867  0.6805  1.0389  0.6721
  325MOL    H7839606   0.428   0.633   2.125 -1.4374 -0.4215  0.3336
  325MOL    H7939607   0.371   0.481   2.165 -0.5697 -1.4854 -2.1328
  325MOL    C8039608   0.563   0.473   2.065 -0.5479  0.0508  0.4108
  325MOL    C8139609   0.659   0.480   2.187 -0.3956 -0.1251  0.0964
  325MOL    H8239610   0.553   0.370   2.032  0.0678  0.1437 -0.0701
  325MOL    H8339611   0.611   0.525   1.982 -3.9825 -0.9307 -2.3394
  325MOL    H8439612   0.668   0.583   2.221 -2.4226  0.1287 -0.0524
  325MOL    H8539613   0.611   0.432   2.272  1.2933  0.4048  1.3715
  325MOL    C8639614   0.799   0.416   2.156 -0.0046 -0.2961  0.1266
  325MOL    C8739615   0.889   0.400   2.277  0.4048  0.8246  0.8425
  325MOL    H8839616   0.782   0.320   2.106  0.1686  1.1095 -2.7637
  325MOL    H8939617   0.855   0.471   2.080  1.3973  1.5215  2.4321
  325MOL    H9039618   0.941   0.489   2.313  1.0406  0.8191 -0.0406
  325MOL    H9139619   0.829   0.348   2.352  0.5132 -0.2776  0.1642
  325MOL    C9239620   1.002   0.293   2.263  0.5524  0.4229  0.1585
  325MOL    C9339621   1.073   0.270   2.397 -0.0157 -0.1677  0.0198
  325MOL    H9439622   0.952   0.200   2.237 -0.4475  0.2503  2.6208
  325MOL    H9539623   1.075   0.323   2.188 -1.1442 -0.7877 -2.0107
  325MOL    H9639624   1.099   0.370   2.431  0.5069 -0.9156  1.8856
  325MOL    H9739625   1.001   0.233   2.469  0.1566  0.0920  0.3265
  325MOL    C9839626   1.193   0.185   2.391  0.5215 -0.2445 -0.3393
  325MOL    C9939627   1.273   0.199   2.517  0.6599 -0.2187 -0.1191
  325MOL   H10039628   1.156   0.085   2.366 -1.0553  0.7584 -2.0697
  325MOL   H10139629   1.253   0.230   2.311  1.7952 -0.0539  0.7116
  325MOL   H10239630   1.290   0.304   2.538  2.0709 -0.2656 -0.9686
  325MOL   H10339631   1.225   0.149   2.601 -0.6090  1.0135 -0.0865
  325MOL   C10439632   1.411   0.135   2.505  0.1569 -0.3907 -0.0909
  325MOL   C10539633   1.485   0.153   2.645 -0.3362  0.0109  0.0025
  325MOL   H10639634   1.401   0.034   2.465  2.3961 -0.4894 -0.4350
  325MOL   H10739635   1.464   0.188   2.426 -0.9949 -0.0465 -0.6388
  325MOL   H10839636   1.488   0.259   2.671  0.1213  0.0182 -0.0746
  325MOL   H10939637   1.439   0.095   2.724  0.7938 -0.1514  0.5557
  325MOL   C11039638   1.627   0.106   2.631 -0.1402  0.7125 -0.0487
  325MOL   C11139639   1.712   0.110   2.758  0.2751 -0.3199  0.4439
  325MOL   H11239640   1.621   0.001   2.602  1.1297  0.8482 -0.8187
  325MOL   H11339641   1.672   0.156   2.545 -1.0492  2.2675  0.3611
  325MOL   H11439642   1.734   0.214   2.783  0.3115 -0.1166 -0.4091
  325MOL   H11539643   1.660   0.067   2.843 -2.2475  0.0816 -0.8527
  325MOL   C11639644   1.853   0.035   2.752 -0.0943 -0.5108 -0.2312
  325MOL   C11739645   1.957   0.110   2.667  0.2320  0.2085 -0.2508
  325MOL   H11839646   1.887   0.030   2.856  0.6601 -0.2570 -0.4664
  325MOL   H11939647   1.835   7.626   2.715  2.7912 -1.0811 -0.2125
  325MOL   H12039648   1.914   0.128   2.569 -0.5210 -1.0637 -0.1736
  325MOL   H12139649   1.971   0.213   2.699 -1.9361  0.1683  0.9341
  325MOL   H12239650   2.052   0.059   2.647  0.0555  0.7152 -2.4837
  326MOL     C139651   5.086   7.179   0.877 -0.6691 -0.1469 -0.1641
  326MOL     C239652   5.119   7.088   0.992  0.4799 -0.2810 -0.0982
  326MOL     H339653   4.980   7.176   0.850 -0.9343  1.0833  0.7148
  326MOL     H439654   5.143   7.138   0.793 -1.5742 -1.0479 -0.3525
  326MOL     H539655   5.219   7.118   1.024  0.9015  0.5898 -2.1550
  326MOL     H639656   5.049   7.110   1.073  0.6952 -1.3825  0.4012
  326MOL     H739657   5.110   7.283   0.897 -2.7125  0.7373 -2.0735
  326MOL     C839658   5.100   6.942   0.954 -0.0167  0.1574  0.7629
  326MOL     C939659   5.200   6.883   0.852 -0.3700 -0.1098  0.3692
  326MOL    H1039660   5.098   6.885   1.047 -0.2618 -0.1872  0.5488
  326MOL    H1139661   5.000   6.925   0.914 -0.3898  0.5193  1.5310
  326MOL    H1239662   5.147   6.798   0.808  0.8820 -0.0130 -1.3845
  326MOL    H1339663   5.216   6.957   0.774 -0.2218  0.0719  0.5699
  326MOL    C1439664   5.345   6.849   0.910  0.4065  0.7387  0.1268
  326MOL    C1539665   5.339   6.730   1.017 -0.1622  0.5105  0.2393
  326MOL    H1639666   5.426   6.813   0.847  0.2572  1.0127 -0.2172
  326MOL    H1739667   5.396   6.934   0.955  0.0688  1.4493 -0.8422
  326MOL    H1839668   5.277   6.770   1.097 -2.6735 -0.9663 -0.8983
  326MOL    H1939669   5.297   6.636   0.982  1.9933 -1.1439  2.0095
  326MOL    C2039670   5.483   6.686   1.064  0.4888  0.4340 -0.2302
  326MOL    C2139671   5.554   6.593   0.966  0.3145  0.3640 -0.0548
  326MOL    H2239672   5.546   6.772   1.086  2.2918 -0.8435 -0.3716
  326MOL    H2339673   5.479   6.628   1.157 -0.1970 -0.4726 -0.8168
  326MOL    H2439674   5.505   6.496   0.964  0.2463  0.4028 -0.2932
  326MOL    H2539675   5.539   6.628   0.863  0.1635  2.5661  0.6750
  326MOL    C2639676   5.706   6.594   0.986 -0.2006 -0.1088 -0.8221
  326MOL    C2739677   5.785   6.500   0.896  0.2915  0.0832 -0.1544
  326MOL    H2839678   5.752   6.690   0.964  0.7566 -0.9613 -2.6006
  326MOL    H2939679   5.716   6.562   1.090  0.2161 -0.7485 -1.0598
  326MOL    H3039680   5.735   6.403   0.901 -2.3508  1.4149 -0.1162
  326MOL    H3139681   5.770   6.535   0.793  0.4034  0.0486 -0.1831
  326MOL    C3239682   5.940   6.499   0.930 -0.8702 -0.6248 -0.1690
  326MOL    C3339683   6.010   6.396   0.850 -0.5957 -0.0569  0.0850
  326MOL    H3439684   5.986   6.595   0.911 -0.9748 -0.5143  0.1304
  326MOL    H3539685   5.950   6.488   1.038  0.8413 -0.7958 -0.3375
  326MOL    H3639686   5.949   6.306   0.844 -0.7473  0.2228 -3.4456
  326MOL    H3739687   6.006   6.429   0.746 -1.1741  0.3214  0.2278
  326MOL    C3839688   6.161   6.392   0.872 -0.1401 -0.6943  0.2138
  326MOL    C3939689   6.246   6.325   0.762  0.1082 -0.5675  0.2825
  326MOL    H4039690   6.205   6.490   0.891 -0.1572 -0.5647 -0.3988
  326MOL    H4139691   6.171   6.331   0.962  1.7211  1.4479  1.4953
  326MOL    H4239692   6.222   6.219   0.759  2.4895 -1.1181 -2.5711
  326MOL    H4339693   6.242   6.368   0.662 -2.1157  1.1198  1.0701
  326MOL    C4439694   6.396   6.316   0.795  0.2209 -0.6550 -0.0003
  326MOL    C4539695   6.483   6.436   0.756  0.5215 -0.2092  0.2022
  326MOL    H4639696   6.395   6.292   0.901  1.9759 -1.3756 -0.1416
  326MOL    H4739697   6.435   6.224   0.752  1.7627  0.0422 -0.0950
  326MOL    H4839698   6.493   6.434   0.648 -0.0329 -0.1128  0.1482
  326MOL    H4939699   6.421   6.524   0.772  0.3278 -0.6641  2.1103
  326MOL    C5039700   6.614   6.445   0.837  0.7255  0.7176  0.0544
  326MOL    C5139701   6.683   6.573   0.805  0.2335  0.6312 -1.0813
  326MOL    H5239702   6.583   6.458   0.940 -3.2982  0.2008 -0.9788
  326MOL    H5339703   6.677   6.357   0.836 -2.8566 -1.9424 -1.1212
  326MOL    H5439704   6.736   6.553   0.712  0.5102  1.7007 -1.1653
  326MOL    H5539705   6.613   6.656   0.794  1.3726  1.3064 -3.5658
  326MOL    C5639706   6.777   6.616   0.919  0.1284  0.3353  0.3236
  326MOL    C5739707   6.873   6.519   0.990 -0.0709  0.2718 -1.0436
  326MOL    H5839708   6.838   6.686   0.861  1.2981  0.7490  1.9998
  326MOL    H5939709   6.729   6.677   0.995  0.4452 -1.7680  2.2565
  326MOL    H6039710   6.814   6.442   1.040 -0.1504  1.0115 -0.0131
  326MOL    H6139711   6.931   6.467   0.913 -0.3827  0.2319 -1.2526
  326MOL    C6239712   6.958   6.602   1.079  0.0461 -0.0482  0.6231
  326MOL    C6339713   7.065   6.520   1.152  0.3687 -0.0575  0.1313
  326MOL    H6439714   7.013   6.666   1.010  1.4716 -0.9399  0.9146
  326MOL    H6539715   6.905   6.661   1.154 -0.1640 -0.7730  1.0515
  326MOL    H6639716   7.035   6.430   1.204 -0.2999  1.2883  2.1400
  326MOL    H6739717   7.141   6.490   1.080 -0.1309 -0.6429 -0.1505
  326MOL    C6839718   7.135   6.593   1.258 -0.8162 -0.2847 -0.1641
  326MOL    C6939719   7.043   6.642   1.371 -0.5432  0.2466 -0.3364
  326MOL    H7039720   7.205   6.518   1.296 -0.0213 -0.6671 -2.3269
  326MOL    H7139721   7.195   6.674   1.217 -1.2604 -0.1732 -0.5883
  326MOL    H7239722   6.994   6.733   1.336  1.1892  0.8754 -1.2126
  326MOL    H7339723   6.972   6.560   1.380  0.4053 -0.2313  3.4884
  326MOL    C7439724   7.106   6.663   1.515 -0.5901  0.3877  0.2691
  326MOL    C7539725   7.006   6.686   1.626 -0.7259 -0.7579  0.3988
  326MOL    H7639726   7.164   6.573   1.535  1.1197  1.4096  0.0108
  326MOL    H7739727   7.178   6.745   1.513  2.3688 -2.1592 -2.2805
  326MOL    H7839728   6.959   6.780   1.601 -0.5334 -0.4087  1.3097
  326MOL    H7939729   6.945   6.596   1.637 -1.0084 -0.4212  1.7738
  326MOL    C8039730   7.084   6.730   1.755  0.4636 -0.2074  0.1306
  326MOL    C8139731   6.991   6.755   1.873 -0.3693  0.7370 -0.5360
  326MOL    H8239732   7.166   6.663   1.781 -0.5685 -1.2483  0.7373
  326MOL    H8339733   7.127   6.827   1.730 -0.0642 -0.3731 -1.5155
  326MOL    H8439734   6.904   6.809   1.836 -0.0761  0.3880 -1.7697
  326MOL    H8539735   6.953   6.659   1.910 -2.4215  0.9979 -1.8900
  326MOL    C8639736   7.066   6.829   1.984 -0.6481 -0.0904 -0.5836
  326MOL    C8739737   6.979   6.881   2.098 -0.6498 -0.3380  0.3335
  326MOL    H8839738   7.144   6.764   2.024  0.5812  2.6199  1.5948
  326MOL    H8939739   7.131   6.910   1.950 -0.6905  0.5350  0.8077
  326MOL    H9039740   6.910   6.961   2.070  0.0258  0.6885  1.5279
  326MOL    H9139741   6.915   6.803   2.139  0.1495  0.2657  2.8538
  326MOL    C9239742   7.060   6.961   2.205 -0.0903 -0.3870  0.7225
  326MOL    C9339743   6.973   7.031   2.314  0.2125 -0.0231 -0.7304
  326MOL    H9439744   7.124   6.891   2.258  1.0936 -1.4819 -2.0593
  326MOL    H9539745   7.121   7.031   2.148 -0.8857 -1.1332 -1.0711
  326MOL    H9639746   6.898   7.097   2.271 -1.4043 -2.0869 -1.2015
  326MOL    H9739747   6.916   6.962   2.377 -1.7771  0.3504 -2.0783
  326MOL    C9839748   7.056   7.116   2.404  0.1146  0.3192  0.4230
  326MOL    C9939749   6.977   7.193   2.514 -1.5551 -0.7165  0.0802
  326MOL   H10039750   7.118   7.055   2.470 -2.7862 -0.2784  2.6672
  326MOL   H10139751   7.114   7.178   2.335 -0.1358  0.0274 -0.0565
  326MOL   H10239752   6.904   7.255   2.463  1.9292  2.4087 -1.3886
  326MOL   H10339753   6.923   7.116   2.569 -1.4110 -0.1919  0.9724
  326MOL   C10439754   7.061   7.288   2.603  0.4831 -0.4913  0.5279
  326MOL   C10539755   6.970   7.352   2.717 -0.1002  0.4208 -0.2362
  326MOL   H10639756   7.143   7.237   2.653 -0.8704 -2.3504  0.8917
  326MOL   H10739757   7.108   7.367   2.544  0.6110 -1.7089 -1.0285
  326MOL   H10839758   6.887   7.406   2.671 -0.5227 -0.5055 -0.5705
  326MOL   H10939759   6.927   7.276   2.783 -1.6910  2.9804  1.8157
  326MOL   C11039760   7.060   7.457   2.791 -0.2567 -0.2519  0.4270
  326MOL   C11139761   6.995   7.528   2.902 -0.0191 -0.2743 -0.3994
  326MOL   H11239762   7.139   7.400   2.840  0.8077  0.3614 -0.5512
  326MOL   H11339763   7.128   7.513   2.727  0.0124 -1.5597 -0.4603
  326MOL   H11439764   6.933   7.469   2.968 -2.0712  0.7059 -1.3946
  326MOL   H11539765   7.070   7.582   2.959 -1.6755  1.3406  0.2870
  326MOL   C11639766   6.894   7.634   2.842  0.2782 -0.0117 -0.7077
  326MOL   C11739767   6.838   0.032   2.951 -0.0782 -0.2909  0.0096
  326MOL   H11839768   6.945   0.007   2.770  1.4664 -1.7556 -1.4859
  326MOL   H11939769   6.813   7.571   2.808 -0.3330 -0.3372  1.2902
  326MOL   H12039770   6.920   0.081   3.003  0.8588 -2.7400  0.9088
  326MOL   H12139771   6.776   0.111   2.908 -1.9708 -2.0651 -0.6161
  326MOL   H12239772   6.775   7.671   3.022  0.4851 -0.9042  0.0498
  327MOL     C139773   3.238   5.154   2.011 -0.1558  0.2385 -0.0551
  327MOL     C239774   3.186   5.066   2.119 -0.3472  1.2197 -0.0164
  327MOL     H339775   3.179   5.143   1.920  1.5700 -0.4407 -1.1263
  327MOL     H439776   3.344   5.138   1.989 -0.4292 -0.4065 -0.9301
  327MOL     H539777   3.209   4.963   2.090 -2.3152  1.4270 -2.4344
  327MOL     H639778   3.248   5.072   2.209  0.5740  0.0576 -0.5507
  327MOL     H739779   3.230   5.255   2.050 -1.9369 -0.8033  2.4586
  327MOL     C839780   3.035   5.081   2.150  0.5359 -0.0302 -0.4032
  327MOL     C939781   2.985   4.980   2.253 -0.0159 -0.2889 -0.6033
  327MOL    H1039782   3.016   5.184   2.182  2.0828 -0.3464  1.6572
  327MOL    H1139783   2.976   5.082   2.058 -0.8692 -0.0780  0.4826
  327MOL    H1239784   2.983   4.877   2.219 -1.8885 -0.9022  1.2233
  327MOL    H1339785   3.047   4.983   2.343 -2.3501  0.0768  1.0471
  327MOL    C1439786   2.845   4.996   2.292  0.2617 -0.4306 -0.0231
  327MOL    C1539787   2.812   4.896   2.406  0.1107  0.5462 -0.5045
  327MOL    H1639788   2.839   5.092   2.342  0.7433 -1.5479  2.2830
  327MOL    H1739789   2.766   5.000   2.217 -0.5545  0.4676  0.8777
  327MOL    H1839790   2.894   4.870   2.473  0.4366 -0.2395 -1.1904
  327MOL    H1939791   2.740   4.942   2.473 -0.1782 -2.3679  1.2690
  327MOL    C2039792   2.757   4.760   2.358  0.2329 -0.7893 -0.0240
  327MOL    C2139793   2.759   4.649   2.463 -0.1581 -0.0778 -1.0430
  327MOL    H2239794   2.656   4.772   2.317 -0.0943  0.4052  1.1037
  327MOL    H2339795   2.824   4.735   2.275  2.8946  1.9637  1.2250
  327MOL    H2439796   2.866   4.633   2.469 -0.2481 -0.5366 -0.6245
  327MOL    H2539797   2.723   4.677   2.562  3.5209  0.0595  0.3177
  327MOL    C2639798   2.691   4.519   2.403  0.0003  1.0546  0.5997
  327MOL    C2739799   2.724   4.387   2.478  0.0445  0.1082 -0.1683
  327MOL    H2839800   2.583   4.519   2.400 -0.0703 -4.5049 -0.8618
  327MOL    H2939801   2.728   4.500   2.302 -1.6885  1.3527 -0.0792
  327MOL    H3039802   2.831   4.380   2.495  0.0425  0.2756 -0.0805
  327MOL    H3139803   2.683   4.386   2.579 -1.4982  0.9051 -0.7630
  327MOL    C3239804   2.673   4.258   2.405 -0.0505 -0.1392 -0.9195
  327MOL    C3339805   2.554   4.180   2.469  0.3642  0.5408 -0.2830
  327MOL    H3439806   2.660   4.279   2.299 -1.4358  0.2084 -0.6918
  327MOL    H3539807   2.753   4.183   2.406 -0.4233 -0.5361 -0.2909
  327MOL    H3639808   2.578   4.157   2.573  1.6461 -1.1966 -0.9414
  327MOL    H3739809   2.472   4.251   2.455  1.3333  1.5435 -0.9608
  327MOL    C3839810   2.522   4.048   2.394  0.3517  0.0751 -0.1691
  327MOL    C3939811   2.406   3.965   2.458 -0.3003  0.6634 -0.4814
  327MOL    H4039812   2.499   4.060   2.288  1.4498  1.1145 -0.2897
  327MOL    H4139813   2.608   3.983   2.407  0.0762  0.1492  2.3233
  327MOL    H4239814   2.437   3.968   2.562 -0.4181  0.6379 -0.4462
  327MOL    H4339815   2.316   4.025   2.443  0.3859  2.1846  1.3760
  327MOL    C4439816   2.394   3.823   2.403  0.3058 -0.5074  0.3728
  327MOL    C4539817   2.289   3.736   2.473  0.1380  0.0975  0.0209
  327MOL    H4639818   2.374   3.815   2.296 -0.3242 -1.7316  0.5708
  327MOL    H4739819   2.489   3.772   2.420 -0.9403 -2.4398  1.6985
  327MOL    H4839820   2.321   3.733   2.577  0.7595  0.2948 -0.1590
  327MOL    H4939821   2.193   3.787   2.476  0.2720  0.4813 -1.6455
  327MOL    C5039822   2.277   3.596   2.419 -0.2787 -0.3051  0.0285
  327MOL    C5139823   2.154   3.515   2.458 -0.4297 -0.2937  0.1060
  327MOL    H5239824   2.272   3.631   2.316  0.6408 -2.7151 -0.8756
  327MOL    H5339825   2.368   3.535   2.417 -0.0920 -0.0975  1.9479
  327MOL    H5439826   2.156   3.497   2.566  0.1515 -0.0955  0.1287
  327MOL    H5539827   2.059   3.566   2.442 -1.6352 -2.8695 -1.3290
  327MOL    C5639828   2.131   3.389   2.379  0.6288 -0.0020  0.0516
  327MOL    C5739829   1.986   3.335   2.400 -0.3118  0.3336 -0.1342
  327MOL    H5839830   2.151   3.404   2.273  0.3482  1.6979  0.2285
  327MOL    H5939831   2.207   3.320   2.415  0.7319  0.0989  0.0277
  327MOL    H6039832   1.965   3.334   2.507 -1.4099 -0.7534 -0.3387
  327MOL    H6139833   1.915   3.408   2.361 -0.9552  2.5864  4.8821
  327MOL    C6239834   1.947   3.197   2.344 -0.4115  0.6764 -0.0391
  327MOL    C6339835   2.024   3.072   2.397  0.3316  0.1212  0.9768
  327MOL    H6439836   1.845   3.197   2.382 -1.5249  3.7223 -2.7193
  327MOL    H6539837   1.927   3.198   2.236 -1.9094 -2.1720  0.1683
  327MOL    H6639838   2.065   3.116   2.488  0.9166 -0.2328  0.8869
  327MOL    H6739839   1.950   2.993   2.407 -0.0681 -0.0173 -2.3151
  327MOL    C6839840   2.134   3.018   2.302 -0.8804 -0.2733  0.3232
  327MOL    C6939841   2.202   2.903   2.379 -0.0188 -0.0862 -0.1518
  327MOL    H7039842   2.081   2.988   2.211 -1.5154  0.2924  0.5033
  327MOL    H7139843   2.200   3.095   2.265 -3.2166  0.8079 -1.7759
  327MOL    H7239844   2.211   2.927   2.485  0.1854  0.2169 -0.2382
  327MOL    H7339845   2.130   2.822   2.381  1.2354 -1.1836  1.5299
  327MOL    C7439846   2.342   2.862   2.326  0.4107 -0.8245  0.1533
  327MOL    C7539847   2.449   2.974   2.338 -0.2693 -0.5617 -0.4494
  327MOL    H7639848   2.373   2.763   2.356  3.0752 -0.2632 -0.5821
  327MOL    H7739849   2.319   2.851   2.220  0.7776 -1.0038  0.0913
  327MOL    H7839850   2.426   3.044   2.258 -1.5584 -0.5173 -0.0395
  327MOL    H7939851   2.441   3.023   2.435  0.8300  0.9351 -1.0871
  327MOL    C8039852   2.589   2.906   2.323  0.0452  0.0436  0.3666
  327MOL    C8139853   2.702   3.004   2.294  0.5050  0.4818  0.7181
  327MOL    H8239854   2.623   2.845   2.406  0.3218 -3.9396 -2.5503
  327MOL    H8339855   2.573   2.834   2.242  0.4942 -0.0819  0.3896
  327MOL    H8439856   2.668   3.064   2.210  1.9306  0.2427 -0.0420
  327MOL    H8539857   2.726   3.066   2.380  0.7150  1.1833  0.1540
  327MOL    C8639858   2.841   2.929   2.246 -0.2282 -0.1163 -0.6667
  327MOL    C8739859   2.943   3.030   2.197 -0.6268  0.5018 -0.5077
  327MOL    H8839860   2.878   2.878   2.335 -0.0608  1.1192 -0.0189
  327MOL    H8939861   2.830   2.853   2.169  0.0861 -0.5625 -0.2700
  327MOL    H9039862   2.901   3.095   2.119 -1.1942 -0.2811 -0.8616
  327MOL    H9139863   2.953   3.098   2.282  3.7094  0.6268 -0.9974
  327MOL    C9239864   3.083   2.970   2.169  0.6825  0.3281  0.8356
  327MOL    C9339865   3.176   3.066   2.109 -0.3799  0.9232 -0.6457
  327MOL    H9439866   3.115   2.922   2.262  1.4509 -0.7618  0.0272
  327MOL    H9539867   3.058   2.891   2.099 -0.8801  1.7387 -0.2219
  327MOL    H9639868   3.129   3.117   2.025  0.6096  0.0689 -1.7425
  327MOL    H9739869   3.192   3.137   2.190  1.0967  0.0681 -0.1669
  327MOL    C9839870   3.303   3.002   2.060 -0.0469 -0.4204  0.4286
  327MOL    C9939871   3.415   3.091   1.998  0.0451 -0.5688 -0.6303
  327MOL   H10039872   3.338   2.946   2.147  1.4552  1.2106  0.9046
  327MOL   H10139873   3.269   2.931   1.984 -0.8032  1.7776 -1.3500
  327MOL   H10239874   3.371   3.146   1.915  1.0475 -0.4141 -1.0654
  327MOL   H10339875   3.438   3.162   2.076 -4.8712  0.2946  0.1801
  327MOL   C10439876   3.540   3.016   1.946 -0.3225 -0.0003  0.1035
  327MOL   C10539877   3.647   3.111   1.901  0.3185  0.2526  0.2111
  327MOL   H10639878   3.592   2.968   2.029 -1.0489 -1.9323 -0.5338
  327MOL   H10739879   3.520   2.941   1.870  1.1508 -0.0983 -0.2040
  327MOL   H10839880   3.602   3.159   1.814  2.4340  0.2264 -0.9366
  327MOL   H10939881   3.670   3.187   1.975  0.6628  0.1530  0.2079
  327MOL   C11039882   3.777   3.042   1.857  0.1453 -0.4438 -0.4407
  327MOL   C11139883   3.885   3.137   1.800 -0.8155  0.9348  0.4332
  327MOL   H11239884   3.806   2.996   1.951  1.9451  0.8882 -0.3171
  327MOL   H11339885   3.742   2.974   1.779  2.2956 -0.2333 -1.6277
  327MOL   H11439886   3.845   3.172   1.705 -2.5514 -3.2701 -0.5320
  327MOL   H11539887   3.911   3.220   1.865 -0.9607  0.9559  0.4642
  327MOL   C11639888   4.023   3.068   1.772 -0.3525  0.3058  0.1799
  327MOL   C11739889   4.126   3.175   1.723  0.5854  0.1376  0.1279
  327MOL   H11839890   4.036   3.024   1.871 -2.0687  1.0244  0.7455
  327MOL   H11939891   4.018   2.989   1.697  1.5511 -0.0949  0.4487
  327MOL   H12039892   4.113   3.201   1.618  3.5546  2.3393  0.2129
  327MOL   H12139893   4.119   3.271   1.775 -0.9323  0.2504 -0.2562
  327MOL   H12239894   4.227   3.136   1.729  0.6508  0.2673 -0.1087
  328MOL     C139895   2.666   4.314   5.628  0.1579 -0.3184 -0.5809
  328MOL     C239896   2.583   4.193   5.641  0.1735  0.2286 -0.6914
  328MOL     H339897   2.771   4.300   5.653  0.3409 -1.2529 -1.7699
  328MOL     H439898   2.646   4.398   5.695 -0.6899  1.7841 -3.3525
  328MOL     H539899   2.567   4.164   5.745  0.1533  0.7198 -0.5555
  328MOL     H639900   2.490   4.212   5.588 -0.8065  0.5238  1.0940
  328MOL     H739901   2.666   4.358   5.528  1.5371  0.2473 -0.3517
  328MOL     C839902   2.656   4.071   5.584  0.2247  0.3734 -0.4080
  328MOL     C939903   2.569   3.948   5.584  0.1342 -0.0908 -0.2305
  328MOL    H1039904   2.677   4.088   5.478 -0.5645 -0.4651 -0.7085
  328MOL    H1139905   2.749   4.053   5.637  0.1080  0.3144 -0.2244
  328MOL    H1239906   2.547   3.933   5.689 -0.1546 -0.2481 -0.3130
  328MOL    H1339907   2.476   3.956   5.526 -0.2453 -0.6073  0.3077
  328MOL    C1439908   2.635   3.825   5.514 -0.4487  0.4072  0.0964
  328MOL    C1539909   2.567   3.691   5.513  0.1564  0.5286 -0.4643
  328MOL    H1639910   2.633   3.858   5.410 -2.2716  0.0976  0.0117
  328MOL    H1739911   2.732   3.811   5.561  0.4135  0.3122 -1.6670
  328MOL    H1839912   2.465   3.701   5.476 -1.5231 -0.9774  3.4218
  328MOL    H1939913   2.606   3.619   5.442  1.9296  2.3723 -1.3989
  328MOL    C2039914   2.549   3.619   5.650 -0.3078 -0.5767  0.0200
  328MOL    C2139915   2.444   3.510   5.639  0.0353 -0.2319 -0.0666
  328MOL    H2239916   2.644   3.570   5.672 -0.3254 -0.3540  0.6186
  328MOL    H2339917   2.514   3.691   5.725 -0.3688  0.8232 -1.3243
  328MOL    H2439918   2.352   3.569   5.648 -0.6188 -0.8490 -2.4043
  328MOL    H2539919   2.453   3.461   5.542 -1.5809 -2.4640  0.8754
  328MOL    C2639920   2.465   3.398   5.750  0.0232 -0.0823 -0.1180
  328MOL    C2739921   2.345   3.290   5.760 -0.3890  0.1652 -0.8787
  328MOL    H2839922   2.560   3.350   5.725  0.6860 -0.4634  2.9164
  328MOL    H2939923   2.487   3.455   5.840  0.6680  2.1405 -1.6360
  328MOL    H3039924   2.248   3.335   5.739 -1.5058 -1.6380  0.2752
  328MOL    H3139925   2.355   3.201   5.698 -1.1384 -0.0603 -0.6789
  328MOL    C3239926   2.330   3.244   5.913  0.0456  0.2473  0.2631
  328MOL    C3339927   2.219   3.147   5.930 -0.3125  0.3135 -0.2001
  328MOL    H3439928   2.423   3.193   5.939 -0.4084 -0.7682 -0.0869
  328MOL    H3539929   2.309   3.329   5.979 -0.6777  0.8225 -0.6875
  328MOL    H3639930   2.119   3.186   5.911  0.8974  3.3512 -0.5929
  328MOL    H3739931   2.229   3.061   5.863 -0.7128 -0.7765  1.1060
  328MOL    C3839932   2.210   3.104   6.080  0.4027  0.5353 -0.1081
  328MOL    C3939933   2.091   3.012   6.114  0.1580 -0.0743  0.1966
  328MOL    H4039934   2.292   3.038   6.106  0.6066  1.2919  1.1979
  328MOL    H4139935   2.220   3.194   6.142 -1.3160  1.5049 -1.2041
  328MOL    H4239936   2.002   3.071   6.094  1.0556  1.3837  0.3999
  328MOL    H4339937   2.079   2.924   6.051 -1.1826 -0.9896  1.6876
  328MOL    C4439938   2.072   2.972   6.261  0.9801 -0.6355 -0.2384
  328MOL    C4539939   1.961   2.869   6.284 -0.6932  0.0203 -0.6195
  328MOL    H4639940   2.163   2.922   6.295  0.7194 -0.3941  0.8366
  328MOL    H4739941   2.065   3.061   6.324  1.2308 -0.1272 -0.9247
  328MOL    H4839942   1.861   2.911   6.296 -0.2171  1.5488 -1.8339
  328MOL    H4939943   1.946   2.798   6.202 -1.7060 -1.0034  0.4335
  328MOL    C5039944   1.998   2.784   6.407 -0.0538  0.3201  0.1994
  328MOL    C5139945   1.877   2.703   6.459  0.2391 -0.0699  0.7741
  328MOL    H5239946   2.088   2.722   6.399 -1.0394 -0.9333 -1.4195
  328MOL    H5339947   2.025   2.854   6.486 -0.9896  1.8388 -0.7967
  328MOL    H5439948   1.799   2.777   6.477  1.3853  1.0986  1.1067
  328MOL    H5539949   1.849   2.626   6.388 -2.4124  1.6745 -0.1368
  328MOL    C5639950   1.916   2.643   6.598 -0.2480 -0.5270 -0.3769
  328MOL    C5739951   1.799   2.565   6.653  0.7926 -0.4645  0.3102
  328MOL    H5839952   2.000   2.573   6.586  0.2615 -0.0731  0.5051
  328MOL    H5939953   1.954   2.725   6.659  0.8980  0.7975 -2.8217
  328MOL    H6039954   1.716   2.635   6.662  1.3973  0.2460  0.4285
  328MOL    H6139955   1.767   2.480   6.593 -1.0777 -0.8253  1.7617
  328MOL    C6239956   1.833   2.511   6.786 -0.3501 -0.3757  0.0041
  328MOL    C6339957   1.707   2.468   6.862 -0.1403 -0.1927 -0.5738
  328MOL    H6439958   1.896   2.425   6.765 -0.9276 -0.6237 -0.7178
  328MOL    H6539959   1.885   2.581   6.852 -0.0343 -1.1367  0.5688
  328MOL    H6639960   1.631   2.546   6.862 -1.4853 -1.4349  1.2955
  328MOL    H6739961   1.646   2.394   6.810  1.1694 -0.3104 -1.9702
  328MOL    C6839962   1.743   2.414   6.997  0.2940 -0.1928 -0.2867
  328MOL    C6939963   1.639   2.330   7.075 -0.4799 -0.2821 -0.2634
  328MOL    H7039964   1.830   2.349   6.984  1.0575  0.7128  0.2081
  328MOL    H7139965   1.780   2.494   7.061  1.6261 -2.1310  1.4609
  328MOL    H7239966   1.540   2.374   7.067  0.1295  1.3042  0.6938
  328MOL    H7339967   1.622   2.236   7.023 -1.4861  0.9328 -2.1447
  328MOL    C7439968   1.672   2.296   7.224  0.3642 -0.3928  0.1195
  328MOL    C7539969   1.593   2.175   7.283 -0.7361 -0.0821  0.2731
  328MOL    H7639970   1.777   2.265   7.219 -0.5132 -3.1998 -2.4488
  328MOL    H7739971   1.657   2.386   7.284  0.4913  0.6953 -1.4380
  328MOL    H7839972   1.495   2.222   7.299 -1.1272 -0.7658 -0.0794
  328MOL    H7939973   1.593   2.096   7.207 -1.1815 -0.5556  0.7610
  328MOL    C8039974   1.652   2.125   7.422  0.0492  0.6002 -0.4163
  328MOL    C8139975   1.543   2.030   7.479  0.1218 -0.2109  0.3524
  328MOL    H8239976   1.746   2.075   7.401  0.1395  1.1355 -1.3075
  328MOL    H8339977   1.665   2.210   7.490  1.1021  0.7350 -0.7812
  328MOL    H8439978   1.449   2.074   7.511 -1.5204 -2.9040 -0.5953
  328MOL    H8539979   1.521   1.961   7.397  0.7789 -0.6346  0.5240
  328MOL    C8639980   1.597   1.952   7.593 -0.2111  0.2122  0.0628
  328MOL    C8739981   1.480   1.860   7.655 -0.8286 -0.0632  0.6460
  328MOL    H8839982   1.672   1.887   7.549 -1.7255 -0.4106 -1.6664
  328MOL    H8939983   1.625   2.019   7.674 -0.3038 -1.2423  1.3415
  328MOL    H9039984   1.391   1.923   7.664  0.1615  1.3911  0.5198
  328MOL    H9139985   1.459   1.795   7.570  0.9765  2.1199 -1.5360
  328MOL    C9239986   1.515   1.775   0.081  0.1663 -0.0851 -0.1393
  328MOL    C9339987   1.653   1.701   0.070 -0.3302 -0.1019 -0.0824
  328MOL    H9439988   1.513   1.844   0.165  0.6305 -0.6619  0.3469
  328MOL    H9539989   1.434   1.703   0.091 -1.0087  1.4373  1.7081
  328MOL    H9639990   1.665   1.636   7.675 -1.7820 -0.0572 -0.3391
  328MOL    H9739991   1.734   1.773   0.063  0.9225 -1.3841  1.0628
  328MOL    C9839992   1.692   1.618   0.195 -0.1440 -0.1266  0.3475
  328MOL    C9939993   1.843   1.589   0.207 -0.1571 -0.2332  0.2038
  328MOL   H10039994   1.672   1.677   0.285  2.0588  3.0806 -1.1557
  328MOL   H10139995   1.635   1.525   0.197  0.2649 -0.3578  1.1793
  328MOL   H10239996   1.886   1.542   0.119 -0.0576  1.0496 -0.4479
  328MOL   H10339997   1.910   1.674   0.215  0.0162 -0.4597  1.2607
  328MOL   C10439998   1.871   1.503   0.332 -0.1436 -0.6986 -0.3086
  328MOL   C10539999   2.029   1.492   0.354  0.3905  0.0855  0.6715
  328MOL   H10640000   1.826   1.561   0.412  1.5883 -1.9459  1.6400
  328MOL   H10740001   1.834   1.400   0.329  1.2539 -1.3117  1.9338
  328MOL   H10840002   2.074   1.454   0.262  1.4615  2.9251 -0.0529
  328MOL   H10940003   2.068   1.592   0.371 -0.6638  0.4891  0.7782
  328MOL   C11040004   2.065   1.397   0.466 -1.0940 -0.3138 -0.4682
  328MOL   C11140005   2.217   1.390   0.486  0.9802 -0.1737 -0.2268
  328MOL   H11240006   2.016   1.422   0.560 -1.5433  2.5947 -1.4130
  328MOL   H11340007   2.029   1.297   0.443  1.5297 -1.9840  2.2573
  328MOL   H11440008   2.260   1.359   0.391  0.1322 -1.4316 -0.2153
  328MOL   H11540009   2.257   1.488   0.509 -0.0796  0.3646 -0.6436
  328MOL   C11640010   2.254   1.288   0.591  0.5907 -0.1118 -0.4179
  328MOL   C11740011   2.403   1.266   0.584  0.3546 -0.0032 -0.5601
  328MOL   H11840012   2.217   1.311   0.691  1.2012  2.7587 -0.8051
  328MOL   H11940013   2.202   1.196   0.567  0.2919 -0.4701  1.4944
  328MOL   H12040014   2.420   1.225   0.485 -0.1429  1.5134 -1.2974
  328MOL   H12140015   2.466   1.355   0.588  0.7616 -0.2963 -0.4740
  328MOL   H12240016   2.436   1.193   0.658  1.2717  1.0803  0.1268
  329MOL     C140017   6.440   4.695   7.635  0.1126  0.1171 -0.3435
  329MOL     C240018   6.406   4.845   7.569 -0.4221 -0.5952 -0.4876
  329MOL     H340019   6.464   4.619   7.562  0.1649 -1.6697  1.4786
  329MOL     H440020   6.345   4.668   7.681 -0.0926 -1.5691 -1.7360
  329MOL     H540021   6.319   4.850   7.502 -0.7907 -0.7382 -0.0219
  329MOL     H640022   6.391   4.915   7.651 -0.5425 -1.2782  0.0774
  329MOL     H740023   6.515   4.683   0.021  0.0784 -0.7987 -0.4473
  329MOL     C840024   6.511   4.907   7.485  0.2891  0.3246  0.0841
  329MOL     C940025   6.619   4.940   7.584 -0.2892  0.3786  0.4516
  329MOL    H1040026   6.556   4.839   7.413 -0.6593 -1.2093  0.9104
  329MOL    H1140027   6.476   5.002   7.444 -0.5866  0.9479  2.1726
  329MOL    H1240028   6.576   5.000   7.665 -1.4013  2.2735 -1.4592
  329MOL    H1340029   6.667   4.852   7.624  0.5749 -0.0377 -1.4539
  329MOL    C1440030   6.725   5.029   7.529 -0.0710  0.4617  0.3161
  329MOL    C1540031   6.843   5.037   7.632 -0.3752 -0.0887 -0.1714
  329MOL    H1640032   6.752   4.969   7.443 -2.1210  3.7456 -2.7698
  329MOL    H1740033   6.691   5.130   7.505 -1.1950  0.1283  0.4888
  329MOL    H1840034   6.801   5.058   0.038 -0.9461 -0.9673 -0.2237
  329MOL    H1940035   6.901   4.946   7.651 -0.0486  0.3213  0.8541
  329MOL    C2040036   6.939   5.146   7.606 -0.9518  0.0992 -0.2072
  329MOL    C2140037   7.018   5.130   7.478  0.6607  0.5580 -0.3049
  329MOL    H2240038   6.880   5.238   7.608 -3.3998 -1.3819 -2.2649
  329MOL    H2340039   7.007   5.155   7.691 -0.9585  0.9685 -0.2885
  329MOL    H2440040   7.062   5.031   7.489 -4.3834 -2.1214 -2.8276
  329MOL    H2540041   6.970   5.135   7.381  0.9795  0.2654 -0.4778
  329MOL    C2640042   7.140   5.218   7.446  0.4693 -0.1905  0.1584
  329MOL    C2740043   7.220   5.185   7.321 -0.7306 -0.3961  0.7001
  329MOL    H2840044   7.118   5.325   7.437  1.5551  0.1585  1.4642
  329MOL    H2940045   7.196   5.210   7.539 -2.7350  1.0857  2.3148
  329MOL    H3040046   7.260   5.084   7.333  0.3911  0.1431  1.6215
  329MOL    H3140047   7.160   5.171   7.232 -0.0666  1.9095 -0.1378
  329MOL    C3240048   7.312   5.300   7.284  0.8796 -0.7724  1.1385
  329MOL    C3340049   7.447   5.329   7.347 -0.0406  0.9061  0.1164
  329MOL    H3440050   7.325   5.302   7.176  2.4230 -0.1775  1.3186
  329MOL    H3540051   7.254   5.392   7.291  1.9182 -0.0922  1.0334
  329MOL    H3640052   7.491   5.424   7.316 -0.6907 -0.0152 -3.8239
  329MOL    H3740053   7.433   5.340   7.455  3.2416  2.7818  0.4197
  329MOL    C3840054   7.550   5.218   7.307  0.6658  0.3563 -0.1580
  329MOL    C3940055   7.677   5.218   7.389  0.2312  0.1004  0.1072
  329MOL    H4040056   7.498   5.123   7.316 -0.6442  1.3238  3.0274
  329MOL    H4140057   7.575   5.241   7.203  1.7461  2.3717  0.5318
  329MOL    H4240058   0.025   5.316   7.415 -0.8652  0.6931 -0.4330
  329MOL    H4340059   7.645   5.186   7.487  1.9677  0.6637  0.8871
  329MOL    C4440060   0.090   5.109   7.344 -0.1205 -0.4469 -0.2863
  329MOL    C4540061   0.217   5.115   7.421  0.2001  0.4941  0.1649
  329MOL    H4640062   0.036   5.015   7.354 -1.3577  0.0598 -1.8820
  329MOL    H4740063   0.108   5.123   7.237 -2.2210  1.1175 -0.4645
  329MOL    H4840064   0.302   5.065   7.373  1.2309  1.2677  1.1622
  329MOL    H4940065   0.249   5.219   7.412  1.4982 -0.0478 -2.0427
  329MOL    C5040066   0.210   5.084   7.569  0.4291 -0.8899  0.8907
  329MOL    C5140067   0.337   5.106   7.648 -0.0713 -0.3366 -0.6013
  329MOL    H5240068   0.135   5.149   7.615  2.1466 -0.5996  3.4099
  329MOL    H5340069   0.170   4.985   7.591  0.8898 -1.1827  0.4063
  329MOL    H5440070   0.345   5.034   0.037  1.6797  0.5577  0.0444
  329MOL    H5540071   0.418   5.077   7.581  0.1432 -1.6016  0.1866
  329MOL    C5640072   0.368   5.249   0.006 -0.0439  0.2946 -0.1376
  329MOL    C5740073   0.498   5.248   0.090  0.3116 -0.0833 -0.2361
  329MOL    H5840074   0.382   5.321   7.617 -0.0699  0.3358 -0.1047
  329MOL    H5940075   0.287   5.293   0.065  0.8247  2.0003 -0.1942
  329MOL    H6040076   0.504   5.158   0.151  1.7167 -0.8532 -1.4565
  329MOL    H6140077   0.573   5.239   0.011 -0.3131  1.1871 -0.9950
  329MOL    C6240078   0.525   5.376   0.177  0.2847  0.3157 -0.2624
  329MOL    C6340079   0.648   5.368   0.274  0.5391  0.3140  0.3266
  329MOL    H6440080   0.533   5.462   0.110  0.4227 -1.2180 -2.2755
  329MOL    H6540081   0.438   5.402   0.237 -0.2590  0.1078 -0.9652
  329MOL    H6640082   0.620   5.313   0.363  0.6851 -0.8638 -0.3531
  329MOL    H6740083   0.719   5.311   0.214 -2.2297  0.1683 -2.9593
  329MOL    C6840084   0.702   5.505   0.319  0.9521 -0.1194 -0.6323
  329MOL    C6940085   0.819   5.504   0.411 -0.0752  0.3927  0.2458
  329MOL    H7040086   0.725   5.570   0.235  0.8825  0.9473  0.1544
  329MOL    H7140087   0.623   5.557   0.374  1.0157  1.8334 -2.3483
  329MOL    H7240088   0.796   5.421   0.479  2.3992  1.8751  2.9757
  329MOL    H7340089   0.905   5.474   0.351 -0.1098  0.1263  0.3261
  329MOL    C7440090   0.838   5.633   0.487 -0.9958 -0.4405 -0.3660
  329MOL    C7540091   0.983   5.645   0.542  0.1833 -0.0921  0.9816
  329MOL    H7640092   0.821   5.722   0.426 -1.5449  1.6638  2.7094
  329MOL    H7740093   0.766   5.637   0.569 -0.2125 -0.0543  0.3107
  329MOL    H7840094   0.995   5.571   0.621  2.7484 -0.9554 -0.1450
  329MOL    H7940095   1.048   5.607   0.463 -0.2387 -1.7180  1.3871
  329MOL    C8040096   1.016   5.791   0.596 -0.4187 -0.1085 -0.5607
  329MOL    C8140097   1.160   5.802   0.652  0.8849 -0.4103 -0.4191
  329MOL    H8240098   1.005   5.869   0.521 -0.6847 -0.0413 -0.4556
  329MOL    H8340099   0.937   5.810   0.670  0.3587 -0.8184  0.4634
  329MOL    H8440100   1.169   5.714   0.714  1.3196  1.0069  1.5862
  329MOL    H8540101   1.227   5.790   0.567 -1.4585 -0.4888 -2.3288
  329MOL    C8640102   1.184   5.939   0.716 -0.2178 -0.4316  0.7739
  329MOL    C8740103   1.334   5.971   0.734  0.0979  0.5904  0.1998
  329MOL    H8840104   1.142   6.026   0.665 -1.8717 -0.2573  2.3643
  329MOL    H8940105   1.124   5.933   0.807 -0.6537  1.4780  0.6384
  329MOL    H9040106   1.379   5.888   0.788 -1.5280  0.7235  1.7903
  329MOL    H9140107   1.389   5.981   0.640  2.2414  0.3888  1.4099
  329MOL    C9240108   1.381   6.085   0.819  0.0458 -0.4186  0.2639
  329MOL    C9340109   1.322   6.095   0.957 -0.1901 -0.0790 -0.2609
  329MOL    H9440110   1.489   6.072   0.827 -0.2805 -3.1448  0.6021
  329MOL    H9540111   1.365   6.176   0.760  2.4814 -0.1290  0.0227
  329MOL    H9640112   1.222   6.139   0.964  0.1280  0.7827 -1.1079
  329MOL    H9740113   1.317   5.992   0.992 -0.5736 -0.2011 -0.6710
  329MOL    C9840114   1.411   6.177   1.052 -0.0068  0.6577 -0.2044
  329MOL    C9940115   1.366   6.174   1.200 -0.4292 -0.4518 -0.3939
  329MOL   H10040116   1.507   6.126   1.040 -0.1141  0.2696  0.5402
  329MOL   H10140117   1.424   6.280   1.020 -1.4847  0.7047 -0.6471
  329MOL   H10240118   1.335   6.271   1.240  2.0275  0.7441 -1.3011
  329MOL   H10340119   1.283   6.106   1.221 -0.9608  0.1112 -0.6291
  329MOL   C10440120   1.483   6.142   1.296  0.5652  0.9116  0.3596
  329MOL   C10540121   1.436   6.123   1.442 -0.4093 -0.4860  0.0256
  329MOL   H10640122   1.538   6.052   1.266 -1.6105 -0.4976  0.5051
  329MOL   H10740123   1.557   6.220   1.280  0.4343  0.6306 -1.7506
  329MOL   H10840124   1.394   6.222   1.458 -2.5220 -1.4518  0.5764
  329MOL   H10940125   1.359   6.046   1.450  0.0381 -0.8466  1.0409
  329MOL   C11040126   1.546   6.111   1.545  0.1648 -0.1118  0.0207
  329MOL   C11140127   1.627   5.986   1.547  0.2151  0.3589 -0.3286
  329MOL   H11240128   1.623   6.187   1.539  1.6293 -1.4275  1.3359
  329MOL   H11340129   1.495   6.129   1.640 -0.6932 -0.9392 -0.2712
  329MOL   H11440130   1.560   5.900   1.543  1.7016 -0.8531  0.1082
  329MOL   H11540131   1.680   5.988   1.452  3.3349  3.0285  1.3574
  329MOL   C11640132   1.731   5.972   1.668  0.4504  0.1479  0.5284
  329MOL   C11740133   1.760   5.830   1.685 -0.1943 -0.2634  0.7666
  329MOL   H11840134   1.818   6.032   1.643  2.0428 -1.7445  1.4552
  329MOL   H11940135   1.675   6.015   1.752 -0.4498 -0.0841  0.0490
  329MOL   H12040136   1.817   5.814   1.777  1.0808 -0.4271 -0.0386
  329MOL   H12140137   1.674   5.765   1.704  0.3546 -0.5748  2.2057
  329MOL   H12240138   1.818   5.789   1.602 -1.1491 -0.6336  0.2655
  330MOL     C140139   5.820   2.417   5.918  0.4066 -0.2277  0.2319
  330MOL     C240140   5.779   2.536   5.825  0.4050 -0.3909  0.6781
  330MOL     H340141   5.816   2.458   6.019 -0.4221 -0.0376  0.1247
  330MOL     H440142   5.920   2.377   5.903 -0.0205 -0.9721 -0.7075
  330MOL     H540143   5.760   2.494   5.726  0.9163 -0.8208  0.7569
  330MOL     H640144   5.687   2.583   5.858  0.6668 -0.1095  1.0083
  330MOL     H740145   5.759   2.328   5.905  1.2529 -0.6535 -0.9141
  330MOL     C840146   5.892   2.643   5.820  0.5809  0.4267  0.2355
  330MOL     C940147   5.981   2.630   5.694 -0.6583  0.2821 -0.2121
  330MOL    H1040148   5.848   2.742   5.813  0.9833  0.5891  0.0061
  330MOL    H1140149   5.955   2.643   5.908  0.1455  0.7441  0.5466
  330MOL    H1240150   6.044   2.542   5.707 -1.8286 -0.4474  0.6408
  330MOL    H1340151   5.930   2.601   5.602 -0.3201  1.3526 -0.7487
  330MOL    C1440152   6.068   2.758   5.676  0.1117 -0.4699  0.3705
  330MOL    C1540153   6.136   2.763   5.540 -0.3471  0.1711  0.4804
  330MOL    H1640154   6.016   2.852   5.695 -1.7446 -1.7967  2.0095
  330MOL    H1740155   6.146   2.765   5.752  0.8205 -0.8646 -0.3079
  330MOL    H1840156   6.173   2.663   5.517  0.3631  0.6958 -0.7144
  330MOL    H1940157   6.060   2.775   5.463 -0.9944 -3.0346  0.5243
  330MOL    C2040158   6.242   2.870   5.532  0.1869 -0.0329  0.2809
  330MOL    C2140159   6.302   2.880   5.393  0.5349  0.0425 -0.9385
  330MOL    H2240160   6.209   2.971   5.556 -2.4993 -1.3169  2.3334
  330MOL    H2340161   6.329   2.837   5.589 -0.6912  0.9467  2.2786
  330MOL    H2440162   6.217   2.895   5.327  1.2947 -0.7088 -2.1121
  330MOL    H2540163   6.361   2.972   5.387 -1.4197  1.3089 -0.8840
  330MOL    C2640164   6.387   2.758   5.353 -0.8273 -0.4480 -0.6263
  330MOL    C2740165   6.413   2.768   5.205 -0.3591 -0.3845  1.2116
  330MOL    H2840166   6.477   2.754   5.414 -2.2469 -0.8653  1.4905
  330MOL    H2940167   6.333   2.666   5.374 -1.5309  0.2616  0.7659
  330MOL    H3040168   6.431   2.672   5.157  1.2303  0.7157 -0.4814
  330MOL    H3140169   6.322   2.799   5.154  1.0491  0.1913 -1.0080
  330MOL    C3240170   6.529   2.857   5.169  0.1852  0.0144  0.4066
  330MOL    C3340171   6.539   2.865   5.010 -0.7766 -0.0914 -0.3582
  330MOL    H3440172   6.508   2.955   5.212  0.1494 -0.6992  2.0799
  330MOL    H3540173   6.623   2.825   5.214  1.0357 -1.0914 -2.0518
  330MOL    H3640174   6.510   2.777   4.953 -0.6586  0.4544 -1.2683
  330MOL    H3740175   6.468   2.933   4.963  0.0666  0.5078 -0.7824
  330MOL    C3840176   6.688   2.883   4.963  0.3816  0.1212 -0.1459
  330MOL    C3940177   6.682   2.907   4.814 -0.4382  1.0243 -0.1765
  330MOL    H4040178   6.746   2.961   5.013 -1.7538  0.8124  1.3479
  330MOL    H4140179   6.738   2.787   4.974  1.1737  0.5800  0.3526
  330MOL    H4240180   6.623   2.833   4.761 -1.2399  1.1167  0.5865
  330MOL    H4340181   6.630   2.999   4.787 -0.4325  1.5619  1.6083
  330MOL    C4440182   6.819   2.922   4.752 -0.1257 -0.3903  0.4065
  330MOL    C4540183   6.813   2.896   4.599 -0.0612 -0.4539  0.6950
  330MOL    H4640184   6.855   3.025   4.758  0.8297 -0.7227  0.5906
  330MOL    H4740185   6.900   2.861   4.792  0.0594  0.1811  0.9116
  330MOL    H4840186   6.767   2.800   4.580  1.3492 -1.0932  0.4702
  330MOL    H4940187   6.754   2.976   4.553  1.0082 -0.3883 -0.5809
  330MOL    C5040188   6.958   2.900   4.535  0.4858 -0.0449  0.2367
  330MOL    C5140189   6.952   2.855   4.387  0.6482 -0.0011  0.1444
  330MOL    H5240190   6.994   3.003   4.536  0.1297  0.1092 -1.3328
  330MOL    H5340191   7.030   2.831   4.580 -0.5165 -0.8892  0.5797
  330MOL    H5440192   7.057   2.826   4.378  1.1284  0.0995  4.4384
  330MOL    H5540193   6.900   2.761   4.369 -1.2709  0.9701  0.4710
  330MOL    C5640194   6.923   2.961   4.280 -0.8137 -0.1193  0.0368
  330MOL    C5740195   6.939   2.926   4.134  0.4729 -0.1554 -0.0624
  330MOL    H5840196   6.824   2.998   4.306  1.1336  2.9092  3.7270
  330MOL    H5940197   6.983   3.051   4.293 -0.5761 -0.1755 -0.6387
  330MOL    H6040198   7.046   2.927   4.114  0.5507  2.0668  0.3813
  330MOL    H6140199   6.899   2.832   4.096  0.7105 -0.8183  1.2958
  330MOL    C6240200   6.880   3.035   4.035 -0.4164  0.0558 -0.6088
  330MOL    C6340201   6.865   3.001   3.884  0.6776 -0.3519 -0.3817
  330MOL    H6440202   6.788   3.082   4.067 -1.7995 -0.9726 -2.9485
  330MOL    H6540203   6.943   3.123   4.042  0.5786 -0.6712 -0.1808
  330MOL    H6640204   6.958   3.028   3.835 -0.0954  0.6081 -1.3465
  330MOL    H6740205   6.843   2.897   3.859 -0.2126 -0.1905 -0.3127
  330MOL    C6840206   6.761   3.084   3.808 -0.8687  0.9128 -0.0470
  330MOL    C6940207   6.736   3.029   3.663  0.2832  0.9596 -0.5509
  330MOL    H7040208   6.667   3.103   3.859 -0.5024  1.1896  0.5366
  330MOL    H7140209   6.796   3.187   3.798  0.0486  0.8075  1.8863
  330MOL    H7240210   6.828   3.039   3.606 -0.3566  2.6768 -1.3258
  330MOL    H7340211   6.703   2.926   3.671  1.9914  0.4516  0.0763
  330MOL    C7440212   6.633   3.104   3.584  0.0897  0.4685  0.1799
  330MOL    C7540213   6.680   3.247   3.540  0.2300  0.9400  0.4304
  330MOL    H7640214   6.617   3.051   3.489 -1.5914  2.7241 -0.8298
  330MOL    H7740215   6.537   3.088   3.634  0.3302  0.7423  0.7220
  330MOL    H7840216   6.716   3.302   3.627  1.5632 -0.8159  1.0179
  330MOL    H7940217   6.755   3.253   3.461  0.9123 -0.2127  0.9727
  330MOL    C8040218   6.570   3.321   3.471  0.2293  0.1467  0.1845
  330MOL    C8140219   6.588   3.469   3.455  0.7921  0.4002  0.4341
  330MOL    H8240220   6.548   3.272   3.376  2.2616 -1.5428  0.5348
  330MOL    H8340221   6.482   3.297   3.531 -0.8988  2.0888 -0.6517
  330MOL    H8440222   6.613   3.521   3.548  0.4695 -0.9767  1.2957
  330MOL    H8540223   6.664   3.499   3.382  0.4966  0.1270  0.0176
  330MOL    C8640224   6.458   3.534   3.383  0.1998 -0.0523 -0.0678
  330MOL    C8740225   6.474   3.684   3.346 -0.3815 -1.0574  0.7345
  330MOL    H8840226   6.423   3.480   3.295  1.5293  0.4107 -0.9025
  330MOL    H8940227   6.386   3.515   3.462  0.9945 -2.6796  0.0703
  330MOL    H9040228   6.571   3.698   3.298 -1.0331 -1.1161 -0.6341
  330MOL    H9140229   6.410   3.722   3.266  0.1334  0.7882  1.1755
  330MOL    C9240230   6.453   3.779   3.468  0.1962 -0.0391 -0.0591
  330MOL    C9340231   6.518   3.920   3.456  0.0988 -0.7533 -0.4814
  330MOL    H9440232   6.353   3.782   3.511 -0.4778 -0.7334 -1.5273
  330MOL    H9540233   6.500   3.723   3.549  0.9547 -1.4252 -1.4345
  330MOL    H9640234   6.611   3.904   3.401 -0.0059 -0.2342 -0.8145
  330MOL    H9740235   6.461   3.990   3.394 -0.0486 -0.6945 -0.2772
  330MOL    C9840236   6.548   3.983   3.597  0.2540  0.2463 -1.0708
  330MOL    C9940237   6.647   4.101   3.600  0.1245 -0.3602 -0.1247
  330MOL   H10040238   6.456   4.021   3.643  0.5191  0.1254 -0.4429
  330MOL   H10140239   6.589   3.909   3.666 -2.2784 -0.1238  0.0897
  330MOL   H10240240   6.634   4.147   3.698  2.1910  0.1666 -0.0679
  330MOL   H10340241   6.739   4.048   3.574 -0.1173 -0.0882 -1.5726
  330MOL   C10440242   6.609   4.210   3.493 -0.3839 -0.3856  0.0843
  330MOL   C10540243   6.695   4.337   3.504 -0.3931 -0.7031 -0.6206
  330MOL   H10640244   6.605   4.170   3.392  1.0084 -0.5485  0.0831
  330MOL   H10740245   6.508   4.242   3.521 -0.4922 -0.6482 -0.0124
  330MOL   H10840246   6.651   4.428   3.462 -1.2020 -0.4453  0.7829
  330MOL   H10940247   6.712   4.363   3.608  1.2318  0.8548 -1.2340
  330MOL   C11040248   6.823   4.310   3.426 -0.0600 -0.6663 -0.0483
  330MOL   C11140249   6.911   4.438   3.410  0.7679 -0.0852 -0.2866
  330MOL   H11240250   6.888   4.243   3.481  0.8667  1.6221  1.7524
  330MOL   H11340251   6.810   4.268   3.326  1.3502 -0.8597 -0.1548
  330MOL   H11440252   6.861   4.528   3.374  0.3822  0.7993  2.3216
  330MOL   H11540253   6.945   4.461   3.511 -0.8317 -1.7113  0.6414
  330MOL   C11640254   7.039   4.416   3.327  0.1618 -0.4903  0.2107
  330MOL   C11740255   7.011   4.390   3.176  0.1856 -0.9415  0.3997
  330MOL   H11840256   7.096   4.509   3.334  1.7850 -1.4564 -0.1577
  330MOL   H11940257   7.104   4.343   3.375 -1.0631 -1.4001  0.5014
  330MOL   H12040258   6.964   4.471   3.121 -0.2880  0.4990  2.8345
  330MOL   H12140259   7.098   4.360   3.118 -0.5661 -0.2705 -1.0962
  330MOL   H12240260   6.951   4.300   3.180  1.5803 -1.9624 -0.9355
  331MOL     C140261   2.263   1.733   0.127  0.0360  0.1874  0.4411
  331MOL     C240262   2.327   1.648   0.237  0.2241  0.7307 -0.9010
  331MOL     H340263   2.155   1.749   0.131  0.0883  0.3191  1.5551
  331MOL     H440264   2.293   1.711   0.025  0.6394  0.7641  0.4928
  331MOL     H540265   2.294   1.660   0.340 -0.0757  0.1676 -0.9293
  331MOL     H640266   2.285   1.549   0.216 -1.0376  1.1432 -0.3544
  331MOL     H740267   2.310   1.831   0.135  0.4097  0.1892 -1.5908
  331MOL     C840268   2.483   1.640   0.229 -0.2955 -0.0142  0.0824
  331MOL     C940269   2.546   1.519   0.295 -0.1308 -0.3227 -0.0928
  331MOL    H1040270   2.526   1.644   0.129  0.0758 -0.6581  0.2133
  331MOL    H1140271   2.523   1.733   0.269  0.1058 -0.0693 -0.1924
  331MOL    H1240272   2.532   1.525   0.403 -1.0392 -0.7768 -0.1808
  331MOL    H1340273   2.505   1.426   0.256 -0.9637 -0.1128  0.2856
  331MOL    C1440274   2.702   1.521   0.278  0.2821 -0.2884  0.0895
  331MOL    C1540275   2.768   1.408   0.354  0.8122 -0.0665  0.5767
  331MOL    H1640276   2.726   1.520   0.172  0.7694 -0.2406  0.1987
  331MOL    H1740277   2.743   1.615   0.314 -0.0858 -1.2452  3.2041
  331MOL    H1840278   2.728   1.407   0.455  0.2726 -0.8733  0.3577
  331MOL    H1940279   2.723   1.319   0.309 -1.0523  0.3802  1.4943
  331MOL    C2040280   2.921   1.408   0.363  0.6259  0.3705 -0.1604
  331MOL    C2140281   2.968   1.293   0.448 -0.2655 -0.6972 -1.1334
  331MOL    H2240282   2.967   1.418   0.265  0.7549  3.6990  0.1739
  331MOL    H2340283   2.953   1.497   0.417  0.9711 -1.5089  2.8619
  331MOL    H2440284   3.073   1.307   0.473 -0.6325  0.9786 -0.4577
  331MOL    H2540285   2.919   1.295   0.546  1.7188  1.0253 -0.1501
  331MOL    C2640286   2.953   1.156   0.381  0.1572 -0.1848  0.5893
  331MOL    C2740287   2.991   1.037   0.467 -0.8237 -0.0356 -0.4479
  331MOL    H2840288   2.852   1.137   0.343  1.3475 -1.6158 -1.9071
  331MOL    H2940289   3.015   1.148   0.292  0.3512 -2.7059  0.9213
  331MOL    H3040290   3.008   0.945   0.411 -0.5396 -0.8207  0.9067
  331MOL    H3140291   3.088   1.059   0.511 -0.3385  2.2366 -2.5487
  331MOL    C3240292   2.898   1.000   0.580 -0.7280  0.1988 -0.1838
  331MOL    C3340293   2.773   0.934   0.538 -0.0207 -0.1890  0.7513
  331MOL    H3440294   2.949   0.919   0.632 -0.4449 -0.1054 -0.9231
  331MOL    H3540295   2.876   1.087   0.641  4.5741  0.1292  2.1304
  331MOL    H3640296   2.735   0.995   0.456  3.0944  0.1401 -0.5216
  331MOL    H3740297   2.810   0.837   0.504  0.8691  1.7779 -4.4473
  331MOL    C3840298   2.670   0.919   0.655 -0.2878 -0.1691 -0.4846
  331MOL    C3940299   2.532   0.866   0.614  0.0391 -0.5250 -0.7028
  331MOL    H4040300   2.712   0.867   0.741  1.3148 -2.1936 -2.4310
  331MOL    H4140301   2.662   1.017   0.701 -0.4387 -0.0013 -0.8619
  331MOL    H4240302   2.489   0.929   0.536 -0.2797  0.5021  0.3008
  331MOL    H4340303   2.543   0.763   0.579 -1.7906 -0.3197 -1.9833
  331MOL    C4440304   2.427   0.881   0.733  0.6684  0.2517  0.4959
  331MOL    C4540305   2.289   0.847   0.683 -0.0521 -0.6960  0.1562
  331MOL    H4640306   2.459   0.814   0.813 -0.6753 -0.4909  0.4136
  331MOL    H4740307   2.441   0.977   0.784  1.8498 -0.3616  1.3513
  331MOL    H4840308   2.267   0.936   0.624 -1.2426 -1.0283  0.0785
  331MOL    H4940309   2.296   0.757   0.622 -1.1715 -0.3444 -0.5059
  331MOL    C5040310   2.187   0.846   0.798  0.0556 -0.3668 -0.7874
  331MOL    C5140311   2.054   0.908   0.743  0.1885 -0.1344 -0.6158
  331MOL    H5240312   2.159   0.744   0.825 -1.5950  0.1066 -0.6307
  331MOL    H5340313   2.216   0.913   0.878 -1.2368  2.3079 -2.4845
  331MOL    H5440314   2.078   1.007   0.704  1.6838 -0.4039 -0.4250
  331MOL    H5540315   2.030   0.846   0.657  0.6257  0.9363 -1.5304
  331MOL    C5640316   1.935   0.913   0.840  0.6338  0.7708 -0.5574
  331MOL    C5740317   1.808   0.969   0.778  0.1733 -0.3015  0.3917
  331MOL    H5840318   1.917   0.815   0.883  0.1267  0.7860 -0.7320
  331MOL    H5940319   1.964   0.972   0.926 -0.9416  1.9231 -0.7884
  331MOL    H6040320   1.825   1.068   0.736 -0.6342 -0.1045  0.5228
  331MOL    H6140321   1.766   0.900   0.704 -0.7093 -0.3555  0.9297
  331MOL    C6240322   1.694   1.000   0.887 -0.3047  0.0298  0.3877
  331MOL    C6340323   1.557   1.040   0.830 -0.2120 -0.1822 -0.4863
  331MOL    H6440324   1.675   0.909   0.944  2.8854 -0.7023  0.4037
  331MOL    H6540325   1.741   1.065   0.961 -1.9427  2.2170 -0.4299
  331MOL    H6640326   1.491   1.079   0.907 -0.6607 -0.6559 -0.6278
  331MOL    H6740327   1.567   1.123   0.761  3.0942 -0.3491 -0.3083
  331MOL    C6840328   1.480   0.928   0.761 -0.0746 -0.2291 -0.2645
  331MOL    C6940329   1.416   0.817   0.859 -0.3584 -0.7082  0.1981
  331MOL    H7040330   1.398   0.985   0.717 -0.4778 -0.7647 -0.2105
  331MOL    H7140331   1.542   0.889   0.680  0.0792  0.8566 -0.6886
  331MOL    H7240332   1.492   0.753   0.902 -0.6618  0.9394  3.3047
  331MOL    H7340333   1.366   0.877   0.935  0.9021  0.0289  0.4585
  331MOL    C7440334   1.318   0.729   0.776 -0.2277  0.4273  0.6201
  331MOL    C7540335   1.235   0.641   0.870  0.0998  0.8675  0.0089
  331MOL    H7640336   1.254   0.799   0.722 -1.5616  0.0794  1.7126
  331MOL    H7740337   1.367   0.672   0.698  0.4631  1.5574  0.2172
  331MOL    H7840338   1.292   0.568   0.928 -0.9315 -0.2908 -0.3881
  331MOL    H7940339   1.191   0.711   0.941  0.5505  0.2384  0.9156
  331MOL    C8040340   1.117   0.571   0.796  0.0282  0.0451 -0.1051
  331MOL    C8140341   1.156   0.462   0.699 -0.3384 -0.1269  0.2301
  331MOL    H8240342   1.044   0.538   0.870  1.3393 -1.2060  0.6641
  331MOL    H8340343   1.063   0.643   0.735 -0.8954 -0.9255 -0.4443
  331MOL    H8440344   1.219   0.493   0.616  0.4580 -2.3181 -0.0031
  331MOL    H8540345   1.217   0.390   0.754  1.2116  0.7647 -0.2931
  331MOL    C8640346   1.026   0.389   0.646 -1.0185 -0.8346 -0.4876
  331MOL    C8740347   0.970   0.310   0.760 -0.6726 -0.3328 -0.0311
  331MOL    H8840348   0.963   0.453   0.584 -0.3622 -1.3103 -1.6666
  331MOL    H8940349   1.066   0.330   0.563  4.3412 -0.3605  1.6075
  331MOL    H9040350   1.018   0.333   0.855 -0.9216 -3.0908  0.8237
  331MOL    H9140351   0.864   0.331   0.777 -0.8883 -1.1486 -0.2989
  331MOL    C9240352   0.989   0.159   0.739  0.7133 -0.0710  0.5811
  331MOL    C9340353   0.948   0.074   0.863 -0.3109  0.2779 -1.1121
  331MOL    H9440354   0.939   0.132   0.647  0.1371 -1.1343  1.2062
  331MOL    H9540355   1.098   0.156   0.732  0.8592 -0.6146  2.8379
  331MOL    H9640356   0.989   0.120   0.952  0.2661 -0.3340 -1.0631
  331MOL    H9740357   0.841   0.096   0.870  0.3761  3.3640  0.7854
  331MOL    C9840358   0.988   7.620   0.860 -0.3240  0.3898  0.7215
  331MOL    C9940359   1.121   7.592   0.934  1.3766  0.0971  0.0198
  331MOL   H10040360   0.916   7.558   0.913 -1.4872  0.8366 -0.3158
  331MOL   H10140361   0.986   7.581   0.758 -1.8519  0.0820  0.8705
  331MOL   H10240362   1.212   7.643   0.902  0.2979  0.7281 -2.1298
  331MOL   H10340363   1.112   7.627   1.037 -1.8034 -2.3322  0.6623
  331MOL   C10440364   1.148   7.445   0.935  0.4085  0.2514  0.4908
  331MOL   C10540365   1.302   7.408   0.957 -0.4481  0.8761 -0.5156
  331MOL   H10640366   1.093   7.396   1.015  0.2135 -0.3682 -0.0226
  331MOL   H10740367   1.118   7.410   0.837 -1.5268  1.7148  0.5322
  331MOL   H10840368   1.345   7.465   0.874 -0.1836  1.6959  0.1742
  331MOL   H10940369   1.349   7.444   1.049 -1.0932 -0.5457  0.3867
  331MOL   C11040370   1.351   7.264   0.925  0.2944 -0.4377  0.3795
  331MOL   C11140371   1.484   7.259   0.866  0.3476  0.0958  0.6615
  331MOL   H11240372   1.345   7.209   1.019  1.2882 -1.4396 -0.1227
  331MOL   H11340373   1.289   7.213   0.851 -0.1097  2.0454 -1.0529
  331MOL   H11440374   1.497   7.159   0.823 -0.3605  1.4067 -2.7851
  331MOL   H11540375   1.480   7.327   0.781  1.5802 -0.3232  0.2621
  331MOL   C11640376   1.609   7.306   0.936 -0.0496  0.2392  0.1930
  331MOL   C11740377   1.659   7.211   1.045 -0.8429 -0.7433 -1.0559
  331MOL   H11840378   1.685   7.356   0.876 -0.9379  1.1991 -0.1473
  331MOL   H11940379   1.574   7.397   0.984 -0.2667  0.2941 -0.0720
  331MOL   H12040380   1.711   7.118   1.022  1.4705  0.2060  0.0850
  331MOL   H12140381   1.738   7.257   1.105 -0.7531 -0.2235 -1.5615
  331MOL   H12240382   1.569   7.184   1.101 -1.1516 -2.0943 -2.1859
  332MOL     C140383   6.305   2.445   0.708 -0.1187 -0.6246 -0.2918
  332MOL     C240384   6.280   2.549   0.597 -0.3540 -0.3455 -0.8045
  332MOL     H340385   6.410   2.414   0.701 -0.0183 -0.7512  1.5809
  332MOL     H440386   6.241   2.358   0.694 -0.6692  0.1573 -2.7924
  332MOL     H540387   6.324   2.517   0.502  2.1010  1.3846 -0.2876
  332MOL     H640388   6.175   2.547   0.568 -0.5675  1.2844 -0.1511
  332MOL     H740389   6.275   2.490   0.803  1.1541  0.7027 -0.5019
  332MOL     C840390   6.334   2.696   0.599  0.4511  0.7097 -0.5623
  332MOL     C940391   6.340   2.772   0.469 -0.3999 -0.4288 -0.1886
  332MOL    H1040392   6.281   2.756   0.672 -2.0577 -0.3979 -1.3938
  332MOL    H1140393   6.428   2.689   0.654 -0.7876  0.4363  1.5729
  332MOL    H1240394   6.406   2.856   0.487 -1.7352  0.8093 -1.0237
  332MOL    H1340395   6.412   2.715   0.411  1.1600  1.3692 -0.0389
  332MOL    C1440396   6.203   2.803   0.406 -0.2895  0.5017  0.2523
  332MOL    C1540397   6.225   2.846   0.257  0.2482 -0.2659  0.2744
  332MOL    H1640398   6.137   2.718   0.425 -0.1710  1.0591  3.4235
  332MOL    H1740399   6.173   2.892   0.460 -1.1185 -0.3220  1.1769
  332MOL    H1840400   6.298   2.927   0.255 -1.6104  1.4479 -0.4025
  332MOL    H1940401   6.272   2.767   0.199  1.9908 -0.9989  2.6012
  332MOL    C2040402   6.103   2.914   0.194  0.2824  0.0617 -0.3041
  332MOL    C2140403   6.131   2.972   0.061  0.4363 -0.4629 -0.4198
  332MOL    H2240404   6.011   2.856   0.194 -0.9889  1.9931  1.7600
  332MOL    H2340405   6.081   3.002   0.255  0.4181  1.7831 -2.6540
  332MOL    H2440406   6.214   3.042   0.075  1.4356 -2.1559  2.5068
  332MOL    H2540407   6.177   2.884   0.015  1.2339  0.8450 -2.1675
  332MOL    C2640408   6.016   3.023   7.672 -0.1006  0.0431 -0.2980
  332MOL    C2740409   6.073   3.090   7.540  0.2456  0.8031  0.0873
  332MOL    H2840410   5.955   2.936   7.646 -0.0025 -0.7734  2.1290
  332MOL    H2940411   5.955   3.095   0.034 -0.0829 -0.1522 -0.0160
  332MOL    H3040412   6.146   3.169   7.554 -0.7013  1.9787 -1.3361
  332MOL    H3140413   6.138   3.018   7.489 -0.8670  0.0773 -0.3319
  332MOL    C3240414   5.949   3.109   7.448 -0.2512 -0.1659 -0.1046
  332MOL    C3340415   5.981   3.201   7.328 -0.4965 -0.0398  0.7998
  332MOL    H3440416   5.898   3.015   7.427  1.0687 -0.5664 -1.6196
  332MOL    H3540417   5.872   3.160   7.507 -1.3306 -2.2761  0.3601
  332MOL    H3640418   5.955   3.302   7.362 -0.0198  0.7120 -1.0067
  332MOL    H3740419   6.085   3.203   7.295 -0.4063 -1.0747  1.0289
  332MOL    C3840420   5.905   3.180   7.197  0.4416  0.1261  0.0918
  332MOL    C3940421   5.748   3.191   7.192  0.5440 -0.0461  0.0428
  332MOL    H4040422   5.934   3.263   7.132 -0.5399  1.9806  1.9437
  332MOL    H4140423   5.944   3.090   7.150  1.2114  0.4398  0.1204
  332MOL    H4240424   5.705   3.129   7.272 -0.5523  0.6195 -0.0146
  332MOL    H4340425   5.706   3.289   7.212 -0.6606 -0.1023 -2.0963
  332MOL    C4440426   5.673   3.137   7.069  0.1248  0.2350 -0.0153
  332MOL    C4540427   5.535   3.205   7.073  0.2798  0.2645  0.4836
  332MOL    H4640428   5.727   3.170   6.981  0.9529 -1.2899 -0.1010
  332MOL    H4740429   5.670   3.028   7.072 -0.6313  0.2803  1.8275
  332MOL    H4840430   5.499   3.189   7.174  1.2826  1.6444  1.0706
  332MOL    H4940431   5.548   3.313   7.062  2.3972 -0.0786 -0.7649
  332MOL    C5040432   5.436   3.154   6.962  0.0749  0.4022  0.0140
  332MOL    C5140433   5.287   3.202   6.980 -0.3614 -0.6641  0.3923
  332MOL    H5240434   5.470   3.202   6.870 -0.2573  2.1323  0.7573
  332MOL    H5340435   5.449   3.047   6.952  0.1327  0.2512  1.5960
  332MOL    H5440436   5.234   3.158   7.065  0.4832 -2.0052  0.2489
  332MOL    H5540437   5.272   3.309   6.987 -0.1047 -0.6906  1.4652
  332MOL    C5640438   5.204   3.149   6.861  0.3033 -0.5969  0.2864
  332MOL    C5740439   5.053   3.176   6.866  0.1046  0.6333  0.2436
  332MOL    H5840440   5.235   3.176   6.761 -2.9265 -1.2247 -0.9538
  332MOL    H5940441   5.217   3.041   6.855  0.8852 -0.5003 -0.1763
  332MOL    H6040442   5.023   3.156   6.969 -0.5590  1.5426  0.2314
  332MOL    H6140443   5.021   3.279   6.849 -0.2167  0.6873  1.1690
  332MOL    C6240444   4.965   3.088   6.772  0.7191  0.3658 -0.3409
  332MOL    C6340445   4.815   3.126   6.778  0.2732 -0.2302 -0.5908
  332MOL    H6440446   4.985   3.107   6.667 -0.9130  0.2614 -0.6875
  332MOL    H6540447   4.971   2.985   6.805 -0.1961  0.4595  0.1257
  332MOL    H6640448   4.770   3.141   6.876 -1.2303  1.7433 -1.5302
  332MOL    H6740449   4.802   3.227   6.739 -0.2165 -0.0583  0.0180
  332MOL    C6840450   4.739   3.017   6.704  1.0455  0.0859  0.2814
  332MOL    C6940451   4.588   3.031   6.708  0.3761  0.2631 -0.3752
  332MOL    H7040452   4.760   3.035   6.599 -0.3485 -1.3390 -0.2668
  332MOL    H7140453   4.775   2.917   6.731 -2.3485 -1.8171 -1.8223
  332MOL    H7240454   4.564   3.018   6.814 -1.6938  0.8761 -0.7417
  332MOL    H7340455   4.548   3.131   6.693  2.3537  1.1889  0.4050
  332MOL    C7440456   4.522   2.924   6.629  0.3032 -0.2671  0.8695
  332MOL    C7540457   4.371   2.928   6.636 -0.4587  0.3211 -0.1017
  332MOL    H7640458   4.542   2.931   6.522  0.5280 -0.6063  0.8859
  332MOL    H7740459   4.563   2.825   6.650  3.3062  0.3010 -1.8486
  332MOL    H7840460   4.337   2.886   6.731 -0.9326  2.6245  0.7845
  332MOL    H7940461   4.330   3.029   6.634 -1.7819 -0.1511  1.5527
  332MOL    C8040462   4.303   2.852   6.519  0.0161  0.2653 -0.7609
  332MOL    C8140463   4.148   2.860   6.536 -0.0154 -0.0867  0.3736
  332MOL    H8240464   4.334   2.891   6.422 -0.8375 -0.4444 -1.3224
  332MOL    H8340465   4.334   2.748   6.521  1.3038  0.6489 -0.0246
  332MOL    H8440466   4.140   2.800   6.626  0.9382  0.5400  0.8906
  332MOL    H8540467   4.103   2.956   6.561  0.3425  0.4054 -0.7914
  332MOL    C8640468   4.077   2.776   6.421  0.5155 -0.6873  0.3965
  332MOL    C8740469   4.083   2.844   6.281 -0.1171  0.3785 -0.0145
  332MOL    H8840470   4.131   2.681   6.428  1.4656 -0.0144  2.6955
  332MOL    H8940471   3.972   2.771   6.449  0.1432  0.0306 -0.8248
  332MOL    H9040472   4.040   2.944   6.282 -0.9481  0.0517 -1.4954
  332MOL    H9140473   4.186   2.856   6.250 -0.0393  0.3727  0.2387
  332MOL    C9240474   3.999   2.780   6.181  0.3322 -0.6565  0.7975
  332MOL    C9340475   4.010   2.834   6.037  0.6331 -0.8408  0.3794
  332MOL    H9440476   4.026   2.675   6.167  0.1127 -0.5708 -0.3279
  332MOL    H9540477   3.894   2.759   6.203  0.7615 -0.3795  3.1577
  332MOL    H9640478   3.979   2.937   6.050  1.6344 -0.5539  0.5481
  332MOL    H9740479   4.118   2.834   6.022  0.8953  0.4994  2.1040
  332MOL    C9840480   3.936   2.750   5.930 -0.1995  0.6659 -1.0296
  332MOL    C9940481   3.960   2.810   5.790  1.2096 -0.7933  0.3973
  332MOL   H10040482   3.972   2.647   5.930 -0.1422  0.6710 -2.8864
  332MOL   H10140483   3.831   2.754   5.961  0.1540  0.2601  0.2378
  332MOL   H10240484   3.885   2.766   5.723 -0.6669 -1.0334  2.6028
  332MOL   H10340485   3.940   2.916   5.806 -2.1487 -1.3100  0.1469
  332MOL   C10440486   4.101   2.805   5.718 -0.0268  0.9753 -0.5507
  332MOL   C10540487   4.102   2.852   5.569  0.2541 -0.8961 -0.9840
  332MOL   H10640488   4.173   2.859   5.780 -2.2368  3.1806  0.1602
  332MOL   H10740489   4.143   2.705   5.707  0.0312  1.1823 -2.4317
  332MOL   H10840490   4.048   2.788   5.500  2.3169 -1.5765 -2.0203
  332MOL   H10940491   4.046   2.945   5.568 -0.7396 -1.4278  1.6250
  332MOL   C11040492   4.233   2.878   5.495  0.0622 -0.3402  0.1299
  332MOL   C11140493   4.337   2.955   5.573  0.1448 -0.0258 -0.3091
  332MOL   H11240494   4.269   2.782   5.457 -2.5577 -0.8340 -1.1629
  332MOL   H11340495   4.209   2.935   5.406 -2.3167  1.3463  1.7894
  332MOL   H11440496   4.298   3.050   5.611  3.4784 -0.4520  4.6964
  332MOL   H11540497   4.375   2.904   5.661 -3.2051  1.7483  2.2763
  332MOL   C11640498   4.462   2.986   5.487 -0.4282  0.3688 -0.4677
  332MOL   C11740499   4.567   3.059   5.574  0.7016 -0.1932  1.2156
  332MOL   H11840500   4.514   2.895   5.456 -0.6635 -0.4822  1.5183
  332MOL   H11940501   4.431   3.047   5.402 -1.4899  1.6542  0.8166
  332MOL   H12040502   4.611   3.000   5.655 -0.6774 -0.9970  1.3941
  332MOL   H12140503   4.647   3.095   5.510 -1.7302  2.4491 -0.4944
  332MOL   H12240504   4.511   3.145   5.612  0.3995  1.0609 -1.9423
  333MOL     C140505   6.055   4.953   6.712 -0.2909 -0.0717  0.7549
  333MOL     C240506   6.101   4.814   6.665  0.0758 -0.1526 -0.0335
  333MOL     H340507   6.038   4.938   6.818  0.1172 -0.7182  0.7281
  333MOL     H440508   5.962   4.996   6.673  0.0991  0.9747  0.9519
  333MOL     H540509   6.021   4.743   6.648  0.2713 -0.4751  0.3654
  333MOL     H640510   6.165   4.816   6.577 -0.1327  0.8561 -0.1670
  333MOL     H740511   6.132   5.028   6.696  0.4717 -0.7795  1.1178
  333MOL     C840512   6.186   4.749   6.778 -0.0255 -1.2142  0.6488
  333MOL     C940513   6.222   4.597   6.763 -0.0472  0.0912  0.2345
  333MOL    H1040514   6.282   4.797   6.765  0.2512 -1.7281  0.7880
  333MOL    H1140515   6.154   4.764   6.881 -2.7746 -0.7395 -0.2142
  333MOL    H1240516   6.139   4.531   6.789 -0.5192  1.1025  1.3319
  333MOL    H1340517   6.231   4.580   6.656 -0.5880  2.4204 -0.2158
  333MOL    C1440518   6.349   4.554   6.839  0.4196  0.1093 -0.5379
  333MOL    C1540519   6.382   4.405   6.804 -0.4187 -0.1447 -0.1488
  333MOL    H1640520   6.426   4.626   6.813  0.6146 -0.1939 -0.7980
  333MOL    H1740521   6.335   4.563   6.947  0.0882  4.0319 -0.8597
  333MOL    H1840522   6.296   4.345   6.834 -0.6177 -0.3965 -1.2212
  333MOL    H1940523   6.381   4.394   6.696  0.6824  1.5537 -0.3453
  333MOL    C2040524   6.509   4.358   6.872  0.4126 -0.8330  0.2530
  333MOL    C2140525   6.567   4.224   6.818  0.4315  0.5943  0.5557
  333MOL    H2240526   6.589   4.431   6.856  0.5543 -0.7700  1.1737
  333MOL    H2340527   6.493   4.369   6.980  0.2534 -0.1151  0.1611
  333MOL    H2440528   6.493   4.145   6.825  3.2952 -2.0886  1.9009
  333MOL    H2540529   6.595   4.235   6.713  1.5910 -0.1895  0.7787
  333MOL    C2640530   6.697   4.179   6.897  0.4708  0.0007  0.1927
  333MOL    C2740531   6.767   4.065   6.813 -0.1971 -0.1941 -0.0494
  333MOL    H2840532   6.761   4.266   6.911 -0.8076  1.3195 -1.8383
  333MOL    H2940533   6.671   4.140   6.995  0.3618 -1.7271 -0.5003
  333MOL    H3040534   6.694   3.987   6.789 -0.1808  0.6178 -2.8273
  333MOL    H3140535   6.797   4.096   6.713 -0.0519 -1.4643 -0.4219
  333MOL    C3240536   6.886   3.989   6.875  0.3146 -0.2120 -0.2007
  333MOL    C3340537   6.920   3.869   6.788 -0.0817 -0.1003  0.7029
  333MOL    H3440538   6.977   4.049   6.881 -0.8205  1.5118 -0.0528
  333MOL    H3540539   6.858   3.969   6.979 -0.7438 -0.9896 -0.6248
  333MOL    H3640540   6.833   3.809   6.764  0.8242 -0.4052 -1.9506
  333MOL    H3740541   6.966   3.891   6.692 -0.6249  0.1508  0.4957
  333MOL    C3840542   7.018   3.767   6.849 -0.2381 -0.2862  0.3707
  333MOL    C3940543   7.074   3.662   6.747  0.2797  0.0437 -0.1126
  333MOL    H4040544   7.098   3.814   6.907 -0.2351  3.0845 -2.1928
  333MOL    H4140545   6.965   3.719   6.930  0.7724  1.9012  2.3821
  333MOL    H4240546   6.990   3.621   6.692 -0.0536  0.3572  0.1601
  333MOL    H4340547   7.139   3.698   6.667  0.0369 -2.0524 -1.2844
  333MOL    C4440548   7.142   3.555   6.831  0.3502  0.0962 -0.1981
  333MOL    C4540549   7.285   3.589   6.872 -0.1286 -0.4787  0.3039
  333MOL    H4640550   7.080   3.535   6.918  1.9947  1.2097  1.2583
  333MOL    H4740551   7.147   3.461   6.777 -1.8883 -0.6068  0.7517
  333MOL    H4840552   7.302   3.686   6.919  2.4665 -0.2062 -1.0835
  333MOL    H4940553   7.319   3.505   6.932  0.7950 -1.2976 -1.3268
  333MOL    C5040554   7.386   3.598   6.762 -0.1650 -0.0480  0.3440
  333MOL    C5140555   7.535   3.619   6.811 -0.1358 -0.0194 -0.1223
  333MOL    H5240556   7.402   3.509   6.701  0.8018  1.3123 -1.4334
  333MOL    H5340557   7.364   3.681   6.694 -0.8873 -0.9101 -0.4951
  333MOL    H5440558   7.544   3.722   6.845  2.8321  0.0617 -0.9338
  333MOL    H5540559   7.554   3.548   6.891  1.9360  0.0717 -0.4959
  333MOL    C5640560   7.633   3.600   6.694  0.4762 -0.2519 -0.0571
  333MOL    C5740561   0.091   3.617   6.722 -0.9897  1.1321 -0.0597
  333MOL    H5840562   7.614   3.502   6.650  2.7567  0.2849 -2.3950
  333MOL    H5940563   7.618   3.667   6.610  1.4238  1.3744  1.0550
  333MOL    H6040564   0.109   3.725   6.729  1.3179  0.7290  0.6354
  333MOL    H6140565   0.119   3.578   6.820 -0.1672  1.2312 -0.2568
  333MOL    C6240566   0.189   3.541   6.623 -0.1724 -0.3088 -0.0381
  333MOL    C6340567   0.336   3.550   6.663  0.1348 -0.4434  0.1712
  333MOL    H6440568   0.159   3.436   6.631 -2.6610  0.5225  2.2051
  333MOL    H6540569   0.160   3.586   6.529 -0.5422 -0.9415 -0.2280
  333MOL    H6640570   0.351   3.507   6.762  1.7030 -1.2199 -0.3866
  333MOL    H6740571   0.395   3.490   6.593 -0.7735  0.4536 -1.3986
  333MOL    C6840572   0.396   3.699   6.662  1.0509  0.3371  0.0591
  333MOL    C6940573   0.546   3.705   6.685  0.3168 -0.0910 -0.4062
  333MOL    H7040574   0.368   3.743   6.567 -1.1145 -0.7151  0.1774
  333MOL    H7140575   0.348   3.762   6.737 -1.6864 -0.7575 -0.7258
  333MOL    H7240576   0.573   3.647   6.774 -1.4829  0.0819  0.2813
  333MOL    H7340577   0.598   3.663   6.600  2.5826 -3.1104  2.3493
  333MOL    C7440578   0.594   3.853   6.699  0.0788  1.1573 -0.0474
  333MOL    C7540579   0.748   3.893   6.705 -0.1177 -0.4366  0.6235
  333MOL    H7640580   0.547   3.916   6.624 -1.2020  0.8993  0.5211
  333MOL    H7740581   0.557   3.888   6.796 -1.0902  0.8618 -0.3704
  333MOL    H7840582   0.810   3.816   6.751  0.0385  0.7159  2.4094
  333MOL    H7940583   0.777   3.906   6.601  0.9187 -0.1066  0.9474
  333MOL    C8040584   0.765   4.028   6.776 -0.9448 -0.0321 -0.5269
  333MOL    C8140585   0.902   4.088   6.755 -0.1413  0.1091 -0.0623
  333MOL    H8240586   0.701   4.095   6.718  1.3670  1.3411 -1.5628
  333MOL    H8340587   0.735   4.038   6.881 -1.5151 -1.3429 -0.5543
  333MOL    H8440588   0.975   4.013   6.784  0.1303 -0.0673 -1.1884
  333MOL    H8540589   0.915   4.112   6.650 -0.1826 -0.4656 -0.1983
  333MOL    C8640590   0.915   4.223   6.837  0.6873 -0.2125  0.7139
  333MOL    C8740591   1.058   4.285   6.818 -0.8069  0.1945  0.0350
  333MOL    H8840592   0.838   4.286   6.791  2.9733  1.2263 -1.2275
  333MOL    H8940593   0.881   4.209   6.940 -2.1398 -2.2254 -0.4338
  333MOL    H9040594   1.128   4.226   6.877  0.0635  0.6151 -0.5682
  333MOL    H9140595   1.098   4.273   6.717 -1.2311 -0.9448 -0.0126
  333MOL    C9240596   1.075   4.432   6.872 -0.7697 -0.0099 -0.7802
  333MOL    C9340597   1.219   4.477   6.883  0.2804 -0.3919 -0.1872
  333MOL    H9440598   1.006   4.494   6.815 -0.5921  0.9491  0.0433
  333MOL    H9540599   1.038   4.443   6.974  1.1470 -0.4106 -0.0306
  333MOL    H9640600   1.277   4.400   6.934 -1.0732 -1.3580 -0.0860
  333MOL    H9740601   1.264   4.488   6.784  1.0270 -0.5161  0.1365
  333MOL    C9840602   1.225   4.612   6.961 -1.0473 -0.1512 -0.3138
  333MOL    C9940603   1.379   4.652   6.963  0.2117 -0.0255 -0.5838
  333MOL   H10040604   1.166   4.685   6.905  2.8899  3.5525  0.1184
  333MOL   H10140605   1.173   4.606   7.056  0.3560 -0.1552  0.4541
  333MOL   H10240606   1.432   4.571   7.014  0.3883  0.2327 -0.3568
  333MOL   H10340607   1.425   4.666   6.865  0.9255 -3.3824 -0.8009
  333MOL   C10440608   1.401   4.779   7.046  0.1116 -0.5252  1.0137
  333MOL   C10540609   1.551   4.832   7.031  0.8559 -0.0905  0.0587
  333MOL   H10640610   1.341   4.861   7.006  1.5160  0.4349  0.8552
  333MOL   H10740611   1.379   4.767   7.153  0.1550  1.7129  1.3001
  333MOL   H10840612   1.622   4.751   7.049  0.9593 -0.1066 -0.4023
  333MOL   H10940613   1.571   4.847   6.925  2.8816  0.8443  0.5512
  333MOL   C11040614   1.583   4.960   7.097  0.3372 -0.3010 -0.3654
  333MOL   C11140615   1.735   5.003   7.082 -0.0155  0.0962  0.0481
  333MOL   H11240616   1.518   5.039   7.059 -0.4032 -0.2924  0.9163
  333MOL   H11340617   1.552   4.945   7.200  1.1314 -2.7411 -0.4647
  333MOL   H11440618   1.803   4.925   7.116  0.5521 -0.2896 -1.9208
  333MOL   H11540619   1.755   5.012   6.976  1.0864  1.2059  0.3421
  333MOL   C11640620   1.776   5.138   7.140  0.2540  0.2217 -0.2515
  333MOL   C11740621   1.915   5.177   7.087  0.5030 -0.0467  0.0986
  333MOL   H11840622   1.708   5.219   7.114  1.4415  2.0170  2.0711
  333MOL   H11940623   1.788   5.138   7.248  3.9798 -0.9951 -0.5945
  333MOL   H12040624   1.986   5.104   7.124  0.6214  0.8135  1.6246
  333MOL   H12140625   1.920   5.162   6.980  0.8570 -2.4481  0.4402
  333MOL   H12240626   1.949   5.279   7.105 -0.0658 -0.1499  1.8829
  334MOL     C140627   6.912   2.906   2.167  0.1840 -0.0757 -1.3397
  334MOL     C240628   6.794   2.840   2.232 -0.2660 -0.0510  0.3764
  334MOL     H340629   6.994   2.835   2.177 -2.0789 -2.3730  2.0693
  334MOL     H440630   6.930   3.005   2.209  1.5045 -1.7934  2.3563
  334MOL     H540631   6.804   2.731   2.224  1.9179 -0.2433  4.2949
  334MOL     H640632   6.806   2.870   2.336  0.5293  2.6847 -0.4669
  334MOL     H740633   6.897   2.918   2.060 -1.9412 -0.9534 -1.1581
  334MOL     C840634   6.653   2.872   2.189  0.1537 -0.9524  0.4388
  334MOL     C940635   6.561   2.849   2.316  0.3064 -0.2989 -0.1313
  334MOL    H1040636   6.651   2.979   2.170  0.0767 -0.6964  1.8072
  334MOL    H1140637   6.624   2.812   2.103  5.9167 -1.2751 -1.4570
  334MOL    H1240638   6.599   2.753   2.352  0.0717 -0.6130 -0.7177
  334MOL    H1340639   6.586   2.924   2.391  0.8545 -0.9265  0.3185
  334MOL    C1440640   6.412   2.850   2.266 -0.2358 -0.2580  0.5496
  334MOL    C1540641   6.307   2.874   2.368  0.5005  0.1044 -0.0682
  334MOL    H1640642   6.400   2.922   2.185 -0.4247  1.3245  1.9676
  334MOL    H1740643   6.391   2.750   2.226 -3.4726  0.7141 -0.3241
  334MOL    H1840644   6.348   2.822   2.454  2.8887  0.2091 -1.1138
  334MOL    H1940645   6.304   2.981   2.387 -1.5310  0.0753 -0.1068
  334MOL    C2040646   6.164   2.829   2.338  0.1383 -0.0284  0.1851
  334MOL    C2140647   6.071   2.838   2.455 -0.8787 -0.9050 -0.7806
  334MOL    H2240648   6.125   2.897   2.263 -1.6965  0.2285  1.3399
  334MOL    H2340649   6.165   2.729   2.295 -0.9705 -0.8179  1.9624
  334MOL    H2440650   6.118   2.787   2.538  0.9088 -0.5072 -1.5334
  334MOL    H2540651   6.055   2.941   2.488 -1.7453 -1.9435  2.1695
  334MOL    C2640652   5.933   2.787   2.408  0.9803 -0.2209  0.2717
  334MOL    C2740653   5.815   2.778   2.518  0.2755  0.0793 -0.6133
  334MOL    H2840654   5.905   2.860   2.332 -0.2951 -0.5311  0.4277
  334MOL    H2940655   5.944   2.689   2.361 -0.2009 -0.6321  0.8180
  334MOL    H3040656   5.852   2.701   2.587  1.0114  1.1926  0.2650
  334MOL    H3140657   5.815   2.866   2.583  1.1195  0.1089 -0.6487
  334MOL    C3240658   5.679   2.757   2.450  0.2196 -0.4713 -0.0248
  334MOL    C3340659   5.572   2.766   2.559 -0.3289 -0.9698  0.3850
  334MOL    H3440660   5.660   2.840   2.383 -0.6033  0.3332  1.1919
  334MOL    H3540661   5.682   2.666   2.389 -0.0094 -1.2566  1.1164
  334MOL    H3640662   5.592   2.678   2.619  0.5770 -2.2159 -1.7186
  334MOL    H3740663   5.587   2.853   2.623  1.5135 -2.0430  1.4422
  334MOL    C3840664   5.427   2.782   2.510 -0.3972  0.6345 -0.3185
  334MOL    C3940665   5.330   2.754   2.623  0.0557 -0.3195  0.4679
  334MOL    H4040666   5.404   2.881   2.470  1.1732  0.1474 -2.5180
  334MOL    H4140667   5.415   2.710   2.429 -0.6362  2.1565 -1.6892
  334MOL    H4240668   5.359   2.662   2.674 -1.2003  0.3826  2.5213
  334MOL    H4340669   5.334   2.833   2.697 -1.6013 -2.7298  3.2624
  334MOL    C4440670   5.187   2.737   2.585 -0.4626 -0.1893  0.6730
  334MOL    C4540671   5.103   2.713   2.708 -0.1579  0.0967  0.0187
  334MOL    H4640672   5.158   2.809   2.508  0.6908  1.9143  2.1565
  334MOL    H4740673   5.182   2.642   2.531  2.4461  1.3069 -2.4231
  334MOL    H4840674   5.166   2.659   2.778 -0.4146 -0.7476 -0.3900
  334MOL    H4940675   5.074   2.809   2.750  1.5194 -0.3538  2.3364
  334MOL    C5040676   4.965   2.639   2.669 -0.7404  0.0105 -0.7482
  334MOL    C5140677   4.868   2.634   2.784 -0.6679  0.1810 -0.2199
  334MOL    H5240678   4.914   2.698   2.592 -1.6831  0.8846  0.5122
  334MOL    H5340679   4.978   2.537   2.633  0.6646 -0.5880  1.3668
  334MOL    H5440680   4.922   2.576   2.860 -2.2073 -1.4124 -0.3215
  334MOL    H5540681   4.861   2.737   2.817 -0.8602  1.2245 -3.3654
  334MOL    C5640682   4.728   2.576   2.753 -0.1190 -0.0233  0.7193
  334MOL    C5740683   4.641   2.561   2.876 -0.2622  0.3705 -0.5487
  334MOL    H5840684   4.685   2.635   2.672  1.9043  0.4944 -0.0228
  334MOL    H5940685   4.741   2.475   2.714  0.0132 -0.7094  2.5114
  334MOL    H6040686   4.693   2.499   2.950  0.6757 -0.1346 -1.6179
  334MOL    H6140687   4.638   2.662   2.917  1.2080  0.0928  0.2741
  334MOL    C6240688   4.500   2.510   2.834  0.3951  0.3015 -0.9047
  334MOL    C6340689   4.397   2.520   2.941 -0.2033  0.4979  0.7137
  334MOL    H6440690   4.460   2.571   2.753  1.5097 -0.5438 -2.1078
  334MOL    H6540691   4.490   2.414   2.784  0.9105 -0.6599  0.8133
  334MOL    H6640692   4.445   2.489   3.033 -1.1936 -2.2441  0.3339
  334MOL    H6740693   4.363   2.623   2.954 -1.3914  0.0653  1.0572
  334MOL    C6840694   4.273   2.426   2.917 -0.3779  0.3922  0.0953
  334MOL    C6940695   4.176   2.445   3.049 -0.6214 -0.5633 -0.7105
  334MOL    H7040696   4.211   2.456   2.833  2.2955  1.2857 -1.6109
  334MOL    H7140697   4.302   2.321   2.906 -1.4673 -0.1340  2.0221
  334MOL    H7240698   4.232   2.460   3.141  1.9330 -1.1145 -2.1238
  334MOL    H7340699   4.105   2.524   3.025  1.0964  1.3979  0.4493
  334MOL    C7440700   4.081   2.320   3.063  0.7197  0.5743 -0.3254
  334MOL    C7540701   3.967   2.362   3.153  0.7300  0.7570  0.9753
  334MOL    H7640702   4.046   2.290   2.964 -0.3676  1.0764 -0.0932
  334MOL    H7740703   4.138   2.247   3.120 -0.8884  0.6916  1.4465
  334MOL    H7840704   4.005   2.399   3.248  0.4432 -0.1351  1.4447
  334MOL    H7940705   3.915   2.444   3.105  0.8101  0.2257 -0.0476
  334MOL    C8040706   3.863   2.250   3.182 -0.2279 -0.0663  0.2574
  334MOL    C8140707   3.927   2.136   3.265 -0.0684 -0.5989  0.3745
  334MOL    H8240708   3.779   2.298   3.233  0.3469  3.1903 -1.7887
  334MOL    H8340709   3.808   2.219   3.093  0.0886  3.9310 -1.4034
  334MOL    H8440710   3.869   2.044   3.252  1.1677 -1.5415  1.4143
  334MOL    H8540711   4.022   2.102   3.223 -0.7334 -1.6202 -0.3283
  334MOL    C8640712   3.941   2.169   3.414  0.6430 -0.4059  0.1871
  334MOL    C8740713   3.991   2.041   3.492  0.6199  0.1145 -0.0309
  334MOL    H8840714   4.010   2.252   3.430 -1.1584  1.3960 -1.0689
  334MOL    H8940715   3.845   2.189   3.462  1.8384  0.1834  2.3945
  334MOL    H9040716   3.976   2.060   3.598  0.7206 -1.2053  0.2221
  334MOL    H9140717   3.933   1.954   3.462  1.6245 -0.5611 -0.0091
  334MOL    C9240718   4.140   2.005   3.458  0.1580 -0.5245  0.1050
  334MOL    C9340719   4.200   1.922   3.569 -0.2410 -0.5460  0.3229
  334MOL    H9440720   4.131   1.939   3.371 -0.9254 -2.3243  1.5342
  334MOL    H9540721   4.201   2.092   3.433 -1.7013  0.3901 -1.3335
  334MOL    H9640722   4.190   1.966   3.668  0.9657  0.5189 -0.0108
  334MOL    H9740723   4.151   1.825   3.574  1.8289 -1.7424 -1.4957
  334MOL    C9840724   4.347   1.886   3.542  0.2121  0.6407  0.2332
  334MOL    C9940725   4.453   1.975   3.593 -0.9072 -0.0485  0.0061
  334MOL   H10040726   4.362   1.788   3.588 -0.7004  0.1768 -0.4200
  334MOL   H10140727   4.364   1.867   3.436  0.9234  0.6563  0.3476
  334MOL   H10240728   4.432   2.076   3.558 -0.2800 -0.4982 -1.7361
  334MOL   H10340729   4.458   1.980   3.701  0.7531 -0.7482 -0.0201
  334MOL   C10440730   4.580   1.923   3.533  0.1083  0.7420 -0.0262
  334MOL   C10540731   4.703   1.983   3.599 -0.5371 -0.3957  0.0226
  334MOL   H10640732   4.580   1.815   3.520  2.9650  1.0251 -3.2206
  334MOL   H10740733   4.575   1.957   3.429 -0.4343 -0.7445 -0.5072
  334MOL   H10840734   4.782   2.013   3.530 -1.0884  1.8328  0.3481
  334MOL   H10940735   4.686   2.081   3.643 -1.7848 -0.6614  0.1460
  334MOL   C11040736   4.763   1.888   3.696  0.1476  0.3412  0.6235
  334MOL   C11140737   4.889   1.942   3.772  0.7865  0.4989  0.2411
  334MOL   H11240738   4.683   1.855   3.763 -0.6788 -1.1898 -1.0823
  334MOL   H11340739   4.801   1.802   3.641 -0.3221  0.8045 -0.4492
  334MOL   H11440740   4.939   1.857   3.819 -0.1625 -0.9452 -1.2959
  334MOL   H11540741   4.948   1.985   3.691 -0.8316  2.6424  0.1663
  334MOL   C11640742   4.855   2.049   3.883  0.2514 -0.8239  0.9284
  334MOL   C11740743   4.975   2.068   3.982 -0.1522  0.1552 -0.3751
  334MOL   H11840744   4.823   2.143   3.838 -0.0765 -0.8181  1.1703
  334MOL   H11940745   4.767   2.013   3.936 -1.3795  1.1544 -0.3761
  334MOL   H12040746   5.061   2.122   3.943 -0.0396  1.0187  1.0432
  334MOL   H12140747   4.950   2.138   4.061  0.0384  0.1211 -0.2829
  334MOL   H12240748   4.998   1.973   4.032  2.6447  1.5071  1.0454
  335MOL     C140749   2.612   1.902   7.599  0.3775 -0.3028 -0.2581
  335MOL     C240750   2.649   1.763   7.544  0.4746  0.4965  0.2442
  335MOL     H340751   2.695   1.972   7.585  1.0322 -0.6124  1.8833
  335MOL     H440752   2.582   1.902   0.012 -1.3613 -1.2673 -0.7401
  335MOL     H540753   2.562   1.700   7.564  0.3937  0.6252  0.2980
  335MOL     H640754   2.662   1.764   7.435  1.0650 -0.6314  0.3023
  335MOL     H740755   2.524   1.933   7.543  1.3701  2.1104 -0.5461
  335MOL     C840756   2.788   1.707   7.600  0.2401  0.2836  0.4146
  335MOL     C940757   2.897   1.686   7.489 -0.0710  0.6021 -0.3174
  335MOL    H1040758   2.830   1.774   7.675 -1.5949 -0.7231  2.3908
  335MOL    H1140759   2.779   1.609   7.647 -0.5890  0.5675  0.8613
  335MOL    H1240760   2.878   1.598   7.427 -0.8094  1.0302 -0.7000
  335MOL    H1340761   2.894   1.768   7.418  0.9125  0.6365 -0.3238
  335MOL    C1440762   3.039   1.676   7.550 -0.0141 -0.5923 -0.0262
  335MOL    C1540763   3.143   1.634   7.456  0.1370  0.6183 -0.3851
  335MOL    H1640764   3.072   1.761   7.610  2.2131 -1.3643 -0.1282
  335MOL    H1740765   3.039   1.595   7.623 -0.9292 -0.0242  0.6205
  335MOL    H1840766   3.116   1.535   7.420  0.5454  1.5332 -3.3081
  335MOL    H1940767   3.135   1.689   7.362  1.6924  0.3779 -0.6858
  335MOL    C2040768   3.285   1.634   7.504 -0.3440 -0.7900 -0.1672
  335MOL    C2140769   3.387   1.572   7.404  0.3461  0.3968 -0.6448
  335MOL    H2240770   3.320   1.734   7.531  0.2446 -1.9531  3.6602
  335MOL    H2340771   3.279   1.579   7.597 -0.5114  0.7787  0.7729
  335MOL    H2440772   3.359   1.472   7.373 -0.3385  0.4985 -0.3572
  335MOL    H2540773   3.383   1.628   7.310 -1.1690  1.8708  0.2821
  335MOL    C2640774   3.527   1.569   7.461  0.3411  0.1963  0.2060
  335MOL    C2740775   3.621   1.464   7.390  0.1370 -0.8253  0.1906
  335MOL    H2840776   3.574   1.667   7.461 -1.2435  0.9606 -0.0450
  335MOL    H2940777   3.521   1.540   7.566 -2.4827  0.5501  0.1756
  335MOL    H3040778   3.589   1.362   7.409 -1.6715  0.1651  2.8391
  335MOL    H3140779   3.621   1.492   7.284 -2.3754 -1.9102 -0.1513
  335MOL    C3240780   3.765   1.470   7.431  0.2049 -0.3161 -0.5695
  335MOL    C3340781   3.856   1.369   7.353 -0.0057  0.0051 -0.2936
  335MOL    H3440782   3.812   1.567   7.421 -2.2487  1.0937  0.9362
  335MOL    H3540783   3.765   1.441   7.537 -0.0981 -2.4691 -1.1268
  335MOL    H3640784   3.817   1.269   7.375 -0.5994  0.7522  2.2408
  335MOL    H3740785   3.842   1.378   7.246  1.3311  1.0053 -0.3915
  335MOL    C3840786   4.004   1.395   7.381  0.1116 -0.8268  0.5133
  335MOL    C3940787   4.106   1.339   7.280  0.4275 -0.0209 -0.5403
  335MOL    H4040788   4.025   1.502   7.376 -0.7019 -0.7331 -1.2009
  335MOL    H4140789   4.031   1.344   7.474  0.9989  1.0534  1.3039
  335MOL    H4240790   4.089   1.378   7.179  0.9183 -2.2135 -1.5057
  335MOL    H4340791   4.206   1.369   7.311  0.3572  0.3347 -0.6648
  335MOL    C4440792   4.096   1.184   7.269  0.5406 -0.5855  0.1263
  335MOL    C4540793   4.166   1.110   7.384  0.5067 -0.0963  0.2555
  335MOL    H4640794   3.993   1.154   7.283  0.7591 -0.4836  2.2200
  335MOL    H4740795   4.143   1.138   7.182  1.4278 -3.4840  2.0350
  335MOL    H4840796   4.267   1.147   7.403  0.4028 -1.0718  2.9763
  335MOL    H4940797   4.111   1.124   7.477 -0.5622 -0.9511 -0.2480
  335MOL    C5040798   4.185   0.955   7.356 -0.6496  0.1730 -0.1340
  335MOL    C5140799   4.248   0.878   7.470  0.0810  0.4182 -0.1140
  335MOL    H5240800   4.087   0.912   7.339 -0.9730  0.8570 -0.0130
  335MOL    H5340801   4.238   0.921   7.267 -0.6587  0.0485 -0.0920
  335MOL    H5440802   4.351   0.909   7.488  1.1267 -3.1515  0.3654
  335MOL    H5540803   4.194   0.894   7.563 -0.2295 -0.5271 -0.1248
  335MOL    C5640804   4.241   0.730   7.460  0.2075 -0.2597  0.2350
  335MOL    C5740805   4.341   0.660   7.568 -0.0924 -0.4437  0.5764
  335MOL    H5840806   4.143   0.688   7.484 -1.8800  4.1884  0.1456
  335MOL    H5940807   4.268   0.688   7.363  0.2259 -2.7638  1.2894
  335MOL    H6040808   4.446   0.668   7.538  0.2132 -3.2734  0.7130
  335MOL    H6140809   4.326   0.706   7.665 -2.0973  0.3964 -0.1003
  335MOL    C6240810   4.319   0.509   7.569  0.7717  0.0483  0.2605
  335MOL    C6340811   4.403   0.430   7.669 -0.1848 -0.0462  0.1574
  335MOL    H6440812   4.222   0.481   7.610 -0.1471  0.3545 -1.6643
  335MOL    H6540813   4.340   0.467   7.471  1.1254 -3.1583  1.6501
  335MOL    H6640814   4.508   0.458   7.663  1.0400 -3.8104  2.3022
  335MOL    H6740815   4.367   0.444   0.079  0.0737  3.0450 -0.1349
  335MOL    C6840816   4.404   0.283   7.624 -0.1550 -0.3854 -0.0313
  335MOL    C6940817   4.494   0.209   0.033 -0.4732 -0.2341  0.2450
  335MOL    H7040818   4.302   0.245   7.626  0.2577 -1.6878 -1.6797
  335MOL    H7140819   4.434   0.277   7.519 -0.2848  0.3156 -0.1108
  335MOL    H7240820   4.581   0.265   0.067  1.3295 -2.5739 -0.3325
  335MOL    H7340821   4.434   0.187   0.121 -1.0837 -0.8370 -0.3139
  335MOL    C7440822   4.552   0.077   7.670 -0.0108 -0.0444 -0.0367
  335MOL    C7540823   4.649   0.015   0.071  0.2878 -0.1194 -0.6361
  335MOL    H7640824   4.470   0.006   7.657  0.3916 -0.3857 -0.7659
  335MOL    H7740825   4.602   0.093   7.575 -2.8161  2.0315 -1.2224
  335MOL    H7840826   4.707   0.097   0.115  2.5634 -0.8240 -2.2249
  335MOL    H7940827   4.600   7.655   0.153 -0.6001 -0.6013 -1.4726
  335MOL    C8040828   4.752   7.620   0.001 -0.4722  0.1382 -0.2836
  335MOL    C8140829   4.858   7.560   0.087 -0.4404  0.2490  0.7699
  335MOL    H8240830   4.700   7.553   7.625 -2.3836 -0.2517  1.5275
  335MOL    H8340831   4.817   7.674   7.623 -2.0002  2.1028 -0.2409
  335MOL    H8440832   4.922   7.632   0.138  1.5238 -0.5767 -0.4697
  335MOL    H8540833   4.818   7.499   0.167  1.3691  0.1250  1.6156
  335MOL    C8640834   4.956   7.470   0.010 -0.2789 -0.1276  0.3925
  335MOL    C8740835   5.056   7.546   7.615  0.3873 -0.0645  0.1015
  335MOL    H8840836   5.017   7.411   0.078 -0.2263 -0.2456  0.2438
  335MOL    H8940837   4.906   7.395   7.641  2.4309 -0.2667 -1.7597
  335MOL    H9040838   5.007   7.600   7.534 -1.4931 -0.6948  0.7999
  335MOL    H9140839   5.107   7.620   7.677  0.0302  1.7712 -1.7503
  335MOL    C9240840   5.156   7.444   7.546 -0.4087  0.3649 -1.1305
  335MOL    C9340841   5.274   7.510   7.499 -0.5574  0.4044  0.1604
  335MOL    H9440842   5.193   7.364   7.611 -2.1369  0.0289 -0.5345
  335MOL    H9540843   5.111   7.391   7.463 -1.1396 -0.0551 -0.4730
  335MOL    H9640844   5.250   7.577   7.417 -1.1048  1.4521  1.1684
  335MOL    H9740845   5.318   7.570   7.578 -2.2409  1.2081  0.4922
  335MOL    C9840846   5.392   7.418   7.462 -0.5915 -0.3501 -0.0598
  335MOL    C9940847   5.365   7.316   7.355  0.0096 -0.5186 -0.4185
  335MOL   H10040848   5.482   7.471   7.431  0.1776 -0.7630  1.3952
  335MOL   H10140849   5.431   7.369   7.551  0.9475  1.0699  0.0632
  335MOL   H10240850   5.258   7.295   7.363 -0.0192 -0.3318 -0.3325
  335MOL   H10340851   5.369   7.353   7.252  1.9331 -0.9862 -0.5162
  335MOL   C10440852   5.450   7.193   7.370 -0.4036 -0.6811 -0.6429
  335MOL   C10540853   5.459   7.112   7.243  0.9001 -0.0066  0.2587
  335MOL   H10640854   5.552   7.228   7.384 -0.5389 -0.3501 -0.4573
  335MOL   H10740855   5.422   7.130   7.454  1.0698  1.0399  1.2013
  335MOL   H10840856   5.356   7.081   7.225 -0.3417  3.3789  1.0636
  335MOL   H10940857   5.490   7.170   7.156  1.2304 -0.4597  0.0746
  335MOL   C11040858   5.558   7.000   7.265 -0.1303  0.5123  0.1187
  335MOL   C11140859   5.576   6.903   7.152  0.2125 -0.3583 -0.0226
  335MOL   H11240860   5.655   7.048   7.278 -0.9398  2.0445  0.6198
  335MOL   H11340861   5.541   6.949   7.359 -1.7464 -3.0721 -2.0170
  335MOL   H11440862   5.578   6.962   7.061 -2.2188  0.7586  0.6214
  335MOL   H11540863   5.670   6.848   7.163 -0.1627 -0.8156  0.9771
  335MOL   C11640864   5.472   6.791   7.147  0.8085  0.1230 -0.1382
  335MOL   C11740865   5.460   6.709   7.278 -0.4405  0.6038  0.1783
  335MOL   H11840866   5.376   6.839   7.126  0.9726 -0.8637 -3.3809
  335MOL   H11940867   5.500   6.732   7.060 -1.3351 -0.6782 -0.3240
  335MOL   H12040868   5.555   6.664   7.306 -1.0327 -0.2009  0.9128
  335MOL   H12140869   5.416   6.756   7.366 -0.7747 -2.0840  1.5156
  335MOL   H12240870   5.395   6.623   7.263 -0.2028  0.8676 -2.5906
  336MOL     C140871   0.980   6.121   1.323  0.0699  0.1432  0.2711
  336MOL     C240872   0.879   6.230   1.265 -0.4206  0.2077  0.2818
  336MOL     H340873   0.961   6.107   1.429  2.8397  1.2706  0.9528
  336MOL     H440874   1.087   6.135   1.315  0.2958 -1.7906 -0.2462
  336MOL     H540875   0.908   6.329   1.300 -1.0706  0.6350 -0.3921
  336MOL     H640876   0.878   6.233   1.156 -0.7775 -1.5122  0.2251
  336MOL     H740877   0.965   6.026   1.272  0.6316  0.1737  0.0531
  336MOL     C840878   0.733   6.188   1.294  0.4472 -0.3253 -0.3548
  336MOL     C940879   0.678   6.186   1.433 -1.0962  0.7811 -0.2708
  336MOL    H1040880   0.667   6.253   1.236  2.0569  0.6633 -1.0951
  336MOL    H1140881   0.725   6.094   1.241 -0.9398 -1.0289  1.0654
  336MOL    H1240882   0.572   6.158   1.429 -1.2728  1.3808  0.1626
  336MOL    H1340883   0.725   6.107   1.492 -2.1166  0.4186  0.0726
  336MOL    C1440884   0.680   6.325   1.510 -0.4387 -0.0743 -0.1620
  336MOL    C1540885   0.621   6.326   1.644  0.2906  0.0365  0.0465
  336MOL    H1640886   0.787   6.348   1.503 -0.8332  1.9590  0.4610
  336MOL    H1740887   0.632   6.393   1.440 -0.1579  1.2101  0.8875
  336MOL    H1840888   0.518   6.292   1.630 -0.0135  1.8141 -2.2157
  336MOL    H1940889   0.668   6.246   1.702  0.0551 -0.5989 -0.6332
  336MOL    C2040890   0.626   6.454   1.720  0.2723  0.1782  0.6915
  336MOL    C2140891   0.559   6.467   1.860  0.7921  0.5681  0.0586
  336MOL    H2240892   0.727   6.489   1.744  0.9668 -1.0791 -0.3905
  336MOL    H2340893   0.580   6.533   1.660  2.0492 -1.6257 -3.2552
  336MOL    H2440894   0.452   6.443   1.857  1.1764 -1.0694 -1.8691
  336MOL    H2540895   0.600   6.390   1.925  0.4354 -1.9829 -2.6066
  336MOL    C2640896   0.582   6.604   1.921 -0.6512 -0.4318  0.2543
  336MOL    C2740897   0.516   6.620   2.055 -0.9623 -0.2296  0.0924
  336MOL    H2840898   0.690   6.617   1.926 -0.8169  0.7725  0.7213
  336MOL    H2940899   0.552   6.685   1.854  0.3914  0.9447  1.4083
  336MOL    H3040900   0.411   6.637   2.033 -1.4075 -0.2883  2.0847
  336MOL    H3140901   0.518   6.521   2.101 -0.5970 -0.4361 -0.3565
  336MOL    C3240902   0.576   6.724   2.147 -0.3609 -0.1418 -0.1917
  336MOL    C3340903   0.512   6.715   2.284 -0.6615 -0.0386  0.3330
  336MOL    H3440904   0.683   6.703   2.156 -0.0925  1.1125 -0.3290
  336MOL    H3540905   0.572   6.821   2.098  0.8741  0.2599  0.4561
  336MOL    H3640906   0.404   6.726   2.284 -0.5394  1.1523  0.9972
  336MOL    H3740907   0.522   6.619   2.335 -1.0934  0.0464  0.5789
  336MOL    C3840908   0.568   6.817   2.383  0.3538  0.0244 -0.4985
  336MOL    C3940909   0.524   6.799   2.529  0.6475  0.2275 -0.2581
  336MOL    H4040910   0.675   6.805   2.369  0.3984 -1.9472  1.3314
  336MOL    H4140911   0.531   6.908   2.335  0.5343  0.6466  0.5328
  336MOL    H4240912   0.420   6.767   2.529  0.2597  1.4425 -1.6091
  336MOL    H4340913   0.587   6.723   2.575  0.0813  0.4011  0.8126
  336MOL    C4440914   0.539   6.932   2.599 -0.3269 -0.6324  0.1713
  336MOL    C4540915   0.488   6.928   2.740 -0.4308  0.6021  0.4548
  336MOL    H4640916   0.641   6.969   2.583  0.2217 -1.8335  0.8512
  336MOL    H4740917   0.479   7.000   2.538  0.1726 -0.2748  0.0689
  336MOL    H4840918   0.381   6.945   2.738 -0.2208  2.0071  0.0490
  336MOL    H4940919   0.486   6.824   2.771  3.7462  0.2040 -0.3132
  336MOL    C5040920   0.573   7.013   2.836  0.2632 -0.0938 -0.1390
  336MOL    C5140921   0.543   6.993   2.991 -0.2026  0.5699  0.6597
  336MOL    H5240922   0.678   6.989   2.818  1.0477  1.7474  1.6972
  336MOL    H5340923   0.572   7.117   2.803  0.8627  1.5017  4.4778
  336MOL    H5440924   0.437   7.015   3.001 -0.5701 -0.4393 -0.8313
  336MOL    H5540925   0.563   6.889   3.018  0.2884  0.0118 -1.7182
  336MOL    C5640926   0.635   7.090   3.067 -0.9416  0.1901 -0.2994
  336MOL    C5740927   0.623   7.065   3.223  0.3716 -0.1994  0.9723
  336MOL    H5840928   0.742   7.074   3.053 -0.7157  0.2839  1.2245
  336MOL    H5940929   0.622   7.196   3.046  2.5432  0.9839  1.1312
  336MOL    H6040930   0.625   6.958   3.244  3.1755 -0.8359 -1.9955
  336MOL    H6140931   0.710   7.102   3.278  1.7707  3.0330 -3.1537
  336MOL    C6240932   0.501   7.114   3.290  0.1887 -0.2294 -0.2025
  336MOL    C6340933   0.498   7.049   3.436 -0.2341 -0.1127  0.3053
  336MOL    H6440934   0.495   7.222   3.287 -0.1409 -0.2603 -0.7997
  336MOL    H6540935   0.408   7.090   3.237  0.2851  0.0771 -0.5067
  336MOL    H6640936   0.509   6.942   3.422  1.1218  0.1338 -0.6101
  336MOL    H6740937   0.584   7.089   3.489  0.7474 -1.7883  0.0101
  336MOL    C6840938   0.369   7.096   3.501  0.4080  0.6041 -0.0426
  336MOL    C6940939   0.349   7.020   3.630  0.0835  0.8138  0.0016
  336MOL    H7040940   0.380   7.201   3.528 -0.9005  0.7339  0.0315
  336MOL    H7140941   0.290   7.091   3.426 -0.7122  2.6752  0.9607
  336MOL    H7240942   0.337   6.913   3.614  1.1410  0.6926 -0.0686
  336MOL    H7340943   0.439   7.035   3.691 -2.4521  2.2164  3.5600
  336MOL    C7440944   0.225   7.059   3.713 -0.1055  0.0497 -0.5270
  336MOL    C7540945   0.209   7.210   3.753 -0.1421 -0.1145  0.2260
  336MOL    H7640946   0.133   7.028   3.663  0.1640 -3.2238  0.8732
  336MOL    H7740947   0.219   6.992   3.799 -2.0159 -0.4933 -1.0504
  336MOL    H7840948   0.307   7.258   3.756 -0.7506  1.3709 -2.3386
  336MOL    H7940949   0.147   7.257   3.677 -0.7819 -0.4795  0.5156
  336MOL    C8040950   0.138   7.229   3.887 -0.6640  0.2134  0.1762
  336MOL    C8140951   7.672   7.222   3.870  0.2530  0.4812  0.4560
  336MOL    H8240952   0.167   7.152   3.958 -2.9531 -0.4582  0.4292
  336MOL    H8340953   0.165   7.329   3.923  1.6237 -0.3738  0.1674
  336MOL    H8440954   7.638   7.308   3.812 -0.9815  0.5749  1.3005
  336MOL    H8540955   7.660   7.134   3.808 -0.7834  0.6743  0.3687
  336MOL    C8640956   7.590   7.204   4.001 -0.0473 -0.2476 -0.3417
  336MOL    C8740957   7.453   7.142   3.976 -0.0316  0.4658 -0.0069
  336MOL    H8840958   7.642   7.128   4.060  1.1535  0.9182  0.1306
  336MOL    H8940959   7.598   7.293   4.064 -1.2954  0.0361 -0.5736
  336MOL    H9040960   7.460   7.059   3.906 -0.4258 -1.4136  2.1450
  336MOL    H9140961   7.410   7.106   4.070  0.4903  1.2728  0.5530
  336MOL    C9240962   7.361   7.247   3.918  0.1876 -0.0613 -0.0108
  336MOL    C9340963   7.225   7.193   3.884 -0.3931  0.6427 -0.2366
  336MOL    H9440964   7.347   7.326   3.992  0.9462  0.2217 -0.1720
  336MOL    H9540965   7.410   7.293   3.832 -0.6829  1.9094  0.5360
  336MOL    H9640966   7.240   7.105   3.822 -0.4636 -0.0728  0.7398
  336MOL    H9740967   7.171   7.159   3.972 -0.5297  0.9324 -0.2064
  336MOL    C9840968   7.140   7.298   3.812  0.3827 -0.0255  0.5993
  336MOL    C9940969   7.010   7.245   3.751  0.5955 -0.4195 -0.0061
  336MOL   H10040970   7.117   7.374   3.887 -0.5884  0.5634 -0.2929
  336MOL   H10140971   7.202   7.339   3.732  0.7901  0.4538  1.1557
  336MOL   H10240972   7.036   7.161   3.687  0.6251 -0.9933  0.7559
  336MOL   H10340973   6.941   7.204   3.825 -0.6775  2.6696  0.6130
  336MOL   C10440974   6.926   7.354   3.684  0.4639  0.0910 -0.4827
  336MOL   C10540975   6.806   7.300   3.610  0.4519 -0.6323  0.0258
  336MOL   H10640976   6.902   7.422   3.766  0.9327 -0.5385  0.1781
  336MOL   H10740977   6.993   7.401   3.611 -1.6999 -1.7802 -3.8356
  336MOL   H10840978   6.838   7.251   3.518 -1.3569 -1.4248 -0.2056
  336MOL   H10940979   6.765   7.222   3.674  0.4373 -1.2139 -0.6830
  336MOL   C11040980   6.704   7.412   3.568  0.2269 -0.7805 -0.0538
  336MOL   C11140981   6.569   7.358   3.518  0.6494  0.3144 -0.2069
  336MOL   H11240982   6.685   7.481   3.650  0.8153  1.1895 -1.5242
  336MOL   H11340983   6.749   7.474   3.490  0.7408 -0.4641  0.4900
  336MOL   H11440984   6.543   7.284   3.594  2.3975 -1.4907 -1.3058
  336MOL   H11540985   6.504   7.445   3.516  1.0133  0.5799 -0.5698
  336MOL   C11640986   6.573   7.297   3.377 -1.1799 -0.4850 -0.4904
  336MOL   C11740987   6.435   7.259   3.324  0.3483  1.3504 -0.4202
  336MOL   H11840988   6.621   7.360   3.302 -0.5091  1.3372  1.4286
  336MOL   H11940989   6.634   7.207   3.375  1.2730  1.0784  0.7604
  336MOL   H12040990   6.446   7.221   3.222  0.5827 -1.1243  0.4735
  336MOL   H12140991   6.385   7.179   3.379  0.2431  1.4374 -0.3915
  336MOL   H12240992   6.358   7.336   3.324 -0.3105  0.7066  0.5257
  337MOL     C140993   1.164   4.398   1.623 -0.5805  0.3044  0.3905
  337MOL     C240994   1.133   4.518   1.711 -0.1699  0.6732 -0.1193
  337MOL     H340995   1.270   4.376   1.635 -1.0263 -2.1441  0.1827
  337MOL     H440996   1.144   4.411   1.517 -2.4015 -1.2845  0.5055
  337MOL     H540997   1.176   4.605   1.661  1.0532  0.3128  0.2717
  337MOL     H640998   1.027   4.539   1.718 -0.1302  1.2089 -1.0143
  337MOL     H740999   1.104   4.313   1.656 -0.8278 -0.8273 -2.7908
  337MOL     C841000   1.196   4.507   1.854  0.4622  0.3533  0.4580
  337MOL     C941001   1.193   4.638   1.930  0.5425  0.3236  0.2442
  337MOL    H1041002   1.140   4.434   1.912  0.4037  0.5305  0.6258
  337MOL    H1141003   1.294   4.465   1.831  1.2200  1.3251  1.7996
  337MOL    H1241004   1.220   4.717   1.860  0.2242  0.5594  0.3860
  337MOL    H1341005   1.091   4.653   1.967  0.5647 -0.3209  0.5713
  337MOL    C1441006   1.295   4.631   2.048 -0.1359  0.4007  0.5130
  337MOL    C1541007   1.333   4.771   2.099  0.5065 -0.3158  0.2086
  337MOL    H1641008   1.244   4.590   2.135  1.1150  0.9311  1.5066
  337MOL    H1741009   1.382   4.573   2.020 -0.2837 -0.4113  1.6853
  337MOL    H1841010   1.399   4.826   2.032 -0.2922  2.3113  1.4994
  337MOL    H1941011   1.245   4.835   2.105  0.5395 -0.4336  2.1913
  337MOL    C2041012   1.400   4.763   2.235 -0.1778 -0.1996  0.4183
  337MOL    C2141013   1.443   4.901   2.301  0.1336 -0.1616  0.3747
  337MOL    H2241014   1.353   4.696   2.307 -0.1454 -0.0736  0.5577
  337MOL    H2341015   1.497   4.713   2.232 -0.7021 -1.1720 -0.2796
  337MOL    H2441016   1.520   4.884   2.376 -1.4296  0.0186  2.0589
  337MOL    H2541017   1.488   4.944   2.212 -2.3703  0.7608 -0.4919
  337MOL    C2641018   1.338   4.991   2.364  0.3308 -0.5033  0.2352
  337MOL    C2741019   1.377   5.134   2.397 -0.1025  0.0446 -0.7757
  337MOL    H2841020   1.260   5.007   2.290  0.4988 -0.6596  0.0236
  337MOL    H2941021   1.288   4.951   2.452  1.1637  0.0823  0.9876
  337MOL    H3041022   1.439   5.133   2.487 -1.1455  0.1034 -0.0583
  337MOL    H3141023   1.433   5.174   2.312 -2.1724  0.9895 -1.7052
  337MOL    C3241024   1.260   5.230   2.413 -0.2297  0.3320  0.3132
  337MOL    C3341025   1.296   5.377   2.417 -0.3396 -0.5657 -0.3524
  337MOL    H3441026   1.187   5.217   2.333  1.4707 -2.0446 -0.9428
  337MOL    H3541027   1.208   5.197   2.503 -1.2047 -1.2362 -0.7958
  337MOL    H3641028   1.354   5.399   2.507 -0.6305 -1.1411 -0.0211
  337MOL    H3741029   1.362   5.377   2.330 -1.1747  1.7866 -1.0098
  337MOL    C3841030   1.168   5.459   2.410  0.2151  0.3337 -0.0776
  337MOL    C3941031   1.191   5.614   2.401 -0.2070  0.2340  0.5176
  337MOL    H4041032   1.113   5.418   2.325  0.2714 -0.9586  0.4960
  337MOL    H4141033   1.104   5.441   2.496  1.0424  0.1502  0.5025
  337MOL    H4241034   1.226   5.648   2.498  2.4508  1.7716 -0.9052
  337MOL    H4341035   1.268   5.634   2.326 -0.4583 -0.7185 -0.0022
  337MOL    C4441036   1.071   5.709   2.377 -0.0539 -0.7421 -0.0988
  337MOL    C4541037   0.977   5.669   2.262 -0.1344  0.4321 -0.0119
  337MOL    H4641038   1.015   5.712   2.471  1.4199  0.2706  0.7674
  337MOL    H4741039   1.107   5.812   2.377 -3.3743  0.4877 -1.3903
  337MOL    H4841040   0.934   5.575   2.295  0.1797  0.8885  1.7459
  337MOL    H4941041   0.897   5.741   2.247 -0.1705  0.3407 -0.2531
  337MOL    C5041042   1.055   5.672   2.133  0.0053 -0.0116  0.8307
  337MOL    C5141043   0.961   5.646   2.011  0.2790  0.1876  0.0854
  337MOL    H5241044   1.116   5.762   2.117  0.2292  0.0180  1.8067
  337MOL    H5341045   1.128   5.592   2.145  0.3856 -0.1400 -2.0784
  337MOL    H5441046   0.927   5.738   1.965  0.5496  1.0150  1.5157
  337MOL    H5541047   1.028   5.620   1.929 -2.2281 -2.2531 -1.2684
  337MOL    C5641048   0.847   5.538   2.024 -0.0825  0.0165 -0.1974
  337MOL    C5741049   0.793   5.501   1.885  0.2358  0.7152  0.4447
  337MOL    H5841050   0.903   5.454   2.066  2.4453  1.7196 -0.0500
  337MOL    H5941051   0.779   5.577   2.100  0.8340  0.7703  0.2469
  337MOL    H6041052   0.750   5.592   1.844  2.2058  0.5692 -2.1010
  337MOL    H6141053   0.877   5.485   1.817 -0.1519 -0.9290  0.3340
  337MOL    C6241054   0.708   5.376   1.906  0.3092 -0.5340  0.8020
  337MOL    C6341055   0.673   5.324   1.771  0.6849 -0.0775 -0.8409
  337MOL    H6441056   0.763   5.297   1.957 -0.7578 -1.2725  0.8264
  337MOL    H6541057   0.616   5.394   1.961 -0.6005  1.5257 -1.2958
  337MOL    H6641058   0.623   5.409   1.725  0.1625  0.1329  0.0860
  337MOL    H6741059   0.758   5.286   1.716  0.1362 -1.3454 -0.8229
  337MOL    C6841060   0.569   5.206   1.771  0.4117 -0.3386 -0.6259
  337MOL    C6941061   0.531   5.148   1.636 -0.3216  1.0113  0.3707
  337MOL    H7041062   0.607   5.126   1.834  0.5421  0.0756 -0.1718
  337MOL    H7141063   0.479   5.224   1.831  0.9185 -0.8469  0.2921
  337MOL    H7241064   0.508   5.225   1.562  1.2515 -0.4599 -1.7045
  337MOL    H7341065   0.625   5.101   1.607 -2.2668 -1.9808 -1.4432
  337MOL    C7441066   0.407   5.061   1.635  0.7225  0.3006 -0.3401
  337MOL    C7541067   0.394   4.979   1.508 -0.0859  0.0066  0.1604
  337MOL    H7641068   0.414   4.994   1.721 -1.0946  1.1116  0.4766
  337MOL    H7741069   0.314   5.113   1.657  0.4154 -0.5038  0.2656
  337MOL    H7841070   0.386   5.047   1.423  0.7715 -0.8406 -0.6021
  337MOL    H7941071   0.479   4.916   1.481 -0.1525  0.8302 -2.1192
  337MOL    C8041072   0.267   4.907   1.503  0.4346  1.0721  0.2374
  337MOL    C8141073   0.256   4.830   1.366 -0.1227  0.2940 -0.1142
  337MOL    H8241074   0.252   4.839   1.587 -3.2565  1.6505  0.1274
  337MOL    H8341075   0.179   4.971   1.511  0.2383  0.8074  0.1787
  337MOL    H8441076   0.242   4.903   1.286 -1.0199  1.6042  1.2208
  337MOL    H8541077   0.341   4.764   1.352  0.3957  0.8247  0.4965
  337MOL    C8641078   0.137   4.732   1.360  0.2132  0.4244 -0.9642
  337MOL    C8741079   0.095   4.675   1.226 -0.3786 -0.7460 -0.0249
  337MOL    H8841080   0.161   4.650   1.428  0.4488  0.8755 -0.5024
  337MOL    H8941081   0.052   4.785   1.403  0.7234  1.5385 -1.3359
  337MOL    H9041082   0.070   4.759   1.161 -0.4410 -0.8105 -0.0855
  337MOL    H9141083   0.176   4.611   1.191  1.6967  1.4361  0.6500
  337MOL    C9241084   7.653   4.601   1.227  0.7364  0.0651  0.1002
  337MOL    C9341085   7.614   4.563   1.082  0.1694 -0.1011 -0.2091
  337MOL    H9441086   7.673   4.512   1.287 -2.7705  0.3798  1.8892
  337MOL    H9541087   7.572   4.658   1.272  0.0732 -1.2451  0.5898
  337MOL    H9641088   7.600   4.657   1.029  1.7624 -0.9729 -2.2312
  337MOL    H9741089   0.008   4.524   1.028 -0.2493 -0.3760 -0.6841
  337MOL    C9841090   7.489   4.465   1.065  0.3822  0.1622  0.5662
  337MOL    C9941091   7.436   4.465   0.922 -0.1877 -0.1355  0.6384
  337MOL   H10041092   7.523   4.367   1.100 -0.6915 -0.2917  0.3536
  337MOL   H10141093   7.412   4.499   1.134  0.0921  0.2122  0.2205
  337MOL   H10241094   7.402   4.565   0.896  3.0926  0.3028 -2.1620
  337MOL   H10341095   7.508   4.437   0.846 -0.5344 -1.4829  0.7873
  337MOL   C10441096   7.311   4.375   0.906 -0.1588  0.5943 -0.0818
  337MOL   C10541097   7.260   4.352   0.763  0.2395 -0.1852 -0.4943
  337MOL   H10641098   7.324   4.278   0.955 -1.4230 -0.0468 -0.9664
  337MOL   H10741099   7.232   4.412   0.971 -1.0088 -1.5562  0.1602
  337MOL   H10841100   7.240   4.450   0.720  1.0147 -0.6285 -1.9150
  337MOL   H10941101   7.343   4.310   0.706  0.2141 -0.5201 -0.2834
  337MOL   C11041102   7.141   4.255   0.751  0.2246  0.3264 -0.1439
  337MOL   C11141103   7.107   4.216   0.607 -0.3484 -0.1397 -0.7410
  337MOL   H11241104   7.167   4.166   0.808 -2.0488  0.5789  1.3430
  337MOL   H11341105   7.058   4.310   0.795  0.5682  1.2776 -0.6795
  337MOL   H11441106   7.079   4.313   0.566 -1.5935 -0.0886  0.2095
  337MOL   H11541107   7.195   4.175   0.558 -0.8790 -0.1644 -1.6906
  337MOL   C11641108   6.992   4.106   0.599  0.5062  0.3592  0.0994
  337MOL   C11741109   6.956   4.064   0.457  0.0921 -0.5984  0.7926
  337MOL   H11841110   7.016   4.017   0.657 -0.1110  0.8942  1.1880
  337MOL   H11941111   6.900   4.149   0.640  1.9179  2.2610  1.3430
  337MOL   H12041112   6.876   3.990   0.454  0.9398 -1.4556 -2.1024
  337MOL   H12141113   6.926   4.151   0.399 -0.4187 -1.1571  0.2061
  337MOL   H12241114   7.046   4.029   0.408 -0.3985 -0.8183  0.0465
  338MOL     C141115   4.602   1.588   6.858  0.2952 -0.3010 -0.2895
  338MOL     C241116   4.518   1.469   6.900 -0.1562 -0.1262  1.3516
  338MOL     H341117   4.550   1.657   6.792 -1.1260 -0.8558  0.2373
  338MOL     H441118   4.683   1.554   6.794 -0.2810 -0.2913 -1.0232
  338MOL     H541119   4.581   1.396   6.952  1.3654  0.2451  0.0445
  338MOL     H641120   4.453   1.502   6.981 -0.8219 -0.0805  0.7926
  338MOL     H741121   4.644   1.641   6.944  0.1714 -1.1823  0.3182
  338MOL     C841122   4.434   1.404   6.789 -0.1609 -0.2819 -0.4249
  338MOL     C941123   4.325   1.301   6.836 -0.2826 -0.0038  0.4223
  338MOL    H1041124   4.386   1.486   6.735  0.0889 -0.3855 -0.8090
  338MOL    H1141125   4.499   1.350   6.720 -0.4525  0.9312 -1.6856
  338MOL    H1241126   4.246   1.346   6.896 -2.6498  0.5113 -2.9886
  338MOL    H1341127   4.272   1.277   6.744  0.7418 -2.0932  0.3470
  338MOL    C1441128   4.388   1.176   6.897  0.3630  0.2689 -1.2435
  338MOL    C1541129   4.323   1.045   6.857 -0.2966  0.3600  0.1003
  338MOL    H1641130   4.494   1.171   6.874  0.3881 -0.4279 -0.9723
  338MOL    H1741131   4.395   1.192   7.005  1.0997  2.1030 -1.5499
  338MOL    H1841132   4.217   1.054   6.881 -1.1515 -3.7384 -1.7219
  338MOL    H1941133   4.319   1.026   6.750  1.9330 -2.6373  0.4942
  338MOL    C2041134   4.383   0.932   6.930  0.0589 -0.0403 -0.6854
  338MOL    C2141135   4.308   0.797   6.908 -0.3368 -0.0742 -0.0055
  338MOL    H2241136   4.490   0.919   6.917  0.1333 -1.2871  0.9493
  338MOL    H2341137   4.374   0.942   7.038  1.0122 -0.8429 -0.5301
  338MOL    H2441138   4.218   0.786   6.968  0.6312  2.3615  1.9933
  338MOL    H2541139   4.272   0.780   6.807 -0.8314 -2.6500  0.5737
  338MOL    C2641140   4.407   0.684   6.937  0.9207  0.7258 -0.1197
  338MOL    C2741141   4.337   0.545   6.935 -0.0792 -1.2740  0.0559
  338MOL    H2841142   4.501   0.688   6.882 -0.1386  1.1418 -1.9082
  338MOL    H2941143   4.434   0.700   7.042 -0.8625  1.6102  0.2247
  338MOL    H3041144   4.274   0.537   7.024  1.3624  0.2867  1.2371
  338MOL    H3141145   4.292   0.524   6.838 -2.0678 -0.4328  0.7704
  338MOL    C3241146   4.443   0.432   6.955 -0.5371  0.0708  0.6251
  338MOL    C3341147   4.400   0.292   6.908  0.4625 -0.2708 -0.0530
  338MOL    H3441148   4.522   0.455   6.884 -0.8523  1.7679  0.8040
  338MOL    H3541149   4.482   0.444   7.056  1.4857  1.7175 -0.3062
  338MOL    H3641150   4.302   0.268   6.951  1.1766 -0.6401  1.4172
  338MOL    H3741151   4.388   0.287   6.800  0.4539  0.6285 -0.0973
  338MOL    C3841152   4.494   0.181   6.962 -0.6484 -0.8866  0.1397
  338MOL    C3941153   4.450   0.047   6.916 -0.6688  0.2615 -0.2862
  338MOL    H4041154   4.595   0.196   6.924 -0.3215  1.0790  1.7085
  338MOL    H4141155   4.503   0.195   7.070  1.6311 -0.6953 -0.0431
  338MOL    H4241156   4.346   0.029   6.941 -0.7320  1.4102  0.2989
  338MOL    H4341157   4.457   0.042   6.807  1.6880  3.1132 -0.3267
  338MOL    C4441158   4.529   7.628   6.989 -0.1230 -0.4403 -0.0120
  338MOL    C4541159   4.503   7.489   6.932 -0.3221  0.1533  0.4483
  338MOL    H4641160   4.636   7.638   6.971  0.0435 -0.6107  0.8475
  338MOL    H4741161   4.509   7.631   7.096 -0.5424  2.5877 -0.1310
  338MOL    H4841162   4.397   7.465   6.935 -0.7015  1.5376 -0.8928
  338MOL    H4941163   4.539   7.482   6.829  4.1064  4.4524  1.5458
  338MOL    C5041164   4.601   7.391   7.003  0.4178 -0.7985  0.0205
  338MOL    C5141165   4.550   7.243   6.980 -0.5652 -0.3397 -0.1897
  338MOL    H5241166   4.701   7.407   6.963  0.6774  2.0506  1.6926
  338MOL    H5341167   4.615   7.413   7.108  1.3972 -1.5787  0.0669
  338MOL    H5441168   4.450   7.221   7.020 -0.5861 -0.0621 -0.0910
  338MOL    H5541169   4.550   7.228   6.872  1.1477 -0.3094 -0.2042
  338MOL    C5641170   4.632   7.130   7.044  0.4044 -0.3024 -0.1891
  338MOL    C5741171   4.769   7.122   6.997 -0.4177  0.9193  0.0119
  338MOL    H5841172   4.627   7.143   7.152 -0.3887 -3.4163  0.1994
  338MOL    H5941173   4.570   7.046   7.011  1.7986 -2.4094  2.3781
  338MOL    H6041174   4.765   7.094   6.892 -0.1247 -1.8826  0.7146
  338MOL    H6141175   4.818   7.219   7.011  3.3648 -0.8652 -0.1339
  338MOL    C6241176   4.858   7.016   7.071 -0.4300 -0.3984 -0.3289
  338MOL    C6341177   4.895   7.053   7.216 -0.3693 -0.6125  0.3084
  338MOL    H6441178   4.805   6.921   7.073 -0.7173 -0.2689 -1.3280
  338MOL    H6541179   4.944   7.011   7.004  0.2351  0.6116  0.4287
  338MOL    H6641180   4.933   7.154   7.209  0.9153 -0.8937  2.8457
  338MOL    H6741181   4.811   7.044   7.284 -0.4349 -0.9571  0.1825
  338MOL    C6841182   5.016   6.989   7.279 -0.0266  0.2119  0.8027
  338MOL    C6941183   5.059   7.048   7.413  0.0062  0.1868 -0.6634
  338MOL    H7041184   4.989   6.885   7.294  1.4827 -0.6903 -2.3040
  338MOL    H7141185   5.100   6.977   7.210  0.4116  0.3598  1.3122
  338MOL    H7241186   5.099   7.150   7.414  2.2656 -0.6872  0.3365
  338MOL    H7341187   4.972   7.050   7.479 -0.6348 -2.3280 -1.3948
  338MOL    C7441188   5.168   6.964   7.494 -0.1042  0.3771  0.2672
  338MOL    C7541189   5.219   7.032   7.624 -0.1530 -0.2519 -0.6355
  338MOL    H7641190   5.117   6.870   7.514 -1.6264  0.9174 -0.9743
  338MOL    H7741191   5.237   6.935   7.415  1.6882  0.7979  1.6236
  338MOL    H7841192   5.324   7.010   7.640 -0.4448 -0.5742  0.9165
  338MOL    H7941193   5.212   7.139   7.603 -0.3534 -0.5107 -1.9347
  338MOL    C8041194   5.122   7.016   0.057 -0.1052 -0.7100  0.3550
  338MOL    C8141195   5.155   7.129   0.152 -0.4122  0.2904  0.3338
  338MOL    H8241196   5.019   7.016   0.021  0.1849 -0.9862 -0.4874
  338MOL    H8341197   5.146   6.918   0.098  2.4944 -0.9867 -1.7005
  338MOL    H8441198   5.152   7.226   0.102  0.3068 -0.0157 -0.3076
  338MOL    H8541199   5.064   7.136   0.212 -1.2913 -2.8773 -0.4843
  338MOL    C8641200   5.292   7.119   0.225 -0.2226 -0.2855 -0.0133
  338MOL    C8741201   5.293   7.217   0.340  0.2064 -0.0960  0.8585
  338MOL    H8841202   5.314   7.022   0.270  1.7767 -0.6490 -1.7290
  338MOL    H8941203   5.379   7.148   0.166  0.0174  1.7946  1.2873
  338MOL    H9041204   5.281   7.319   0.303  1.7821 -1.5218 -3.9492
  338MOL    H9141205   5.199   7.203   0.393 -0.3660 -0.6087 -0.2892
  338MOL    C9241206   5.411   7.204   0.432 -0.7572 -0.4108  0.8091
  338MOL    C9341207   5.390   7.272   0.575  1.0613  0.0465  0.1465
  338MOL    H9441208   5.430   7.098   0.450  0.0318 -0.2823  0.7754
  338MOL    H9541209   5.497   7.250   0.383  0.4721 -3.0679  0.3924
  338MOL    H9641210   5.380   7.379   0.557 -1.0543 -0.1609 -0.0656
  338MOL    H9741211   5.303   7.228   0.624  0.4454  0.8058 -0.2556
  338MOL    C9841212   5.517   7.265   0.662  0.2873  0.2903  0.2016
  338MOL    C9941213   5.543   7.125   0.724  0.0968  0.5714 -0.9508
  338MOL   H10041214   5.600   7.301   0.602  0.8336 -0.6071  0.4051
  338MOL   H10141215   5.514   7.343   0.738 -2.3706  1.1479 -0.7051
  338MOL   H10241216   5.458   7.093   0.784 -0.2767 -1.6916 -2.6291
  338MOL   H10341217   5.564   7.046   0.652 -0.9169  0.1114 -0.7520
  338MOL   C10441218   5.669   7.136   0.814 -0.5899 -0.5876  0.9021
  338MOL   C10541219   5.711   6.992   0.858 -0.4461 -0.0499 -0.1694
  338MOL   H10641220   5.749   7.183   0.757  0.9968 -0.3304  3.2694
  338MOL   H10741221   5.657   7.206   0.897 -0.5194  0.8467 -0.2909
  338MOL   H10841222   5.626   6.946   0.908 -0.1826 -0.7372 -0.3484
  338MOL   H10941223   5.730   6.928   0.772 -1.9009 -0.6564 -0.0514
  338MOL   C11041224   5.835   6.977   0.946  0.4128  0.3407  0.6981
  338MOL   C11141225   5.804   6.988   1.096  0.7306 -0.9784 -0.3157
  338MOL   H11241226   5.893   6.891   0.912  0.9615  1.5973 -1.6542
  338MOL   H11341227   5.897   7.062   0.914 -0.1608  1.4890  2.5455
  338MOL   H11441228   5.777   7.092   1.118 -1.8410 -1.7266  0.2238
  338MOL   H11541229   5.717   6.934   1.134 -0.6108  0.7176 -0.9231
  338MOL   C11641230   5.917   6.939   1.189 -0.5870  0.1947 -0.3775
  338MOL   C11741231   5.921   6.785   1.195  0.1560  0.0081 -0.0435
  338MOL   H11841232   6.008   6.983   1.150  0.5010  0.0885  1.9780
  338MOL   H11941233   5.916   6.991   1.285  2.9101  1.4624 -0.9570
  338MOL   H12041234   5.819   6.761   1.225  0.3978  1.3440  1.9414
  338MOL   H12141235   5.943   6.738   1.099  2.6064 -0.6494  0.8047
  338MOL   H12241236   5.989   6.742   1.268 -1.7035 -2.0387  0.5391
  339MOL     C141237   4.809   2.097   7.579 -0.5107 -0.0010 -0.1264
  339MOL     C241238   4.958   2.102   7.537 -1.0027 -0.5661  0.4133
  339MOL     H341239   4.750   2.188   7.570 -0.4609 -0.0791 -1.3366
  339MOL     H441240   4.808   2.076   7.685  0.8162  1.2578  0.1596
  339MOL     H541241   5.004   2.188   7.585  1.1957 -1.3554 -0.2168
  339MOL     H641242   5.017   2.018   7.575  2.7111  1.1728 -1.2839
  339MOL     H741243   4.758   2.022   7.520 -0.2662 -0.1239 -0.1829
  339MOL     C841244   4.984   2.121   7.389  0.0160  0.5308  0.3624
  339MOL     C941245   5.127   2.100   7.356  0.7121  0.0781  0.9552
  339MOL    H1041246   4.925   2.051   7.330  2.7317 -1.4405 -0.1040
  339MOL    H1141247   4.941   2.213   7.349  0.8048  0.2080 -1.2719
  339MOL    H1241248   5.193   2.171   7.405  2.2556  0.1643 -1.1902
  339MOL    H1341249   5.158   2.002   7.391  2.0492  0.2443  0.2476
  339MOL    C1441250   5.149   2.109   7.209 -0.4121  0.3357  0.2058
  339MOL    C1541251   5.292   2.090   7.173 -0.8851  0.0355  0.8523
  339MOL    H1641252   5.097   2.033   7.151  0.7114  1.7985 -2.8346
  339MOL    H1741253   5.112   2.208   7.184 -1.0503  0.3703  1.2728
  339MOL    H1841254   5.359   2.151   7.233 -0.2621 -0.5393  0.7562
  339MOL    H1941255   5.339   1.993   7.191 -0.4144  0.4640  1.9691
  339MOL    C2041256   5.311   2.134   7.028 -0.3260  0.4579 -0.8186
  339MOL    C2141257   5.455   2.128   6.982 -0.3425 -0.0885  0.2611
  339MOL    H2241258   5.251   2.067   6.966 -0.5060  0.2920 -0.4676
  339MOL    H2341259   5.271   2.236   7.025  1.5813  1.2906  1.0407
  339MOL    H2441260   5.524   2.169   7.056  2.4383 -1.3666 -1.5548
  339MOL    H2541261   5.474   2.021   6.984 -1.3073 -0.3052 -1.7671
  339MOL    C2641262   5.490   2.195   6.849  0.1797  0.3920  0.3013
  339MOL    C2741263   5.632   2.160   6.805 -0.1091 -0.9499 -0.1643
  339MOL    H2841264   5.424   2.155   6.772 -1.3539 -2.0307  2.8086
  339MOL    H2941265   5.476   2.303   6.852 -0.5076  0.3455 -0.8095
  339MOL    H3041266   5.647   2.052   6.807  2.9636 -0.5470  0.7088
  339MOL    H3141267   5.645   2.189   6.700  0.4709 -0.8135 -0.0590
  339MOL    C3241268   5.746   2.236   6.881 -0.0150  0.0334  0.4531
  339MOL    C3341269   5.883   2.228   6.812  0.2645  0.1556  0.1885
  339MOL    H3441270   5.716   2.341   6.877  0.5107  0.1772  0.3540
  339MOL    H3541271   5.745   2.211   6.987 -1.2166 -0.2942  0.3731
  339MOL    H3641272   5.910   2.123   6.827 -0.4913 -0.0991 -0.2376
  339MOL    H3741273   5.871   2.253   6.707  1.5275  1.4500  0.3289
  339MOL    C3841274   5.988   2.313   6.879 -0.7765 -0.3016  0.3491
  339MOL    C3941275   6.118   2.294   6.787 -0.2881  0.4134  0.3395
  339MOL    H4041276   5.961   2.419   6.880 -0.8541 -0.3271  1.2437
  339MOL    H4141277   6.003   2.284   6.983 -0.5828 -2.7362 -0.3378
  339MOL    H4241278   6.154   2.191   6.787 -0.3817  0.3755  1.1571
  339MOL    H4341279   6.103   2.332   6.686 -0.0850 -1.0930 -0.2778
  339MOL    C4441280   6.245   2.358   6.848  0.1608 -0.7328 -0.2887
  339MOL    C4541281   6.354   2.359   6.739 -0.6251  0.0359 -1.0300
  339MOL    H4641282   6.221   2.454   6.893 -1.5874 -1.2140 -0.1470
  339MOL    H4741283   6.279   2.300   6.934 -0.2720 -0.0399  0.3552
  339MOL    H4841284   6.367   2.259   6.697 -1.6455 -0.2380 -0.7048
  339MOL    H4941285   6.333   2.417   6.649 -1.1830  0.0275 -0.9045
  339MOL    C5041286   6.494   2.398   6.803  0.5905  0.9909  0.7335
  339MOL    C5141287   6.596   2.434   6.691  0.2543 -0.6797  0.6854
  339MOL    H5241288   6.485   2.477   6.877 -2.9173 -0.0299  1.4702
  339MOL    H5341289   6.545   2.316   6.854  0.0600 -1.1688 -2.0672
  339MOL    H5441290   6.563   2.394   6.595  2.7567  2.6460 -1.7341
  339MOL    H5541291   6.593   2.542   6.676  0.0035 -0.8897 -0.8470
  339MOL    C5641292   6.740   2.405   6.720  0.2364  0.1924  0.2882
  339MOL    C5741293   6.800   2.480   6.840 -0.5157  0.1260  0.5443
  339MOL    H5841294   6.747   2.298   6.740  0.3483  0.0669 -0.4221
  339MOL    H5941295   6.797   2.440   6.634  0.2679 -0.8733 -0.1376
  339MOL    H6041296   6.779   2.585   6.822 -0.0326  0.5330  2.2066
  339MOL    H6141297   6.749   2.456   6.934  1.0415  3.1924  2.2313
  339MOL    C6241298   6.951   2.468   6.844  0.8479 -0.4668 -0.5407
  339MOL    C6341299   7.007   2.555   6.959 -0.3227  0.4379 -0.0379
  339MOL    H6441300   6.965   2.363   6.872 -1.4846 -0.0757  2.3180
  339MOL    H6541301   7.004   2.489   6.751  0.9836 -0.8654 -0.5582
  339MOL    H6641302   7.000   2.658   6.925  0.6444  0.7498  0.6675
  339MOL    H6741303   6.951   2.550   7.053 -0.3062 -1.0578 -0.0903
  339MOL    C6841304   7.149   2.530   6.991  0.1715 -0.0386 -0.4098
  339MOL    C6941305   7.239   2.654   7.023 -0.1060 -1.0618 -0.0227
  339MOL    H7041306   7.167   2.457   7.070  0.4284 -0.0559 -0.4849
  339MOL    H7141307   7.200   2.497   6.901  2.5195 -1.7669  1.4788
  339MOL    H7241308   7.246   2.717   6.934 -0.4546  0.4326  0.9903
  339MOL    H7341309   7.180   2.711   7.095 -1.2804 -0.9819 -1.0332
  339MOL    C7441310   7.382   2.631   7.064  0.0711 -0.7402 -0.7304
  339MOL    C7541311   7.444   2.763   7.113  0.0691 -0.3611  0.3141
  339MOL    H7641312   7.401   2.561   7.145  0.8782  0.4438  0.1160
  339MOL    H7741313   7.443   2.596   6.980  1.4253 -1.2056  0.4272
  339MOL    H7841314   7.431   2.831   7.029 -1.4423  1.3029  1.8548
  339MOL    H7941315   7.374   2.778   7.195 -0.4739 -0.0698 -0.2060
  339MOL    C8041316   7.587   2.747   7.164 -0.6420 -0.5472 -0.3560
  339MOL    C8141317   7.642   2.891   7.206  0.5531  0.0384 -0.3174
  339MOL    H8241318   7.589   2.685   7.254 -0.9262  1.3517  0.9931
  339MOL    H8341319   7.652   2.693   7.096 -0.1701 -0.6097  0.1405
  339MOL    H8441320   7.609   2.960   7.128  1.4535 -1.3786 -1.9628
  339MOL    H8541321   7.581   2.913   7.295 -1.9664 -0.1037 -1.9516
  339MOL    C8641322   0.101   2.893   7.242 -0.0771 -0.5081 -0.0334
  339MOL    C8741323   0.142   3.038   7.287  0.8434 -0.8197  0.0983
  339MOL    H8841324   0.118   2.834   7.332 -1.5696  1.2547  1.4399
  339MOL    H8941325   0.169   2.850   7.168  1.4454 -0.6237  1.4088
  339MOL    H9041326   0.119   3.096   7.197  0.2359  1.2877  1.5861
  339MOL    H9141327   0.074   3.063   7.368 -1.0278 -0.8319 -1.4278
  339MOL    C9241328   0.287   3.060   7.322  0.8492  0.6425  0.2752
  339MOL    C9341329   0.322   3.194   7.377  0.1940 -0.0337  0.0908
  339MOL    H9441330   0.323   2.973   7.376 -4.4296 -1.9848 -0.1151
  339MOL    H9541331   0.333   3.051   7.223 -0.3142  0.9760 -0.2989
  339MOL    H9641332   0.287   3.273   7.310  0.4349 -0.0968 -0.1135
  339MOL    H9741333   0.266   3.205   7.470  1.1060  1.2775  0.5082
  339MOL    C9841334   0.468   3.217   7.414 -0.0279 -0.0763  0.5987
  339MOL    C9941335   0.567   3.244   7.300 -0.2710  0.2091  0.3647
  339MOL   H10041336   0.493   3.299   7.482 -1.9531  2.0441 -1.1829
  339MOL   H10141337   0.495   3.131   7.475  1.5175  0.0535  0.1323
  339MOL   H10241338   0.567   3.152   7.241  0.5116  0.9710 -0.8219
  339MOL   H10341339   0.547   3.336   7.246 -1.2268  1.4571  2.7413
  339MOL   C10441340   0.707   3.261   7.350 -0.0364  0.1581 -0.2535
  339MOL   C10541341   0.807   3.236   7.241  0.5308 -0.2071  0.5043
  339MOL   H10641342   0.728   3.354   7.402 -2.1476  0.3808  0.2645
  339MOL   H10741343   0.720   3.187   7.429  2.1817  0.9290  0.1225
  339MOL   H10841344   0.789   3.129   7.226  0.6845 -0.0434 -0.9536
  339MOL   H10941345   0.771   3.288   7.152 -4.5013 -0.5841  2.1679
  339MOL   C11041346   0.948   3.270   7.289 -0.3464  0.4144  0.8560
  339MOL   C11141347   1.029   3.248   7.159  0.2026 -0.1231 -0.2256
  339MOL   H11241348   0.951   3.370   7.330  1.4050  0.4354  0.7194
  339MOL   H11341349   0.968   3.197   7.368 -0.3631 -0.8755 -0.3056
  339MOL   H11441350   1.010   3.153   7.108 -0.3212 -0.8863  1.3732
  339MOL   H11541351   1.020   3.330   7.087  2.1602 -0.8251 -1.3096
  339MOL   C11641352   1.180   3.249   7.187  0.0983  0.0840  0.2006
  339MOL   C11741353   1.225   3.391   7.221 -0.3587 -0.1009  0.6582
  339MOL   H11841354   1.211   3.172   7.258  1.6947  2.4036  2.0963
  339MOL   H11941355   1.233   3.214   7.098 -1.5208 -2.5576  0.2289
  339MOL   H12041356   1.222   3.454   7.132 -2.4180 -2.2014 -0.8055
  339MOL   H12141357   1.174   3.429   7.309  0.6695  1.3166  0.6642
  339MOL   H12241358   1.330   3.382   7.248  0.0686  0.6566 -0.6797
  340MOL     C141359   6.766   0.943   3.945  0.3112  0.8949  0.4546
  340MOL     C241360   6.913   0.933   3.902 -0.1863 -0.7251  0.7930
  340MOL     H341361   6.761   0.973   4.050  0.2272  0.3605  0.6027
  340MOL     H441362   6.713   0.849   3.958  0.8258  0.6057  0.4929
  340MOL     H541363   6.908   0.880   3.806 -3.0082  2.3734 -0.9216
  340MOL     H641364   6.963   1.028   3.886  2.2246 -1.9673  0.8438
  340MOL     H741365   6.711   1.012   3.882  0.9344 -0.2777 -1.3907
  340MOL     C841366   7.001   0.842   3.981 -0.2663  0.7204 -0.2976
  340MOL     C941367   7.145   0.829   3.926  0.3799  0.4086 -0.0605
  340MOL    H1041368   7.014   0.876   4.084  0.3031 -1.7968  0.4879
  340MOL    H1141369   6.947   0.749   3.995  2.4316 -1.0833 -1.5471
  340MOL    H1241370   7.150   0.808   3.819 -0.7273 -1.2902  0.1984
  340MOL    H1341371   7.183   0.931   3.921 -1.7377  1.1182 -2.6022
  340MOL    C1441372   7.233   0.730   4.016  0.5892  0.2616  0.2640
  340MOL    C1541373   7.375   0.717   3.961  0.3647  0.6236  0.5419
  340MOL    H1641374   7.234   0.770   4.117 -3.8225 -1.9367  1.2961
  340MOL    H1741375   7.181   0.636   4.030  0.5331  0.1641 -0.5497
  340MOL    H1841376   7.378   0.706   3.853  1.3857 -2.0271  0.7992
  340MOL    H1941377   7.437   0.806   3.973  1.4634  0.3382 -2.7041
  340MOL    C2041378   7.430   0.589   4.032 -0.0809 -0.2983  0.8663
  340MOL    C2141379   7.558   0.549   3.971 -1.0037  0.2713 -0.1366
  340MOL    H2241380   7.434   0.609   4.139  0.4285  0.1321  0.7726
  340MOL    H2341381   7.376   0.497   4.013  2.1152 -0.5874 -4.8974
  340MOL    H2441382   7.551   0.557   3.863  0.5763 -0.1499 -0.2890
  340MOL    H2541383   7.637   0.618   3.999 -1.4854  1.2647 -1.1960
  340MOL    C2641384   7.596   0.398   4.004 -0.6472  0.6964  0.3435
  340MOL    C2741385   7.639   0.369   4.146 -0.1340  0.4644  0.2988
  340MOL    H2841386   7.507   0.339   3.985 -1.3303  2.0464 -0.7697
  340MOL    H2941387   7.667   0.351   3.936 -2.0923 -0.8221 -0.1557
  340MOL    H3041388   7.570   0.421   4.213 -1.0469  1.3385 -1.2957
  340MOL    H3141389   7.621   0.263   4.164 -1.2638  0.6076  0.0516
  340MOL    C3241390   0.090   0.410   4.177 -0.1533  0.6774 -0.1345
  340MOL    C3341391   0.146   0.352   4.317 -0.1536 -0.0799  0.1241
  340MOL    H3441392   0.154   0.362   4.103  0.2243 -2.0843  1.8804
  340MOL    H3541393   0.104   0.516   4.160 -0.2644  0.5578 -0.9762
  340MOL    H3641394   0.171   0.246   4.308 -0.1409 -0.1831  1.2869
  340MOL    H3741395   0.245   0.391   4.339 -0.4805  0.7468  0.1467
  340MOL    C3841396   0.055   0.381   4.439 -0.6694 -0.0135  0.7646
  340MOL    C3941397   0.096   0.315   4.569  0.0376  0.1991 -0.0907
  340MOL    H4041398   0.075   0.488   4.435  0.0944 -0.1044  1.9664
  340MOL    H4141399   7.645   0.349   4.417 -0.6234 -0.2538  0.9005
  340MOL    H4241400   0.075   0.208   4.568  0.5159  0.1009  0.4766
  340MOL    H4341401   0.201   0.329   4.595 -0.0755  0.9763 -0.0366
  340MOL    C4441402   0.013   0.367   4.687  0.6733 -0.8058 -0.0265
  340MOL    C4541403   7.649   0.516   4.689 -0.2890  0.0915  0.1769
  340MOL    H4641404   7.624   0.299   4.714  0.3317  0.1201  1.3392
  340MOL    H4741405   0.075   0.354   4.776 -1.1535 -0.1726  1.3858
  340MOL    H4841406   0.041   0.584   4.672 -0.3496 -0.0856 -0.8547
  340MOL    H4941407   7.573   0.532   4.612 -0.8133 -0.4948  0.5661
  340MOL    C5041408   7.582   0.542   4.826 -0.3358  0.0785  0.4020
  340MOL    C5141409   7.459   0.447   4.868 -0.4605  0.6845 -0.3645
  340MOL    H5241410   7.654   0.529   4.908  1.1739  1.2497 -0.7056
  340MOL    H5341411   7.554   0.646   4.810  4.1301  1.3380  0.1041
  340MOL    H5441412   7.389   0.433   4.786 -2.5400 -0.4287  1.5296
  340MOL    H5541413   7.499   0.347   4.883  2.8136  2.3452  2.8127
  340MOL    C5641414   7.392   0.488   4.995 -0.2716 -0.8533 -0.5883
  340MOL    C5741415   7.247   0.431   5.006 -0.2586 -0.0443  0.3545
  340MOL    H5841416   7.451   0.469   5.085 -0.5178 -0.8862 -0.4326
  340MOL    H5941417   7.381   0.596   4.984  0.3393 -0.7817 -0.5330
  340MOL    H6041418   7.180   0.464   4.926  0.9053 -0.8130 -0.9558
  340MOL    H6141419   7.248   0.322   5.016  0.2127 -0.0887 -0.1406
  340MOL    C6241420   7.186   0.473   5.140 -0.3052  0.3547 -0.2773
  340MOL    C6341421   7.034   0.446   5.147 -0.7863  0.2447  0.5838
  340MOL    H6441422   7.235   0.431   5.228  0.9557  0.6732 -0.8079
  340MOL    H6541423   7.201   0.580   5.154  2.1618 -0.0823  0.7160
  340MOL    H6641424   6.989   0.495   5.061  0.8249 -1.3295 -1.1986
  340MOL    H6741425   7.018   0.339   5.132  1.8618 -0.0717 -0.2390
  340MOL    C6841426   6.978   0.508   5.277  0.5568 -0.1672  0.2310
  340MOL    C6941427   6.826   0.491   5.302 -0.4736  0.0272  0.1300
  340MOL    H7041428   7.028   0.495   5.373  0.7395 -0.8294  0.0507
  340MOL    H7141429   6.974   0.613   5.248 -0.8244 -0.3549 -0.2843
  340MOL    H7241430   6.776   0.551   5.226  0.2402  0.6850  0.1647
  340MOL    H7341431   6.794   0.389   5.281  0.2756 -0.6754  2.3048
  340MOL    C7441432   6.775   0.539   5.443 -0.0001 -0.4632 -0.0879
  340MOL    C7541433   6.622   0.515   5.455  0.4044 -0.7583  0.3881
  340MOL    H7641434   6.819   0.472   5.517  0.0085 -0.6552 -0.2643
  340MOL    H7741435   6.805   0.637   5.481  0.2303  0.4679 -2.6225
  340MOL    H7841436   6.573   0.587   5.388 -2.5238  0.5092  3.7397
  340MOL    H7941437   6.604   0.413   5.421 -1.5104  0.1143 -1.3364
  340MOL    C8041438   6.556   0.538   5.591 -0.1786 -0.3548 -0.4919
  340MOL    C8141439   6.403   0.491   5.577  0.4754 -0.0608  0.2067
  340MOL    H8241440   6.601   0.477   5.669 -1.4659 -0.5897  0.0815
  340MOL    H8341441   6.560   0.646   5.604 -0.3438 -0.3386 -0.5795
  340MOL    H8441442   6.367   0.528   5.481 -0.1598 -0.4157  0.3063
  340MOL    H8541443   6.405   0.384   5.559 -3.5938 -0.0298 -0.9311
  340MOL    C8641444   6.310   0.527   5.695 -0.3977 -0.7695 -0.2862
  340MOL    C8741445   6.169   0.460   5.684  0.6314 -0.1006 -0.7365
  340MOL    H8841446   6.364   0.492   5.783 -0.9818 -1.6677 -0.2804
  340MOL    H8941447   6.305   0.633   5.719  1.0203 -1.3403  2.7700
  340MOL    H9041448   6.179   0.356   5.656  2.1480 -0.9383  2.7265
  340MOL    H9141449   6.115   0.467   5.778  1.4342  1.8335 -0.3914
  340MOL    C9241450   6.074   0.525   5.578  0.3774 -0.3484 -0.1312
  340MOL    C9341451   5.945   0.452   5.553 -0.4241  0.7386 -0.1081
  340MOL    H9441452   6.056   0.625   5.615  0.7517  0.0305 -0.9555
  340MOL    H9541453   6.107   0.539   5.475 -1.1851  0.5937 -0.5193
  340MOL    H9641454   5.890   0.419   5.640  0.2873 -0.8776 -0.2453
  340MOL    H9741455   5.883   0.520   5.495 -0.4697  0.4034 -0.4619
  340MOL    C9841456   5.956   0.334   5.452 -0.1024  0.2794 -0.2455
  340MOL    C9941457   5.828   0.264   5.433 -0.6752 -0.6485  0.3819
  340MOL   H10041458   5.996   0.369   5.357 -0.7211  0.8085 -0.3217
  340MOL   H10141459   6.027   0.264   5.495  0.7487  0.8899 -0.6369
  340MOL   H10241460   5.788   0.246   5.533 -1.6402  0.4554  0.1978
  340MOL   H10341461   5.763   0.334   5.381  2.5881  1.8036 -0.5767
  340MOL   C10441462   5.844   0.142   5.345  0.1081  0.1287 -0.3338
  340MOL   C10541463   5.865   0.166   5.197  0.7011 -0.0709 -0.1134
  340MOL   H10641464   5.934   0.088   5.375  0.3976  0.3809 -0.7398
  340MOL   H10741465   5.761   0.073   5.360 -1.2565  1.4646 -1.5807
  340MOL   H10841466   5.784   0.229   5.161  2.1485  0.3954 -2.6944
  340MOL   H10941467   5.963   0.213   5.195  2.1702 -3.0184  0.2469
  340MOL   C11041468   5.883   0.035   5.122  0.2390 -0.2009 -0.8199
  340MOL   C11141469   5.959   0.048   4.992 -0.1062  0.3387  0.9095
  340MOL   H11241470   5.932   7.650   5.181  0.4101  1.0544  0.7163
  340MOL   H11341471   5.789   7.674   5.106  1.2636 -2.7679  1.2094
  340MOL   H11441472   5.894   0.066   4.906 -0.1345 -0.1797  0.8233
  340MOL   H11541473   6.035   0.127   4.987  1.0914 -0.7473  1.6721
  340MOL   C11641474   6.022   7.608   4.948 -0.8194 -0.5087 -0.2721
  340MOL   C11741475   6.081   7.611   4.806 -0.1063  0.1241  0.0131
  340MOL   H11841476   6.095   7.589   5.027 -1.2040  0.8332  0.4202
  340MOL   H11941477   5.947   7.528   4.951  0.1051 -1.4163 -1.3261
  340MOL   H12041478   6.139   0.007   4.778 -1.8129  1.9502  2.0469
  340MOL   H12141479   6.133   7.517   4.786 -2.3207 -1.4019  1.1977
  340MOL   H12241480   5.993   7.606   4.743 -0.8496 -2.8785  1.1834
  341MOL     C141481   2.493   7.083   3.029  0.3774 -0.2799 -1.0573
  341MOL     C241482   2.442   6.943   3.061  0.8764 -0.4283  0.1754
  341MOL     H341483   2.494   7.146   3.117 -1.2926 -0.4149 -0.9335
  341MOL     H441484   2.433   7.137   2.955 -0.7421  0.7778  0.5924
  341MOL     H541485   2.443   6.894   2.964 -0.9756  2.2729 -1.2779
  341MOL     H641486   2.505   6.882   3.127 -0.9620 -1.4131  1.0657
  341MOL     H741487   2.592   7.084   2.983  0.6307 -0.0897 -0.5046
  341MOL     C841488   2.293   6.932   3.102  0.9933 -0.4743  0.6612
  341MOL     C941489   2.259   6.793   3.171  0.2957  0.3626 -0.0711
  341MOL    H1041490   2.264   7.019   3.160  0.8121 -0.1008  0.0089
  341MOL    H1141491   2.229   6.951   3.016  0.7069 -0.6867  0.8276
  341MOL    H1241492   2.334   6.720   3.140 -0.7293 -1.0829  0.7878
  341MOL    H1341493   2.255   6.797   3.280 -0.2908 -0.5761 -0.0527
  341MOL    C1441494   2.122   6.729   3.125 -0.4302 -0.0531  0.5155
  341MOL    C1541495   2.119   6.583   3.157  0.0753 -0.1399 -0.3619
  341MOL    H1641496   2.039   6.792   3.156 -0.6626 -0.3217  0.4376
  341MOL    H1741497   2.136   6.743   3.018 -0.5602  1.7631  0.7194
  341MOL    H1841498   2.046   6.537   3.091 -0.5695 -1.1903  1.0617
  341MOL    H1941499   2.217   6.537   3.139 -1.6332 -4.3266  0.5358
  341MOL    C2041500   2.067   6.563   3.306 -0.0466 -0.4826  1.0108
  341MOL    C2141501   2.075   6.423   3.354 -0.0917  0.2013 -0.2756
  341MOL    H2241502   2.115   6.635   3.372 -0.7302  0.3055  0.6578
  341MOL    H2341503   1.964   6.590   3.326 -0.0234  0.1634  0.2778
  341MOL    H2441504   1.987   6.367   3.322 -1.4850  2.1985 -0.0174
  341MOL    H2541505   2.171   6.382   3.320  0.6904  2.1887 -0.5073
  341MOL    C2641506   2.095   6.430   3.501 -0.1438 -0.0529  0.7127
  341MOL    C2741507   2.089   6.298   3.588 -0.2244  0.2046  0.6988
  341MOL    H2841508   2.199   6.455   3.522 -0.7342  1.3767  1.9909
  341MOL    H2941509   2.046   6.518   3.540 -2.5400 -1.7137  1.5752
  341MOL    H3041510   1.985   6.267   3.599 -0.3721  1.0456  1.6755
  341MOL    H3141511   2.133   6.222   3.522 -1.2858  0.3704 -0.2092
  341MOL    C3241512   2.160   6.317   3.717 -0.0506 -0.2342 -0.0419
  341MOL    C3341513   2.134   6.201   3.804 -0.3823 -0.3936 -0.3320
  341MOL    H3441514   2.265   6.311   3.686 -0.1512  0.5456 -0.5457
  341MOL    H3541515   2.136   6.410   3.767 -2.5413 -1.6581  1.5005
  341MOL    H3641516   2.159   6.226   3.907  1.1931 -1.3727 -0.4620
  341MOL    H3741517   2.026   6.189   3.808 -0.4005  0.1206  0.8226
  341MOL    C3841518   2.198   6.061   3.766 -0.1359 -0.2725 -0.0897
  341MOL    C3941519   2.151   5.947   3.857 -0.3573 -0.1181  0.0728
  341MOL    H4041520   2.168   6.028   3.666 -0.7923 -2.2580  0.7262
  341MOL    H4141521   2.305   6.079   3.779 -0.0459  1.0885 -2.3988
  341MOL    H4241522   2.226   5.868   3.851 -0.1776 -0.0209  1.0506
  341MOL    H4341523   2.162   5.976   3.961  0.0600 -0.7915  0.2153
  341MOL    C4441524   2.001   5.904   3.835  0.1255 -0.7823  0.8438
  341MOL    C4541525   1.934   5.816   3.943  0.5830  0.7595 -0.1631
  341MOL    H4641526   1.940   5.990   3.807 -1.0561 -1.5512  1.0196
  341MOL    H4741527   2.001   5.840   3.747  2.9832 -1.0888  1.0152
  341MOL    H4841528   1.845   5.763   3.911  0.4548  1.1815 -0.5133
  341MOL    H4941529   2.011   5.740   3.956 -1.4497 -1.2579  0.2546
  341MOL    C5041530   1.899   5.888   4.074  0.0657 -0.2764  0.1785
  341MOL    C5141531   1.864   5.801   4.195 -0.3066 -0.6514 -0.0301
  341MOL    H5241532   1.982   5.956   4.096 -1.6921  1.2818  2.1401
  341MOL    H5341533   1.816   5.956   4.056 -1.2841 -1.7717  0.6694
  341MOL    H5441534   1.786   5.735   4.157  0.2324 -0.9773 -0.5897
  341MOL    H5541535   1.944   5.738   4.234 -0.2892 -0.0220  0.9373
  341MOL    C5641536   1.801   5.890   4.308  0.7657 -0.3567 -0.0702
  341MOL    C5741537   1.789   5.823   4.444  0.1961 -0.1284 -0.2373
  341MOL    H5841538   1.865   5.977   4.322  0.6004 -0.5070  1.6368
  341MOL    H5941539   1.702   5.923   4.275  0.9181 -0.4079 -0.5807
  341MOL    H6041540   1.759   5.720   4.426 -0.6330  0.0009  0.3563
  341MOL    H6141541   1.891   5.815   4.481 -0.1766  0.0134  0.8272
  341MOL    C6241542   1.717   5.905   4.551 -0.2736  0.2306  0.0008
  341MOL    C6341543   1.718   5.840   4.688 -0.4556  0.3040  0.0540
  341MOL    H6441544   1.764   6.003   4.554 -2.9539  1.5091  3.4276
  341MOL    H6541545   1.614   5.918   4.518 -1.0171  0.5608  2.3057
  341MOL    H6641546   1.683   5.738   4.671  0.3706 -0.0174  0.2620
  341MOL    H6741547   1.818   5.830   4.729 -0.4225 -0.5642 -0.2315
  341MOL    C6841548   1.643   5.928   4.790 -0.0237  0.0016 -0.8758
  341MOL    C6941549   1.641   5.861   4.935 -0.2501  0.8592  0.0655
  341MOL    H7041550   1.689   6.027   4.786  0.2897 -0.2142 -3.4772
  341MOL    H7141551   1.543   5.940   4.749 -0.7029  1.3640  1.1488
  341MOL    H7241552   1.572   5.778   4.924  1.3130 -0.6256  1.2545
  341MOL    H7341553   1.735   5.816   4.967 -0.7332  1.0732  1.8319
  341MOL    C7441554   1.601   5.954   5.053  0.0931  0.0820  0.4380
  341MOL    C7541555   1.669   6.098   5.045 -0.5817  0.0176  0.4505
  341MOL    H7641556   1.498   5.976   5.025  0.0399 -1.8902 -0.9457
  341MOL    H7741557   1.614   5.896   5.145 -0.9622 -1.9451 -0.6653
  341MOL    H7841558   1.771   6.080   5.014 -0.8809 -3.0551  1.1248
  341MOL    H7941559   1.618   6.157   4.969 -1.3499  0.9725  1.6774
  341MOL    C8041560   1.671   6.185   5.174 -0.0936 -0.0694 -0.4394
  341MOL    C8141561   1.752   6.314   5.144 -0.2812  0.6625  0.4304
  341MOL    H8241562   1.568   6.215   5.196 -0.1382 -2.0505  2.3448
  341MOL    H8341563   1.715   6.142   5.264  1.2534  2.1550  0.0101
  341MOL    H8441564   1.858   6.286   5.148 -0.3975  0.4506  2.8017
  341MOL    H8541565   1.731   6.339   5.040 -0.2039 -2.4793 -0.3982
  341MOL    C8641566   1.719   6.431   5.234  0.2570  0.4841 -0.4088
  341MOL    C8741567   1.818   6.541   5.189 -0.1925  0.8752 -0.0346
  341MOL    H8841568   1.616   6.462   5.215  0.7005  2.3088  0.1542
  341MOL    H8941569   1.727   6.403   5.339  1.3385  1.8865 -0.1018
  341MOL    H9041570   1.922   6.510   5.193 -0.4676 -0.0018  0.3703
  341MOL    H9141571   1.795   6.549   5.083 -0.1105 -1.2848 -0.2433
  341MOL    C9241572   1.784   6.674   5.259  0.4222 -0.1073  0.1184
  341MOL    C9341573   1.899   6.778   5.249  0.2617 -0.1654  0.1139
  341MOL    H9441574   1.692   6.709   5.212  1.4429 -0.1036 -1.9572
  341MOL    H9541575   1.770   6.675   5.367 -0.0276  2.5963  0.0711
  341MOL    H9641576   1.983   6.732   5.302 -0.3947  0.2046  1.5023
  341MOL    H9741577   1.927   6.771   5.144 -1.4674 -1.7714 -0.2660
  341MOL    C9841578   1.865   6.914   5.293  0.0453 -0.0741  0.1648
  341MOL    C9941579   1.987   7.010   5.305 -0.2956 -0.4498  0.1368
  341MOL   H10041580   1.781   6.953   5.236 -0.7812  1.6420  2.4887
  341MOL   H10141581   1.821   6.900   5.392  2.9453 -0.0336  1.5109
  341MOL   H10241582   2.046   6.970   5.387  2.0621 -1.2029 -1.8489
  341MOL   H10341583   2.056   6.987   5.224  0.3173 -0.9498  0.7947
  341MOL   C10441584   1.956   7.160   5.325  0.1158  0.3636  0.5014
  341MOL   C10541585   2.070   7.252   5.274  0.4691 -0.2440 -0.3640
  341MOL   H10641586   1.864   7.183   5.271 -0.5198 -1.4661  0.7529
  341MOL   H10741587   1.944   7.180   5.431 -1.4042  1.5741  0.1222
  341MOL   H10841588   2.149   7.239   5.347  0.4073 -3.2769 -0.8015
  341MOL   H10941589   2.109   7.229   5.175 -0.8495 -1.7321 -0.5647
  341MOL   C11041590   2.030   7.403   5.277  0.2223  0.5787  0.2175
  341MOL   C11141591   2.157   7.490   5.276 -0.1888  0.5038 -0.5152
  341MOL   H11241592   1.971   7.424   5.188  2.1371 -0.7628 -1.4222
  341MOL   H11341593   1.968   7.414   5.366 -2.2330 -0.9293 -1.2572
  341MOL   H11441594   2.213   7.451   5.362  0.0576 -2.5869 -2.0114
  341MOL   H11541595   2.210   7.459   5.186 -1.0892 -1.6634 -0.3236
  341MOL   C11641596   2.122   7.639   5.265  0.0161 -0.0572 -0.7831
  341MOL   C11741597   2.250   0.025   5.249 -0.4923 -0.1068  0.1909
  341MOL   H11841598   2.056   7.656   5.180  1.4329  0.9633 -1.7030
  341MOL   H11941599   2.068   7.679   5.351  1.0492 -1.4595  0.5446
  341MOL   H12041600   2.320   7.683   5.173 -1.1037 -2.2520  0.5617
  341MOL   H12141601   2.231   0.131   5.229 -0.3105 -0.4634 -2.0651
  341MOL   H12241602   2.308   0.019   5.340 -1.0731  0.2125  0.5875
  342MOL     C141603   4.382   4.104   1.271 -0.9552 -0.2354  0.6588
  342MOL     C241604   4.342   4.207   1.161  0.3321  0.8273  0.0519
  342MOL     H341605   4.424   4.167   1.349  2.0912 -2.1026  0.5863
  342MOL     H441606   4.465   4.036   1.256  1.0661  1.5534  3.2460
  342MOL     H541607   4.265   4.269   1.206 -3.0395 -2.0385 -1.4869
  342MOL     H641608   4.419   4.280   1.137 -0.3787  1.1745 -1.2285
  342MOL     H741609   4.299   4.037   1.295 -0.7423 -1.3531 -1.5880
  342MOL     C841610   4.283   4.148   1.035 -0.1134  0.4148 -1.0630
  342MOL     C941611   4.243   4.262   0.937  0.1196 -0.3436 -0.9193
  342MOL    H1041612   4.356   4.077   0.996 -0.6064 -1.3095  1.0052
  342MOL    H1141613   4.192   4.096   1.066  1.2787 -0.9417  0.9318
  342MOL    H1241614   4.188   4.341   0.987 -2.1398 -0.7586 -2.6963
  342MOL    H1341615   4.330   4.316   0.899  0.4571 -0.5769 -0.4906
  342MOL    C1441616   4.155   4.195   0.828 -0.2689 -0.0045 -0.3250
  342MOL    C1541617   4.130   4.298   0.715  0.5558 -0.3070 -0.0473
  342MOL    H1641618   4.204   4.103   0.796 -0.7729  0.1336 -1.5109
  342MOL    H1741619   4.056   4.167   0.864 -0.2291  1.7127  1.1628
  342MOL    H1841620   4.058   4.375   0.744  1.2480  0.1391  0.5390
  342MOL    H1941621   4.220   4.353   0.685  0.0025 -0.3690 -1.8717
  342MOL    C2041622   4.069   4.221   0.597  0.3306  0.5944 -0.3031
  342MOL    C2141623   4.038   4.297   0.470  1.1004 -0.0546  0.3475
  342MOL    H2241624   4.122   4.126   0.589  1.5447  1.3186 -0.9782
  342MOL    H2341625   3.969   4.192   0.631  0.3566  1.0998  0.2070
  342MOL    H2441626   3.974   4.382   0.493 -0.0523 -0.7235 -0.3289
  342MOL    H2541627   4.138   4.318   0.432  1.2338  0.1594  0.8049
  342MOL    C2641628   3.967   4.217   0.371 -0.1243 -0.0071  0.1903
  342MOL    C2741629   3.903   4.303   0.267 -0.1152  0.1155 -0.0187
  342MOL    H2841630   4.038   4.158   0.312 -0.5367 -0.6930  0.3818
  342MOL    H2941631   3.895   4.147   0.411  0.5781 -2.2436 -2.2588
  342MOL    H3041632   3.833   4.375   0.309  1.0217  1.2357 -0.0420
  342MOL    H3141633   3.976   4.348   0.200  1.2835 -3.5072 -1.0680
  342MOL    C3241634   3.825   4.214   0.172 -0.0335 -0.2285  0.1706
  342MOL    C3341635   3.783   4.288   0.046 -0.0685  0.7284  0.1952
  342MOL    H3441636   3.890   4.132   0.144  0.8220 -0.3080  2.3091
  342MOL    H3541637   3.737   4.165   0.213 -0.6531  0.7953  0.1009
  342MOL    H3641638   3.707   4.364   0.067 -1.1612  0.1869 -1.7223
  342MOL    H3741639   3.862   4.349   0.003  0.8543 -0.3858  0.2908
  342MOL    C3841640   3.728   4.197   7.629 -0.0997  0.0304  0.5234
  342MOL    C3941641   3.671   4.276   7.512 -0.3526 -0.1919  0.1913
  342MOL    H4041642   3.806   4.132   7.588 -2.7116 -1.0659 -3.0292
  342MOL    H4141643   3.646   4.140   7.672 -1.3673  2.3883  1.2874
  342MOL    H4241644   3.591   4.340   7.549 -0.1549  0.8938 -1.2068
  342MOL    H4341645   3.744   4.338   7.461 -0.6834 -1.3155 -1.6724
  342MOL    C4441646   3.617   4.177   7.405  0.8740 -0.0628  0.0136
  342MOL    C4541647   3.543   4.243   7.290 -0.4997 -0.2688  0.0602
  342MOL    H4641648   3.697   4.114   7.366  0.9171 -1.3354  2.1037
  342MOL    H4741649   3.542   4.115   7.453 -0.8065  0.9932 -1.1871
  342MOL    H4841650   3.466   4.307   7.334 -1.7088 -0.8966 -1.0993
  342MOL    H4941651   3.606   4.312   7.235  1.1555 -0.7979  1.2365
  342MOL    C5041652   3.470   4.140   7.202 -0.6886  0.4355 -0.6342
  342MOL    C5141653   3.383   4.195   7.091  0.1306  0.4147 -0.4776
  342MOL    H5241654   3.535   4.067   7.153  0.0299  1.3848 -1.1064
  342MOL    H5341655   3.420   4.062   7.260 -0.2711  0.4736 -0.2239
  342MOL    H5441656   3.291   4.246   7.123  1.5523  2.3920  0.6396
  342MOL    H5541657   3.433   4.277   7.040 -0.8473  0.4802 -1.3457
  342MOL    C5641658   3.350   4.083   6.989  0.7389 -0.6845  0.8661
  342MOL    C5741659   3.248   4.134   6.884 -0.3309 -0.0064 -0.0941
  342MOL    H5841660   3.439   4.046   6.938 -0.5575 -0.6321 -1.5194
  342MOL    H5941661   3.299   4.000   7.040 -2.7796  0.6377 -0.3187
  342MOL    H6041662   3.153   4.167   6.926 -0.1311  1.3808 -0.7037
  342MOL    H6141663   3.281   4.227   6.839  2.1885 -1.5186 -1.4809
  342MOL    C6241664   3.222   4.034   6.772 -0.5488 -0.4119 -0.3782
  342MOL    C6341665   3.114   4.085   6.672 -0.0582  0.2087 -0.1366
  342MOL    H6441666   3.313   4.005   6.719 -0.5498  0.4028 -0.8264
  342MOL    H6541667   3.180   3.946   6.820 -3.3124 -0.9744 -3.6516
  342MOL    H6641668   3.056   4.007   6.624 -0.0293 -0.4667  0.9102
  342MOL    H6741669   3.037   4.148   6.717  0.3610 -0.9476  2.2668
  342MOL    C6841670   3.184   4.161   6.565 -0.0131  0.3117 -0.3002
  342MOL    C6941671   3.090   4.213   6.456  0.6508 -0.4869  0.8503
  342MOL    H7041672   3.242   4.241   6.611  0.2741  0.1757 -0.4282
  342MOL    H7141673   3.257   4.094   6.520 -1.0399 -1.2876  0.3595
  342MOL    H7241674   3.027   4.140   6.406 -1.2754  0.3261  2.0400
  342MOL    H7341675   3.029   4.289   6.504  0.6570 -0.1913  0.3968
  342MOL    C7441676   3.175   4.291   6.349  0.4291  0.0338 -0.2236
  342MOL    C7541677   3.091   4.357   6.234 -0.1222 -1.0012  0.2663
  342MOL    H7641678   3.224   4.374   6.401 -2.5549  2.1276 -0.6456
  342MOL    H7741679   3.253   4.226   6.307  0.4136  0.5406 -1.0360
  342MOL    H7841680   3.021   4.278   6.209  0.6944 -1.5656 -0.2533
  342MOL    H7941681   3.043   4.453   6.255  0.1984 -0.1428 -2.7363
  342MOL    C8041682   3.188   4.379   6.117  0.6339  0.2812 -0.0571
  342MOL    C8141683   3.110   4.442   6.000 -0.1071  0.2801  0.5469
  342MOL    H8241684   3.254   4.460   6.146 -1.7418  2.2329  0.0590
  342MOL    H8341685   3.245   4.289   6.094  0.2645  0.0125  0.0596
  342MOL    H8441686   3.042   4.362   5.970 -0.9817  1.3263 -0.3217
  342MOL    H8541687   3.047   4.526   6.031  0.4663  0.6822  0.6160
  342MOL    C8641688   3.186   4.492   5.880  0.0306  0.4264  0.1581
  342MOL    C8741689   3.085   4.524   5.767  0.0807  0.5918  0.2604
  342MOL    H8841690   3.256   4.570   5.907 -0.4846  0.7570  0.5448
  342MOL    H8941691   3.249   4.410   5.844 -1.8103 -0.8038 -0.3182
  342MOL    H9041692   3.008   4.448   5.756  1.7535 -1.2032  0.5080
  342MOL    H9141693   3.027   4.611   5.797  0.3546  0.7399  0.3620
  342MOL    C9241694   3.149   4.533   5.624  0.0098  0.0340 -0.2154
  342MOL    C9341695   3.066   4.578   5.506 -0.1418 -0.0570 -0.3063
  342MOL    H9441696   3.242   4.590   5.625 -1.2138  2.0577  1.4041
  342MOL    H9541697   3.184   4.432   5.604  2.1985  0.7725 -0.2412
  342MOL    H9641698   2.975   4.518   5.502 -0.2689  0.1712 -1.0493
  342MOL    H9741699   3.033   4.680   5.527 -1.8700 -0.5040 -0.7910
  342MOL    C9841700   3.131   4.587   5.366  0.2280 -0.5465  0.1408
  342MOL    C9941701   3.028   4.625   5.260  0.8873  0.5920  0.2666
  342MOL   H10041702   3.200   4.670   5.382 -0.5428 -0.2842  2.1983
  342MOL   H10141703   3.190   4.498   5.343  1.9122 -0.1711  2.7579
  342MOL   H10241704   2.946   4.555   5.270  1.7049 -0.3051  0.7411
  342MOL   H10341705   2.984   4.724   5.267 -1.9825 -0.6617  0.6672
  342MOL   C10441706   3.088   4.593   5.120 -0.3892  0.3527  0.4409
  342MOL   C10541707   3.042   4.677   4.993  0.7559 -0.5698  0.0734
  342MOL   H10641708   3.197   4.593   5.123 -0.3435  2.1617 -0.5811
  342MOL   H10741709   3.061   4.488   5.105 -1.4466  0.4898  1.3182
  342MOL   H10841710   2.934   4.674   4.980  0.7489  0.9004 -0.2791
  342MOL   H10941711   3.064   4.782   5.014  0.6121 -0.8281  1.5770
  342MOL   C11041712   3.110   4.638   4.862  0.1963  0.2623  0.2621
  342MOL   C11141713   3.071   4.491   4.817 -0.3929  0.7386 -0.6678
  342MOL   H11241714   3.067   4.705   4.787  1.4867  1.5375  0.6276
  342MOL   H11341715   3.218   4.658   4.863  0.0942  0.7959  1.2656
  342MOL   H11441716   3.100   4.414   4.888  0.3040  0.6804 -1.0161
  342MOL   H11541717   2.965   4.465   4.817 -0.1934 -0.1099  0.0317
  342MOL   C11641718   3.135   4.456   4.681  0.1290 -1.1331  0.7797
  342MOL   C11741719   3.101   4.317   4.645 -0.0100 -0.1058 -0.0139
  342MOL   H11841720   3.102   4.535   4.614  1.0549 -0.7453  0.7774
  342MOL   H11941721   3.243   4.472   4.680 -0.1928  1.1888 -0.0260
  342MOL   H12041722   2.998   4.312   4.612  0.4667 -1.5772 -1.3568
  342MOL   H12141723   3.149   4.285   4.552  0.5320 -0.8736  0.5223
  342MOL   H12241724   3.125   4.251   4.729  1.6148  1.1134  0.4993
  343MOL     C141725   0.655   0.223   3.670 -0.0144 -0.5579 -0.5434
  343MOL     C241726   0.537   0.316   3.674  0.0539 -0.3814 -0.0970
  343MOL     H341727   0.626   0.124   3.704  1.2010 -0.6352  0.3045
  343MOL     H441728   0.729   0.238   3.749 -0.4348  0.7094 -0.3900
  343MOL     H541729   0.472   0.284   3.756 -2.1006  0.0530 -1.5909
  343MOL     H641730   0.563   0.418   3.703  0.5574 -0.5512  0.0647
  343MOL     H741731   0.700   0.208   3.572 -0.0425 -0.1922 -0.6115
  343MOL     C841732   0.453   0.325   3.542  0.5529 -0.0881  0.2320
  343MOL     C941733   0.331   0.420   3.546 -1.0581 -0.6503  0.4387
  343MOL    H1041734   0.520   0.351   3.460 -1.5665  0.4498 -1.3893
  343MOL    H1141735   0.414   0.227   3.514 -0.5509  0.8216 -1.6003
  343MOL    H1241736   0.255   0.385   3.616 -1.6744  0.4508  0.3235
  343MOL    H1341737   0.366   0.521   3.563 -2.4374  0.0911 -0.9762
  343MOL    C1441738   0.262   0.429   3.410  0.3107 -0.3127  0.3533
  343MOL    C1541739   0.137   0.520   3.405 -0.1081  0.2706 -0.0314
  343MOL    H1641740   0.334   0.462   3.335  0.8632  0.7051  1.3052
  343MOL    H1741741   0.227   0.331   3.378 -0.2543 -0.2416  0.7640
  343MOL    H1841742   0.069   0.493   3.486  0.2383  1.3734  0.6400
  343MOL    H1941743   0.170   0.621   3.429  0.5243 -0.0779  0.6174
  343MOL    C2041744   0.057   0.517   3.273  0.1185  0.2438  0.3045
  343MOL    C2141745   7.625   0.612   3.271 -0.4248 -0.5939 -0.2032
  343MOL    H2241746   0.123   0.515   3.186  0.5275  1.4464  0.5676
  343MOL    H2341747   0.009   0.420   3.261  1.4384 -0.3190 -0.5320
  343MOL    H2441748   7.559   0.583   3.353  1.1919  1.8172  2.0493
  343MOL    H2541749   7.659   0.713   3.295 -1.0531 -0.3561 -0.3235
  343MOL    C2641750   7.550   0.610   3.144  0.2120  0.2591  0.3628
  343MOL    C2741751   7.438   0.711   3.134  0.2557 -0.3828 -0.2619
  343MOL    H2841752   7.613   0.620   3.055 -0.2225 -1.3687 -0.1474
  343MOL    H2941753   7.498   0.514   3.140 -1.9678  1.3774  0.8482
  343MOL    H3041754   7.358   0.689   3.064  0.3711 -1.0227 -0.1968
  343MOL    H3141755   7.393   0.704   3.233 -0.8885 -1.7513 -0.8743
  343MOL    C3241756   7.482   0.854   3.122 -0.1276  0.6016 -0.4840
  343MOL    C3341757   7.365   0.952   3.144 -0.3300 -0.2491  0.6556
  343MOL    H3441758   7.568   0.882   3.184 -0.9241 -1.0143  1.4348
  343MOL    H3541759   7.519   0.861   3.020 -0.0379 -0.9476 -0.5746
  343MOL    H3641760   7.281   0.933   3.077 -0.9365  1.5128  0.9012
  343MOL    H3741761   7.333   0.946   3.248 -1.5353 -0.9235  0.2606
  343MOL    C3841762   7.416   1.096   3.140  0.6414  0.2747 -1.1807
  343MOL    C3941763   7.299   1.187   3.175  0.8714  0.2479  0.5133
  343MOL    H4041764   7.502   1.114   3.204 -0.5353  2.3156 -0.1018
  343MOL    H4141765   7.442   1.111   3.036  2.1546  1.5376 -0.6328
  343MOL    H4241766   7.247   1.176   3.079  1.8254  0.4361 -0.0300
  343MOL    H4341767   7.229   1.151   3.251 -2.3637 -1.8191 -3.2179
  343MOL    C4441768   7.346   1.331   3.202 -0.7376 -0.3630  0.0848
  343MOL    C4541769   7.244   1.443   3.216 -0.5538 -0.0616  0.1505
  343MOL    H4641770   7.403   1.334   3.295  1.1886  1.6493 -1.1042
  343MOL    H4741771   7.421   1.355   3.126 -0.2090 -1.4872  0.2444
  343MOL    H4841772   7.189   1.458   3.122 -0.1828 -2.9920 -0.5540
  343MOL    H4941773   7.166   1.423   3.290  0.3555 -3.1724  0.3175
  343MOL    C5041774   7.306   1.583   3.267 -0.0266  0.1743 -0.1029
  343MOL    C5141775   7.200   1.699   3.280  0.6779 -0.5033  0.4022
  343MOL    H5241776   7.364   1.575   3.360  1.2235 -1.8632 -1.0371
  343MOL    H5341777   7.372   1.619   3.189 -2.2533 -2.3722 -3.2974
  343MOL    H5441778   7.146   1.711   3.186 -0.2110  0.0148  0.9722
  343MOL    H5541779   7.122   1.658   3.345  1.9952  1.2643  3.1611
  343MOL    C5641780   7.248   1.840   3.315 -0.3192 -0.3072 -0.3662
  343MOL    C5741781   7.142   1.949   3.321 -0.0649  0.3845  0.1001
  343MOL    H5841782   7.289   1.826   3.415  1.4313 -1.5981 -1.2441
  343MOL    H5941783   7.324   1.866   3.242 -1.6058 -1.0786 -2.0262
  343MOL    H6041784   7.098   1.961   3.222 -2.5018  1.4969  1.2750
  343MOL    H6141785   7.067   1.916   3.393  1.8321 -0.1014  1.9104
  343MOL    C6241786   7.194   2.088   3.366 -0.2441  0.0794 -0.2010
  343MOL    C6341787   7.087   2.196   3.373 -0.1735  0.2646 -0.1885
  343MOL    H6441788   7.239   2.078   3.464  0.1317 -3.4406 -0.6553
  343MOL    H6541789   7.275   2.116   3.299  0.7805 -2.2988  0.0277
  343MOL    H6641790   7.048   2.210   3.272  0.3659 -1.6667 -0.6920
  343MOL    H6741791   7.002   2.162   3.432  1.0015  0.3148  1.5579
  343MOL    C6841792   7.139   2.327   3.432 -0.4178  0.0263 -0.0600
  343MOL    C6941793   7.164   2.325   3.583  0.7282  0.1030  1.0214
  343MOL    H7041794   7.229   2.369   3.387  0.2453  1.0312  2.1363
  343MOL    H7141795   7.068   2.404   3.400 -0.1519 -0.4066 -1.7061
  343MOL    H7241796   7.234   2.247   3.611  0.2494 -0.7737 -0.1666
  343MOL    H7341797   7.203   2.424   3.608 -0.3091  1.0502 -0.9463
  343MOL    C7441798   7.035   2.319   3.672  0.2561 -0.4977 -0.0497
  343MOL    C7541799   7.067   2.364   3.817  0.2148  0.8709  0.3320
  343MOL    H7641800   6.951   2.374   3.629 -1.0883 -3.0558 -0.7900
  343MOL    H7741801   6.992   2.219   3.681 -1.7281  0.4355  1.4490
  343MOL    H7841802   7.112   2.463   3.812 -0.4513  1.0996 -1.2805
  343MOL    H7941803   6.975   2.376   3.873  0.0879 -0.3488  0.4036
  343MOL    C8041804   7.170   2.277   3.901 -0.0840 -0.7802  0.2757
  343MOL    C8141805   7.120   2.130   3.916 -0.2602  0.3543 -0.4445
  343MOL    H8241806   7.266   2.277   3.850  0.6908  1.1154  1.7073
  343MOL    H8341807   7.183   2.311   4.004 -1.8842  0.4207  0.1408
  343MOL    H8441808   7.018   2.132   3.956 -0.7701 -0.4929 -1.6774
  343MOL    H8541809   7.121   2.088   3.815 -1.6334  0.9990 -0.7407
  343MOL    C8641810   7.202   2.051   4.013  0.0204 -0.0270 -1.0528
  343MOL    C8741811   7.151   2.058   4.159 -0.6350 -0.2331 -0.4333
  343MOL    H8841812   7.202   1.952   3.969  2.6497 -1.2409  1.4720
  343MOL    H8941813   7.306   2.086   4.010  0.0949 -0.3122 -1.8043
  343MOL    H9041814   7.192   2.147   4.208 -1.1768 -1.6913  2.8175
  343MOL    H9141815   7.043   2.072   4.165 -0.5018  0.3108  0.8403
  343MOL    C9241816   7.185   1.937   4.247 -0.0036 -0.0627  0.1325
  343MOL    C9341817   7.125   1.804   4.202 -0.2391 -0.1680 -0.1315
  343MOL    H9441818   7.293   1.928   4.254  0.0543  0.3912 -0.1016
  343MOL    H9541819   7.154   1.959   4.349  0.1871  1.0759 -0.0502
  343MOL    H9641820   7.018   1.819   4.194 -0.4084 -0.2390  1.7550
  343MOL    H9741821   7.168   1.775   4.106 -0.6640  2.5136 -1.1857
  343MOL    C9841822   7.166   1.681   4.282 -0.0845 -0.2579 -0.5697
  343MOL    C9941823   7.099   1.661   4.421 -0.7831  0.5377 -0.2474
  343MOL   H10041824   7.156   1.586   4.229  1.9878 -1.6603  1.4485
  343MOL   H10141825   7.274   1.689   4.296  0.0045 -1.0298 -0.7913
  343MOL   H10241826   7.115   1.757   4.469 -2.9286 -0.1010  1.8103
  343MOL   H10341827   6.996   1.635   4.396 -0.4305 -0.3217 -0.8234
  343MOL   C10441828   7.176   1.549   4.491  0.1278 -0.1044 -0.8469
  343MOL   C10541829   7.083   1.455   4.581 -0.1195 -0.2333 -0.1066
  343MOL   H10641830   7.212   1.484   4.411  2.3848 -0.9359  0.7896
  343MOL   H10741831   7.256   1.574   4.561 -1.3804  1.5931  0.3069
  343MOL   H10841832   7.015   1.408   4.511 -1.5156  0.3586  0.8166
  343MOL   H10941833   7.164   1.395   4.623  0.8871  0.9046 -0.3903
  343MOL   C11041834   7.006   1.527   4.699  0.2689  0.6108  0.1324
  343MOL   C11141835   6.883   1.452   4.757 -0.9416  0.1598 -0.5333
  343MOL   H11241836   7.081   1.530   4.778 -0.4919  1.0687  0.8502
  343MOL   H11341837   6.984   1.630   4.670 -0.9839  1.0869  2.6787
  343MOL   H11441838   6.814   1.432   4.675 -1.8583  0.0031  0.2780
  343MOL   H11541839   6.913   1.357   4.802  0.0060 -0.0408 -1.5592
  343MOL   C11641840   6.819   1.524   4.875 -0.5032  0.9045  0.0048
  343MOL   C11741841   6.915   1.539   5.003 -1.1718  0.2739  0.3021
  343MOL   H11841842   6.791   1.626   4.851 -0.3374  0.9956  0.1949
  343MOL   H11941843   6.721   1.487   4.904  0.0124 -0.0810  0.5258
  343MOL   H12041844   6.963   1.444   5.026 -0.3567  0.6095  0.0086
  343MOL   H12141845   7.003   1.603   4.995 -1.0585  0.0223 -0.5002
  343MOL   H12241846   6.868   1.583   5.091  0.2864  1.9131  0.2936
  344MOL     C141847   2.787   0.329   0.206 -0.3332 -0.2055 -0.5278
  344MOL     C241848   2.873   0.315   0.072 -0.5106  0.0223 -0.0947
  344MOL     H341849   2.690   0.280   0.209 -0.7712  0.6542 -0.3153
  344MOL     H441850   2.756   0.433   0.218 -1.1383 -0.0833 -3.3126
  344MOL     H541851   2.953   0.389   0.070 -0.6154  0.2652  2.8289
  344MOL     H641852   2.922   0.217   0.068 -1.4445 -0.5374  1.8992
  344MOL     H741853   2.838   0.313   0.301  2.0836  2.5705 -1.2541
  344MOL     C841854   2.776   0.319   7.643  0.0149  0.0518 -0.2314
  344MOL     C941855   2.852   0.286   7.513  0.3212  0.0932 -0.1237
  344MOL    H1041856   2.693   0.254   7.670 -0.8128  2.1822  2.5327
  344MOL    H1141857   2.724   0.414   7.637 -0.2738 -0.1374 -0.7469
  344MOL    H1241858   2.926   0.362   7.488  1.5113 -1.0125 -0.0612
  344MOL    H1341859   2.908   0.192   7.517 -0.6907 -0.5292 -0.2811
  344MOL    C1441860   2.762   0.264   7.400 -0.1288  0.0263 -0.3268
  344MOL    C1541861   2.835   0.229   7.269 -0.6083  0.6248  0.2743
  344MOL    H1641862   2.697   0.185   7.436  3.5975 -1.9299  2.3669
  344MOL    H1741863   2.703   0.354   7.384  1.5733  1.4428  1.1689
  344MOL    H1841864   2.888   0.320   7.238  0.2280  0.3411  0.8881
  344MOL    H1941865   2.902   0.149   7.298  0.7689  0.9910 -1.7643
  344MOL    C2041866   2.741   0.161   7.167  0.7464 -0.5578  0.7010
  344MOL    C2141867   2.816   0.112   7.037 -0.0855  0.8395  0.2666
  344MOL    H2241868   2.698   0.072   7.214  0.7715 -0.1999  1.4029
  344MOL    H2341869   2.658   0.223   7.132  0.8561  0.8993  2.9558
  344MOL    H2441870   2.894   0.186   7.018  2.9060 -2.2283  0.1701
  344MOL    H2541871   2.874   0.024   7.067  0.4179  0.6367 -1.2874
  344MOL    C2641872   2.723   0.077   6.922 -0.2615 -0.2256  0.0131
  344MOL    C2741873   2.797   0.056   6.793 -0.0381 -0.6469  0.3740
  344MOL    H2841874   2.681   7.673   6.953 -1.8494  0.7130  0.8695
  344MOL    H2941875   2.639   0.146   6.908  1.0825  1.7294  1.3364
  344MOL    H3041876   2.831   0.157   6.767  0.0704 -0.4910  1.1263
  344MOL    H3141877   2.890   0.002   6.811  2.5154  3.6407  0.9425
  344MOL    C3241878   2.709   7.685   6.684 -0.0894 -0.5223 -0.5463
  344MOL    C3341879   2.763   0.000   6.540 -0.7229  0.2402  0.5902
  344MOL    H3441880   2.686   7.580   6.704 -2.3495  0.1354  0.3716
  344MOL    H3541881   2.609   0.035   6.684 -0.1245 -0.5015  2.3200
  344MOL    H3641882   2.686   7.667   6.467  0.2797 -2.1285  0.2881
  344MOL    H3741883   2.803   0.099   6.518  0.8978 -0.5635 -0.1041
  344MOL    C3841884   2.878   7.588   6.524 -0.1162  0.2919  0.5742
  344MOL    C3941885   2.961   7.605   6.390 -0.5215  0.3453  0.4253
  344MOL    H4041886   2.943   7.597   6.612  0.3521  1.0404  0.1583
  344MOL    H4141887   2.837   7.487   6.522 -1.9374  1.0419 -2.6861
  344MOL    H4241888   2.894   7.577   6.308  1.7441 -1.0787 -1.0059
  344MOL    H4341889   2.992   0.017   6.389 -1.0130  0.4938 -0.7739
  344MOL    C4441890   3.073   7.506   6.381 -0.2066  0.2833  0.3875
  344MOL    C4541891   3.173   7.546   6.273  0.1352  0.4364 -0.3545
  344MOL    H4641892   3.132   7.514   6.472  1.5795  4.6344 -1.0147
  344MOL    H4741893   3.038   7.403   6.374 -1.3385  0.5208  2.0684
  344MOL    H4841894   3.130   7.566   6.175 -1.4053  1.9951  0.6092
  344MOL    H4941895   3.226   7.632   6.314 -0.8917  0.4372  1.0297
  344MOL    C5041896   3.283   7.444   6.250 -0.2393  0.3370  0.8481
  344MOL    C5141897   3.385   7.491   6.143 -0.5778  0.5150 -0.1098
  344MOL    H5241898   3.337   7.423   6.343  2.1870  1.7970 -0.1795
  344MOL    H5341899   3.228   7.357   6.215  1.7703 -0.3157 -0.7531
  344MOL    H5441900   3.329   7.500   6.050  1.6223 -1.5336 -1.6702
  344MOL    H5541901   3.413   7.590   6.180 -2.2896 -0.1046  3.0611
  344MOL    C5641902   3.503   7.390   6.123  0.0302 -0.6195  0.3918
  344MOL    C5741903   3.599   7.420   6.008  0.3619  0.0430  0.6496
  344MOL    H5841904   3.552   7.383   6.220  0.4389 -0.5510  0.1908
  344MOL    H5941905   3.453   7.295   6.101  0.2776 -0.6797  0.0931
  344MOL    H6041906   3.540   7.463   5.927  0.3656 -0.1646  0.5351
  344MOL    H6141907   3.656   7.504   6.049  0.7129  0.8435 -1.4250
  344MOL    C6241908   3.690   7.312   5.947  0.0318  0.7261 -0.0786
  344MOL    C6341909   3.787   7.246   6.040 -0.7667  0.0034 -0.0886
  344MOL    H6441910   3.626   7.238   5.899 -0.5180  1.5655 -0.6622
  344MOL    H6541911   3.730   7.368   5.862 -0.7020 -0.9357 -1.5697
  344MOL    H6641912   3.724   7.204   6.119  1.6786 -0.6887  1.5565
  344MOL    H6741913   3.828   7.162   5.984  1.2482  0.2167  1.0200
  344MOL    C6841914   3.894   7.346   6.096 -0.0301 -0.5027 -0.4062
  344MOL    C6941915   3.995   7.382   5.993 -0.5305  0.1239 -0.2562
  344MOL    H7041916   3.854   7.434   6.147  1.2236  0.4797 -1.0735
  344MOL    H7141917   3.941   7.285   6.173  2.9511  3.1293  0.8311
  344MOL    H7241918   4.044   7.291   5.957 -0.6941  0.1446 -0.5297
  344MOL    H7341919   3.969   7.439   5.904 -1.3953 -0.8253 -0.6156
  344MOL    C7441920   4.111   7.465   6.047 -0.2976  0.2942  0.7688
  344MOL    C7541921   4.076   7.614   6.077  1.0575 -0.0414  0.3770
  344MOL    H7641922   4.140   7.409   6.136  2.1498 -0.8942 -0.7285
  344MOL    H7741923   4.197   7.470   5.981  0.3585  0.6563  1.6397
  344MOL    H7841924   4.033   7.681   6.001  1.2380 -0.2127  0.1231
  344MOL    H7941925   4.003   7.621   6.157 -0.4691  0.7706 -1.0354
  344MOL    C8041926   4.196   7.685   6.138  0.2394  0.4468 -0.4576
  344MOL    C8141927   4.172   0.147   6.140  0.1346 -0.5428  0.2092
  344MOL    H8241928   4.223   7.644   6.236  0.0705  0.4132 -0.4245
  344MOL    H8341929   4.283   7.656   6.079 -0.5277  0.8115 -1.7708
  344MOL    H8441930   4.176   0.178   6.036 -1.2411  0.0746  0.3232
  344MOL    H8541931   4.072   0.178   6.171  0.5989  0.4690  0.7033
  344MOL    C8641932   4.273   0.232   6.223  0.0323  0.5221 -0.7541
  344MOL    C8741933   4.258   0.387   6.209  0.8094  0.6059  0.0301
  344MOL    H8841934   4.274   0.226   6.332  0.2440  0.4858 -0.7582
  344MOL    H8941935   4.367   0.200   6.180 -0.9994 -1.5728 -1.5288
  344MOL    H9041936   4.260   0.396   6.101  1.3550  1.3923  0.0995
  344MOL    H9141937   4.165   0.434   6.242  0.7959  2.2644 -2.3022
  344MOL    C9241938   4.367   0.471   6.268  0.1244  0.2599  0.6467
  344MOL    C9341939   4.358   0.475   6.419 -0.7014  0.3263  0.5263
  344MOL    H9441940   4.463   0.425   6.241 -1.1798 -1.2771 -1.5697
  344MOL    H9541941   4.369   0.573   6.229  0.3361  0.3101  0.7889
  344MOL    H9641942   4.286   0.549   6.452 -1.2811 -0.1030  0.2282
  344MOL    H9741943   4.326   0.383   6.469 -0.1233 -0.4755 -0.5541
  344MOL    C9841944   4.498   0.499   6.484 -0.7722  0.0324  0.3665
  344MOL    C9941945   4.577   0.625   6.438  0.1255 -0.5335  0.5756
  344MOL   H10041946   4.494   0.507   6.592 -0.0326  1.0505  0.3264
  344MOL   H10141947   4.565   0.414   6.471 -1.0170 -0.4006  1.8798
  344MOL   H10241948   4.683   0.620   6.461 -0.3596 -0.8843  2.8127
  344MOL   H10341949   4.570   0.635   6.329 -2.2062 -1.6066  0.6023
  344MOL   C10441950   4.510   0.750   6.499  0.0178  0.8433 -0.4037
  344MOL   C10541951   4.586   0.875   6.465 -0.4409  0.3558 -0.4709
  344MOL   H10641952   4.409   0.762   6.458 -0.6837 -0.3920  0.9239
  344MOL   H10741953   4.499   0.738   6.607 -1.3074  0.6948 -0.5481
  344MOL   H10841954   4.676   0.865   6.525 -1.9702 -1.4245  1.6183
  344MOL   H10941955   4.617   0.883   6.361  2.9262 -0.5072  0.4185
  344MOL   C11041956   4.511   1.005   6.510  0.5398 -0.0015 -0.0476
  344MOL   C11141957   4.576   1.143   6.472  0.2099 -0.9089  0.0292
  344MOL   H11241958   4.409   1.002   6.473  0.2364  1.2224  0.6622
  344MOL   H11341959   4.504   0.987   6.617  1.9544 -0.6363 -0.0465
  344MOL   H11441960   4.534   1.225   6.529 -1.1830  0.0653 -2.2982
  344MOL   H11541961   4.677   1.143   6.515  0.9773 -0.2952 -1.7118
  344MOL   C11641962   4.589   1.165   6.322 -0.2030  0.3017 -0.2660
  344MOL   C11741963   4.672   1.296   6.305 -0.3047  0.4249  0.5940
  344MOL   H11841964   4.631   1.076   6.275 -2.3435 -0.8451 -0.0234
  344MOL   H11941965   4.490   1.183   6.281 -1.3734 -1.5581  1.6581
  344MOL   H12041966   4.672   1.323   6.199 -0.5343 -1.3362  0.1161
  344MOL   H12141967   4.617   1.377   6.353 -1.9183 -0.2843 -0.0339
  344MOL   H12241968   4.776   1.296   6.337  0.8944  1.9921 -3.0201
  345MOL     C141969   0.072   2.905   5.170 -0.5283  0.4026 -0.4050
  345MOL     C241970   7.689   2.855   5.034 -0.4399 -0.2647 -0.3075
  345MOL     H341971   0.002   2.954   5.238  0.3985 -0.1892  0.9674
  345MOL     H441972   0.149   2.980   5.153  1.0396 -0.9986  0.4479
  345MOL     H541973   7.619   2.922   4.983 -0.1373 -1.3495 -2.2026
  345MOL     H641974   0.075   2.839   4.960 -1.1773 -1.8583 -0.7649
  345MOL     H741975   0.103   2.819   5.229 -0.2712 -0.6470 -2.0328
  345MOL     C841976   7.622   2.714   5.055 -0.1888 -0.5913  0.6190
  345MOL     C941977   7.487   2.727   5.120  0.1467  0.5467  0.3429
  345MOL    H1041978   7.606   2.685   4.951  0.7727 -1.0620  0.5937
  345MOL    H1141979   7.680   2.635   5.102 -0.6435 -1.8901 -0.9379
  345MOL    H1241980   7.501   2.778   5.215 -0.6355  1.1921  0.1195
  345MOL    H1341981   7.435   2.794   5.051 -1.5466  1.4759  2.4768
  345MOL    C1441982   7.425   2.587   5.139  0.0126 -0.1428 -0.0919
  345MOL    C1541983   7.288   2.585   5.209  1.0322  0.1171  0.0105
  345MOL    H1641984   7.410   2.540   5.042 -1.6068  1.7253 -0.7909
  345MOL    H1741985   7.486   2.525   5.205 -1.4561 -0.6620  0.8242
  345MOL    H1841986   7.220   2.647   5.150  0.6276  0.9385  1.3150
  345MOL    H1941987   7.267   2.478   5.206  0.0509  0.2686  1.0216
  345MOL    C2041988   7.290   2.643   5.350  0.1546 -0.1369 -0.5073
  345MOL    C2141989   7.157   2.618   5.418 -0.3978 -0.0570 -0.2226
  345MOL    H2241990   7.360   2.594   5.418  1.2367  0.9370 -0.8385
  345MOL    H2341991   7.315   2.748   5.336 -1.2871  0.2332 -0.3965
  345MOL    H2441992   7.078   2.662   5.357 -0.5287  1.7409  1.2012
  345MOL    H2541993   7.141   2.511   5.409  0.4922 -0.4619  2.3844
  345MOL    C2641994   7.146   2.675   5.566 -0.5762  0.0535 -0.1071
  345MOL    C2741995   7.021   2.621   5.628  0.6051 -0.1352 -0.0817
  345MOL    H2841996   7.235   2.645   5.622 -0.4951  1.7035  0.6771
  345MOL    H2941997   7.149   2.784   5.567  0.4350  0.0273  0.8591
  345MOL    H3041998   6.939   2.647   5.561  0.0913 -0.7032  0.3198
  345MOL    H3141999   7.015   2.512   5.622  1.4066 -0.1136 -1.5965
  345MOL    C3242000   6.994   2.696   5.763  0.0858 -0.5323  0.2137
  345MOL    C3342001   6.849   2.662   5.813 -0.5431  0.3413  0.6391
  345MOL    H3442002   7.066   2.659   5.836  0.4216 -0.6370 -0.1730
  345MOL    H3542003   7.021   2.801   5.767 -0.2508 -0.4743  1.3070
  345MOL    H3642004   6.781   2.708   5.742  1.7019 -2.0320 -3.2673
  345MOL    H3742005   6.831   2.554   5.814 -2.8594  0.7179  0.9354
  345MOL    C3842006   6.812   2.720   5.949 -0.0612 -0.5163  0.6284
  345MOL    C3942007   6.830   2.615   6.063  0.6130  0.3447 -0.8056
  345MOL    H4042008   6.859   2.814   5.976  0.2534 -0.6614  0.5881
  345MOL    H4142009   6.709   2.756   5.950 -0.4461 -1.6038  1.8333
  345MOL    H4242010   6.764   2.528   6.051 -0.9176  1.5140 -1.0191
  345MOL    H4342011   6.933   2.584   6.051  0.6765 -0.8402  2.2482
  345MOL    C4442012   6.811   2.670   6.204 -0.7013 -0.1342  0.2270
  345MOL    C4542013   6.665   2.706   6.244 -1.0165  0.5807  0.5031
  345MOL    H4642014   6.843   2.585   6.263  0.0018 -0.9292 -1.2906
  345MOL    H4742015   6.873   2.757   6.225  0.0479 -0.5235 -0.3715
  345MOL    H4842016   6.619   2.792   6.194  0.9214  0.4614 -1.6263
  345MOL    H4942017   6.601   2.622   6.218 -1.3503  1.2466 -0.9267
  345MOL    C5042018   6.654   2.714   6.399 -0.2571  0.3791 -0.2291
  345MOL    C5142019   6.517   2.768   6.434 -0.3745  0.2587 -0.7283
  345MOL    H5242020   6.681   2.618   6.444 -0.8446  0.1134 -0.4333
  345MOL    H5342021   6.721   2.787   6.444  1.2569  0.4142 -2.4998
  345MOL    H5442022   6.499   2.774   6.542  0.6802  1.9458 -0.6287
  345MOL    H5542023   6.519   2.867   6.389 -0.9959  1.0280  0.9026
  345MOL    C5642024   6.390   2.692   6.371  0.1065 -0.6616 -0.4467
  345MOL    C5742025   6.271   2.702   6.466 -0.0099 -0.4862  0.4530
  345MOL    H5842026   6.371   2.726   6.269 -1.2661  0.7987  0.2807
  345MOL    H5942027   6.421   2.588   6.363  2.5768  0.0112 -0.0226
  345MOL    H6042028   6.307   2.674   6.565 -1.6206 -0.0424  1.1888
  345MOL    H6142029   6.242   2.807   6.466  0.6961 -0.2432 -3.5769
  345MOL    C6242030   6.153   2.609   6.430 -1.0339 -0.2859 -0.6136
  345MOL    C6342031   6.035   2.615   6.531 -0.0855 -0.4677  0.0352
  345MOL    H6442032   6.112   2.637   6.333  0.4877  1.0583 -0.9039
  345MOL    H6542033   6.188   2.507   6.412 -2.1345 -1.2001  2.1513
  345MOL    H6642034   6.075   2.602   6.632  1.4423  2.9879 -0.0418
  345MOL    H6742035   6.010   2.721   6.530  0.7528 -0.2789 -0.8480
  345MOL    C6842036   5.914   2.526   6.490 -0.4127 -0.1633 -0.4264
  345MOL    C6942037   5.785   2.551   6.567 -0.0289  0.1009 -0.2171
  345MOL    H7042038   5.902   2.521   6.382  2.4001  0.7358 -0.8052
  345MOL    H7142039   5.947   2.423   6.507  0.7843 -0.2417 -2.9680
  345MOL    H7242040   5.787   2.531   6.675  3.6908  0.5457 -0.1409
  345MOL    H7342041   5.744   2.652   6.569  3.2318  1.5272 -2.3505
  345MOL    C7442042   5.685   2.460   6.507  0.3522  0.1852 -0.1405
  345MOL    C7542043   5.548   2.464   6.564 -0.2684 -0.6054 -0.5652
  345MOL    H7642044   5.684   2.483   6.401  0.8763 -1.7397 -0.5868
  345MOL    H7742045   5.721   2.359   6.528 -0.6325  0.2113  1.8086
  345MOL    H7842046   5.562   2.422   6.664 -2.6637  0.0950  0.1101
  345MOL    H7942047   5.521   2.570   6.565 -1.8767 -0.9735 -1.9099
  345MOL    C8042048   5.446   2.405   6.462  0.3028  0.6102 -0.5385
  345MOL    C8142049   5.310   2.383   6.516 -0.6959 -0.1890  0.3786
  345MOL    H8242050   5.462   2.462   6.371 -0.6184  1.0638 -0.4178
  345MOL    H8342051   5.484   2.307   6.432 -0.0495 -0.0956  1.2092
  345MOL    H8442052   5.305   2.299   6.586 -1.0870  0.8959  1.6691
  345MOL    H8542053   5.288   2.476   6.568  0.1247  0.4334 -0.3753
  345MOL    C8642054   5.206   2.376   6.407 -0.4430  0.1395 -0.0850
  345MOL    C8742055   5.070   2.377   6.464  0.2669 -0.3353  0.7781
  345MOL    H8842056   5.220   2.459   6.338  0.9255 -0.3097 -0.3587
  345MOL    H8942057   5.219   2.280   6.358  0.5548 -0.8853  2.1398
  345MOL    H9042058   5.062   2.305   6.546 -1.1719 -1.6565 -0.4893
  345MOL    H9142059   5.058   2.479   6.500 -1.5530 -0.3704  0.3389
  345MOL    C9242060   4.949   2.340   6.372 -0.2422 -1.0444 -0.3865
  345MOL    C9342061   4.812   2.367   6.434  0.1874 -0.8564  0.1151
  345MOL    H9442062   4.955   2.402   6.283 -1.5834 -0.5344 -0.1413
  345MOL    H9542063   4.952   2.238   6.335  0.5631 -1.0973 -0.1810
  345MOL    H9642064   4.794   2.303   6.521 -2.2309 -0.3683  0.0127
  345MOL    H9742065   4.799   2.469   6.471 -2.0651 -0.9709 -0.2784
  345MOL    C9842066   4.707   2.343   6.327 -0.1730  0.2721  0.3389
  345MOL    C9942067   4.564   2.364   6.381  0.1268 -0.4341 -0.6609
  345MOL   H10042068   4.728   2.413   6.246 -1.2443  1.1203  0.7874
  345MOL   H10142069   4.713   2.242   6.285  2.2372  0.0172  1.2321
  345MOL   H10242070   4.549   2.303   6.470 -3.5054  0.9223 -0.2358
  345MOL   H10342071   4.549   2.467   6.415  0.9689 -0.7530  0.7085
  345MOL   C10442072   4.456   2.350   6.274  0.2360  0.0459  0.1460
  345MOL   C10542073   4.309   2.363   6.325  0.0326 -0.2538 -0.0730
  345MOL   H10642074   4.476   2.431   6.205  0.7519  0.6060  0.9461
  345MOL   H10742075   4.470   2.263   6.209 -0.9063  1.1245 -1.5787
  345MOL   H10842076   4.294   2.284   6.398 -1.9899 -0.1566 -0.3710
  345MOL   H10942077   4.296   2.461   6.372  0.4022 -1.2229  2.0844
  345MOL   C11042078   4.205   2.348   6.213  0.2501 -0.7077  0.1877
  345MOL   C11142079   4.059   2.392   6.242  1.2945  0.4142 -0.0949
  345MOL   H11242080   4.227   2.418   6.132 -3.0331 -0.6835 -0.7310
  345MOL   H11342081   4.212   2.253   6.160 -2.2182 -1.6442  1.4775
  345MOL   H11442082   4.015   2.323   6.314  1.9506 -1.0752 -1.1081
  345MOL   H11542083   4.055   2.483   6.302  1.2504 -0.1789  0.7944
  345MOL   C11642084   3.959   2.372   6.125 -0.0088 -0.1798 -0.2741
  345MOL   C11742085   3.814   2.399   6.174  0.2145  0.7331 -1.2154
  345MOL   H11842086   3.989   2.437   6.043  1.0309 -1.0823 -0.6043
  345MOL   H11942087   3.967   2.270   6.089  0.6277 -0.0282 -0.5611
  345MOL   H12042088   3.806   2.497   6.222 -1.1349  0.2914 -0.5033
  345MOL   H12142089   3.742   2.409   6.092  0.8688 -1.4522 -2.0845
  345MOL   H12242090   3.778   2.330   6.250 -1.3897  0.7026 -1.9676
  346MOL     C142091   4.688   0.360   5.661 -0.3940 -0.0458 -0.1287
  346MOL     C242092   4.781   0.340   5.543  0.0719  0.0891  0.3493
  346MOL     H342093   4.714   0.288   5.739  0.0067 -0.5909 -0.7615
  346MOL     H442094   4.584   0.334   5.640 -0.0709 -1.0783 -0.4957
  346MOL     H542095   4.783   0.430   5.481  3.6658  1.0152  1.6566
  346MOL     H642096   4.882   0.342   5.586 -0.3091 -0.2126  1.2690
  346MOL     H742097   4.705   0.457   5.707 -2.4587  0.0858  0.4231
  346MOL     C842098   4.759   0.219   5.459 -0.4996 -0.4962  0.4496
  346MOL     C942099   4.874   0.198   5.369  0.0363  0.0901  0.5015
  346MOL    H1042100   4.754   0.131   5.523 -1.4495  0.1578  1.2864
  346MOL    H1142101   4.672   0.230   5.394 -0.8877 -1.0526  0.8645
  346MOL    H1242102   4.892   0.287   5.309 -1.5159  0.3314  0.3864
  346MOL    H1342103   4.959   0.170   5.431  1.6522 -0.2573 -1.7854
  346MOL    C1442104   4.856   0.074   5.279  0.6906 -0.0038  0.1161
  346MOL    C1542105   4.984   0.029   5.208 -0.0629 -0.0444  0.4982
  346MOL    H1642106   4.817   7.685   5.341  1.9848 -0.4239  0.4130
  346MOL    H1742107   4.774   0.090   5.210  1.0901  0.9156 -0.1431
  346MOL    H1842108   5.027   0.113   5.154 -1.0406  1.0100  1.3300
  346MOL    H1942109   5.066   0.014   5.278  1.6932 -1.0499 -1.7100
  346MOL    C2042110   4.972   7.596   5.117  0.5459 -0.5117 -0.6083
  346MOL    C2142111   5.111   7.551   5.060  0.5981 -0.2393  0.0909
  346MOL    H2242112   4.941   7.506   5.170 -0.7596 -0.8000 -1.8185
  346MOL    H2342113   4.901   7.624   5.040 -0.5558 -0.4307  0.4272
  346MOL    H2442114   5.144   7.643   5.013  1.6376  0.1432  1.5170
  346MOL    H2542115   5.181   7.537   5.143  1.6012 -0.1748 -0.7392
  346MOL    C2642116   5.098   7.432   4.962 -0.0554  0.7061 -0.3190
  346MOL    C2742117   5.226   7.393   4.890 -0.0522 -0.3493 -0.1108
  346MOL    H2842118   5.055   7.344   5.011  0.5131  0.4954 -0.1946
  346MOL    H2942119   5.020   7.451   4.889  0.1526  2.8738  0.0083
  346MOL    H3042120   5.257   7.491   4.852 -1.4645  1.1824  2.5209
  346MOL    H3142121   5.305   7.375   4.963 -0.3069 -0.2972  0.1740
  346MOL    C3242122   5.211   7.286   4.783 -0.2473  0.0973 -0.5794
  346MOL    C3342123   5.347   7.249   4.734  0.4071 -0.2153 -0.5319
  346MOL    H3442124   5.167   7.196   4.826  0.6785 -0.1556 -0.1498
  346MOL    H3542125   5.146   7.324   4.704 -0.0275 -1.9263 -1.7625
  346MOL    H3642126   5.392   7.340   4.693  2.7665  0.0309  2.3901
  346MOL    H3742127   5.409   7.222   4.820 -2.6747 -1.5100  1.3729
  346MOL    C3842128   5.352   7.131   4.637  0.2989  0.4056  0.1030
  346MOL    C3942129   5.491   7.076   4.597 -0.0244  0.9028  0.7830
  346MOL    H4042130   5.277   7.056   4.661  0.0012  0.4824 -0.5636
  346MOL    H4142131   5.305   7.166   4.545  1.8316  0.0706 -0.8431
  346MOL    H4242132   5.540   7.152   4.536 -1.3296  1.6883  0.6941
  346MOL    H4342133   5.555   7.066   4.684 -0.9259  1.3669  1.5020
  346MOL    C4442134   5.481   6.949   4.514  0.1967 -0.5058  0.1183
  346MOL    C4542135   5.608   6.886   4.471  0.0729  0.1467 -0.0390
  346MOL    H4642136   5.414   6.876   4.560  2.0594 -1.5962  1.1642
  346MOL    H4742137   5.436   6.970   4.417  0.7224  0.9166  0.1696
  346MOL    H4842138   5.682   6.956   4.433  1.3985 -1.2663 -0.1024
  346MOL    H4942139   5.653   6.844   4.561 -1.1144  0.6480  0.7980
  346MOL    C5042140   5.606   6.788   4.346 -0.3183  0.0182  0.2554
  346MOL    C5142141   5.741   6.758   4.266  0.2679 -0.2953 -0.1274
  346MOL    H5242142   5.575   6.690   4.382 -0.4565 -0.8061 -2.0636
  346MOL    H5342143   5.522   6.810   4.279  0.2518 -0.7154 -0.7019
  346MOL    H5442144   5.759   6.837   4.194 -1.1085 -1.0307 -1.2963
  346MOL    H5542145   5.827   6.746   4.332  0.9654 -1.7844 -1.2852
  346MOL    C5642146   5.732   6.639   4.180 -0.4716  0.3505 -0.5882
  346MOL    C5742147   5.869   6.590   4.115 -0.1275 -0.5005 -0.1470
  346MOL    H5842148   5.705   6.549   4.236  0.0502  0.1606 -0.6425
  346MOL    H5942149   5.661   6.644   4.098  0.7014 -0.0317 -1.6367
  346MOL    H6042150   5.894   6.654   4.031  0.5645 -0.9302 -0.2700
  346MOL    H6142151   5.955   6.606   4.180 -2.4838 -0.4707  3.1047
  346MOL    C6242152   5.859   6.444   4.055 -1.0662 -0.5237 -0.0039
  346MOL    C6342153   5.998   6.397   4.010  0.1937  1.1197 -0.4298
  346MOL    H6442154   5.819   6.383   4.135 -2.1613  0.0115 -0.1394
  346MOL    H6542155   5.791   6.448   3.969 -2.4171  0.7317  1.0990
  346MOL    H6642156   6.029   6.467   3.932  2.0458 -0.5287 -1.2319
  346MOL    H6742157   6.074   6.418   4.084  1.7949 -2.5016 -0.9282
  346MOL    C6842158   6.014   6.244   3.983 -0.6994 -0.1786 -0.6609
  346MOL    C6942159   6.153   6.197   3.934 -0.0021  0.1311 -0.5760
  346MOL    H7042160   5.994   6.193   4.077 -0.0012  2.8208  1.1875
  346MOL    H7142161   5.951   6.205   3.903  0.0193 -0.1784 -1.2296
  346MOL    H7242162   6.174   6.254   3.844  1.4091 -0.6506 -0.7591
  346MOL    H7342163   6.225   6.219   4.013  0.3516  2.6435 -1.5682
  346MOL    C7442164   6.158   6.048   3.909 -0.4710 -0.2979 -0.1410
  346MOL    C7542165   6.299   5.989   3.923 -0.5315 -0.0052  0.5104
  346MOL    H7642166   6.091   5.993   3.975  3.4930 -0.1614  4.2596
  346MOL    H7742167   6.117   6.029   3.810 -1.5041  1.9128 -0.1750
  346MOL    H7842168   6.359   6.040   3.847 -2.7949 -1.2871 -2.2203
  346MOL    H7942169   6.341   5.992   4.024 -0.4092  0.6186  0.4412
  346MOL    C8042170   6.302   5.837   3.890 -0.0316 -0.3246 -0.3299
  346MOL    C8142171   6.429   5.772   3.838  0.7626  0.2839  0.1478
  346MOL    H8242172   6.270   5.780   3.978 -0.2677 -1.7936 -1.3392
  346MOL    H8342173   6.221   5.815   3.821 -0.1273  1.3483 -0.7518
  346MOL    H8442174   6.468   5.848   3.770 -2.4052  1.5477 -0.3447
  346MOL    H8542175   6.511   5.764   3.909  1.5497  1.1133 -0.6338
  346MOL    C8642176   6.402   5.641   3.754  1.1127  0.2609  0.8843
  346MOL    C8742177   6.366   5.517   3.841  0.2222  0.2784 -0.3495
  346MOL    H8842178   6.313   5.659   3.693 -0.4323 -3.5246  1.8525
  346MOL    H8942179   6.481   5.618   3.683  0.4934  0.1573  0.2176
  346MOL    H9042180   6.456   5.483   3.892 -1.1391 -0.5996  1.5156
  346MOL    H9142181   6.292   5.551   3.913  0.0905  0.9059 -0.7851
  346MOL    C9242182   6.295   5.403   3.756 -0.5867 -0.1188 -0.0327
  346MOL    C9342183   6.372   5.343   3.636 -0.4668  0.0124  0.0244
  346MOL    H9442184   6.256   5.325   3.822 -2.7059  1.5548  0.7962
  346MOL    H9542185   6.204   5.451   3.718 -0.3319  0.6867  0.3528
  346MOL    H9642186   6.300   5.299   3.567  0.4891  1.2397 -1.7832
  346MOL    H9742187   6.434   5.422   3.594 -0.3280  0.5306  1.1918
  346MOL    C9842188   6.464   5.241   3.693  0.2663 -0.1286 -0.3959
  346MOL    C9942189   6.580   5.211   3.602  0.0185  0.4495  0.2664
  346MOL   H10042190   6.502   5.279   3.789 -0.3300  0.3258 -0.3383
  346MOL   H10142191   6.411   5.151   3.724  0.7238 -0.4895 -0.6620
  346MOL   H10242192   6.545   5.150   3.518 -0.8133  0.6172  0.4936
  346MOL   H10342193   6.619   5.301   3.555  1.8593 -0.4485  0.0165
  346MOL   C10442194   6.694   5.145   3.682 -0.6405 -0.4075  0.2380
  346MOL   C10542195   6.801   5.091   3.590  0.0475  0.7612  0.6992
  346MOL   H10642196   6.745   5.206   3.756 -0.9031 -0.3200  0.3479
  346MOL   H10742197   6.661   5.063   3.746  1.8374  0.7046  3.0870
  346MOL   H10842198   6.751   5.014   3.531 -0.9317  0.8507  1.4083
  346MOL   H10942199   6.827   5.175   3.525 -0.5593 -0.4871 -1.2048
  346MOL   C11042200   6.929   5.048   3.647  0.4697  0.6203  0.3066
  346MOL   C11142201   7.029   4.995   3.545  0.7832  0.1164  0.0079
  346MOL   H11242202   6.975   5.133   3.697  1.4299 -2.0265  4.1101
  346MOL   H11342203   6.923   4.977   3.729 -2.3054 -0.1500 -0.5191
  346MOL   H11442204   7.030   5.061   3.458 -0.9830 -0.8325 -0.7592
  346MOL   H11542205   7.127   4.996   3.593 -0.0114 -0.3050  1.6795
  346MOL   C11642206   7.006   4.848   3.499 -0.5078 -0.3066 -0.8901
  346MOL   C11742207   7.092   4.831   3.377 -0.5040  0.0901 -0.2067
  346MOL   H11842208   7.041   4.786   3.581 -2.2549 -1.4555 -0.9853
  346MOL   H11942209   6.901   4.828   3.478 -0.0703 -0.8282 -2.6493
  346MOL   H12042210   7.083   4.728   3.343 -2.2843  0.1344  0.0983
  346MOL   H12142211   7.070   4.899   3.295  0.1994  0.0897 -0.4059
  346MOL   H12242212   7.195   4.836   3.414  0.7748  0.0885 -3.6469
  347MOL     C142213   4.084   7.074   6.293 -0.1963  0.3957 -0.3698
  347MOL     C242214   4.022   6.964   6.388 -0.1735  0.0955 -0.1809
  347MOL     H342215   4.047   7.061   6.192 -1.8857 -2.4854  0.5707
  347MOL     H442216   4.193   7.062   6.293 -0.0973  1.2781  0.0586
  347MOL     H542217   4.035   6.983   6.494  0.8664 -0.8000 -0.1430
  347MOL     H642218   3.913   6.971   6.380 -0.1479 -0.6334 -1.3411
  347MOL     H742219   4.057   7.176   6.320  0.5236 -0.0762  2.3582
  347MOL     C842220   4.063   6.827   6.353 -0.2900 -0.1052 -0.3248
  347MOL     C942221   3.979   6.715   6.407 -0.2558 -0.1697 -0.5022
  347MOL    H1042222   4.050   6.818   6.245 -1.3663  0.7800 -0.2833
  347MOL    H1142223   4.171   6.818   6.358 -0.4686 -1.8609  0.7013
  347MOL    H1242224   3.874   6.732   6.383 -0.5182  0.2645  0.9128
  347MOL    H1342225   3.993   6.619   6.359  1.7290  0.0373 -0.3807
  347MOL    C1442226   3.986   6.709   6.554 -0.6669  0.1945 -0.2509
  347MOL    C1542227   3.928   6.583   6.614 -0.1368  0.0251 -0.4903
  347MOL    H1642228   4.090   6.719   6.586 -0.5739  1.4505 -0.9226
  347MOL    H1742229   3.945   6.792   6.611  2.9223  0.8078  1.5848
  347MOL    H1842230   3.904   6.605   6.718  3.4692  1.4414  0.1020
  347MOL    H1942231   3.837   6.547   6.566 -0.1657 -1.6941  0.8145
  347MOL    C2042232   4.033   6.470   6.619 -0.0362  0.0637 -0.0388
  347MOL    C2142233   3.981   6.354   6.698 -0.2263  1.1468  0.5924
  347MOL    H2242234   4.066   6.434   6.522  1.0857  0.8285  0.0545
  347MOL    H2342235   4.123   6.517   6.659 -1.5706  1.6510  1.7140
  347MOL    H2442236   3.964   6.382   6.802  1.0225  0.6847  0.9335
  347MOL    H2542237   3.888   6.312   6.661  0.9050  0.7074 -1.8168
  347MOL    C2642238   4.095   6.246   6.707  0.8731 -0.2283 -0.1342
  347MOL    C2742239   4.050   6.118   6.788  0.2523  0.7392 -0.1215
  347MOL    H2842240   4.125   6.208   6.609  1.8879 -2.7755  1.1125
  347MOL    H2942241   4.186   6.283   6.755  1.6486 -0.7621 -1.1596
  347MOL    H3042242   4.012   6.143   6.887  1.8443  3.5971 -0.2039
  347MOL    H3142243   3.966   6.093   6.723  0.8380  1.0866 -1.0160
  347MOL    C3242244   4.162   6.014   6.791  0.1688 -0.0692 -0.1038
  347MOL    C3342245   4.124   5.901   6.883  0.1057  0.4048  0.2641
  347MOL    H3442246   4.188   5.973   6.693 -0.2438 -0.7587  0.0653
  347MOL    H3542247   4.256   6.059   6.823 -1.5843  3.1566  0.6944
  347MOL    H3642248   4.116   5.938   6.985  0.3762  0.4780  0.2580
  347MOL    H3742249   4.032   5.850   6.855 -0.5233  0.2150  2.5828
  347MOL    C3842250   4.235   5.799   6.888  0.8383 -0.1408  0.4793
  347MOL    C3942251   4.197   5.659   6.946  1.0789 -0.1828  0.0628
  347MOL    H4042252   4.279   5.801   6.789  0.0949 -1.4716  0.1166
  347MOL    H4142253   4.316   5.842   6.948 -0.0248 -0.5738  1.9979
  347MOL    H4242254   4.278   5.615   7.004  1.9253  0.1122 -0.8952
  347MOL    H4342255   4.123   5.681   7.023 -1.5937 -0.2774 -2.3663
  347MOL    C4442256   4.127   5.563   6.845 -0.0395  0.0638 -0.0545
  347MOL    C4542257   4.060   5.440   6.912  0.5778  0.4306  0.2063
  347MOL    H4642258   4.048   5.611   6.787  0.4124 -0.6771 -1.3224
  347MOL    H4742259   4.192   5.530   6.764  1.4035  1.1068  0.6529
  347MOL    H4842260   3.999   5.471   6.997 -2.2041 -1.3012 -1.0877
  347MOL    H4942261   3.981   5.397   6.850  0.6351  0.9097 -0.2002
  347MOL    C5042262   4.160   5.337   6.970 -0.2839 -0.2430  0.6070
  347MOL    C5142263   4.075   5.220   7.021  0.1522  0.5796  0.1402
  347MOL    H5242264   4.235   5.296   6.903 -0.8256 -2.3787  1.2792
  347MOL    H5342265   4.213   5.367   7.061 -0.1540 -1.8909  1.0760
  347MOL    H5442266   4.007   5.252   7.100 -1.6444 -1.0899 -0.6821
  347MOL    H5542267   4.007   5.193   6.940  0.6626  0.6853 -0.3272
  347MOL    C5642268   4.160   5.095   7.053 -0.0131  0.0910 -0.6533
  347MOL    C5742269   4.090   4.974   7.111  0.6883 -0.5593  0.4395
  347MOL    H5842270   4.217   5.067   6.964 -0.1304  0.4070 -0.8276
  347MOL    H5942271   4.238   5.129   7.121 -1.5803  0.1738  1.1390
  347MOL    H6042272   4.061   4.997   7.214 -1.5155 -2.3019  0.2435
  347MOL    H6142273   3.997   4.962   7.056  0.3028 -0.4686  1.0706
  347MOL    C6242274   4.162   4.842   7.091  0.5398 -0.5475  0.3661
  347MOL    C6342275   4.095   4.716   7.143 -0.5726 -0.0346 -0.0913
  347MOL    H6442276   4.190   4.848   6.986 -2.3966  1.0989 -0.3854
  347MOL    H6542277   4.258   4.852   7.142  0.0284 -2.2774  1.7132
  347MOL    H6642278   4.103   4.718   7.251  2.1784  0.0772 -0.2699
  347MOL    H6742279   3.986   4.707   7.138 -0.4259 -1.8190 -0.3303
  347MOL    C6842280   4.164   4.580   7.109 -0.7716  0.1334  0.2200
  347MOL    C6942281   4.118   4.538   6.967  0.2577 -0.1879 -0.6967
  347MOL    H7042282   4.272   4.593   7.114 -0.7278  0.1139 -0.6649
  347MOL    H7142283   4.142   4.503   7.183  0.4955  1.4250  2.0059
  347MOL    H7242284   4.012   4.516   6.973  0.2661 -0.0914 -0.2124
  347MOL    H7342285   4.119   4.624   6.900  0.4992 -0.8235 -1.5173
  347MOL    C7442286   4.191   4.417   6.901 -0.2670  0.0685 -0.0721
  347MOL    C7542287   4.162   4.385   6.755  0.1004 -0.0319 -0.2942
  347MOL    H7642288   4.300   4.418   6.911 -0.3349 -0.3879  0.8108
  347MOL    H7742289   4.161   4.323   6.948  1.2526 -0.2624  0.2663
  347MOL    H7842290   4.177   4.279   6.734  0.4029  0.1379 -0.9165
  347MOL    H7942291   4.054   4.389   6.738  0.1145  1.2322 -0.0807
  347MOL    C8042292   4.246   4.469   6.659 -0.3120  0.8223 -1.2669
  347MOL    C8142293   4.198   4.465   6.517  0.2624 -0.0921 -0.2335
  347MOL    H8242294   4.239   4.574   6.684  2.0848  0.1790  2.4854
  347MOL    H8342295   4.350   4.434   6.662 -0.8271 -0.6353  0.4688
  347MOL    H8442296   4.100   4.512   6.523  0.0532 -0.2376 -2.0097
  347MOL    H8542297   4.260   4.529   6.455 -0.2041 -0.8845 -1.5521
  347MOL    C8642298   4.200   4.322   6.459  0.1124 -0.9769 -0.1921
  347MOL    C8742299   4.142   4.301   6.319 -0.0300 -0.2948  0.5400
  347MOL    H8842300   4.299   4.275   6.470  0.2845 -0.4217  0.6392
  347MOL    H8942301   4.135   4.257   6.518 -0.7804 -0.7215 -0.9037
  347MOL    H9042302   4.040   4.337   6.315  0.0712 -0.0028  0.5828
  347MOL    H9142303   4.197   4.362   6.247 -1.7658  2.0285  1.1404
  347MOL    C9242304   4.134   4.151   6.273  0.8766 -0.1669  0.1571
  347MOL    C9342305   4.074   4.152   6.134 -0.5755  0.3229  0.3218
  347MOL    H9442306   4.232   4.102   6.275  0.7870 -0.3948 -1.0425
  347MOL    H9542307   4.057   4.107   6.336  1.4286 -0.0843  0.9082
  347MOL    H9642308   3.967   4.173   6.132 -0.3470  1.6741  1.6166
  347MOL    H9742309   4.132   4.226   6.078 -0.1651  0.8127  1.3957
  347MOL    C9842310   4.102   4.022   6.052  0.2806 -0.4695 -0.1102
  347MOL    C9942311   4.061   4.037   5.905 -0.0447  0.0051  0.3103
  347MOL   H10042312   4.208   4.000   6.066  1.0334  2.5169 -0.5949
  347MOL   H10142313   4.061   3.933   6.099 -0.0664  0.3961  1.2491
  347MOL   H10242314   3.965   4.082   5.878  0.7312  2.0910  0.9168
  347MOL   H10342315   4.137   4.107   5.870 -0.6547 -0.1519 -1.4076
  347MOL   C10442316   4.079   3.910   5.829  0.0244  0.0932 -0.7035
  347MOL   C10542317   4.072   3.923   5.682  0.2583  0.2591  0.2910
  347MOL   H10642318   4.182   3.879   5.847 -0.6773 -1.5815  0.5610
  347MOL   H10742319   4.014   3.831   5.865 -0.1733  0.2966 -0.6114
  347MOL   H10842320   3.987   3.986   5.656  0.2485  1.3761  2.8756
  347MOL   H10942321   4.168   3.966   5.654  0.0574  1.1257  0.9322
  347MOL   C11042322   4.037   3.786   5.615 -0.4165 -0.5487  0.2579
  347MOL   C11142323   4.004   3.799   5.466  0.3782 -0.8388  0.2841
  347MOL   H11242324   4.120   3.718   5.637  0.4641 -0.3676 -2.3162
  347MOL   H11342325   3.952   3.746   5.669 -0.1872 -0.5683  0.6101
  347MOL   H11442326   3.925   3.873   5.457  1.1338  0.0910  1.1897
  347MOL   H11542327   4.072   3.853   5.400 -0.1450 -1.9938 -1.2423
  347MOL   C11642328   3.962   3.664   5.391 -0.4904  0.7668 -0.1797
  347MOL   C11742329   3.918   3.684   5.248  0.0780  1.1426 -0.1687
  347MOL   H11842330   4.036   3.584   5.390 -1.8356 -0.5198  0.6925
  347MOL   H11942331   3.882   3.619   5.450  0.1398  0.2438  0.2810
  347MOL   H12042332   3.997   3.743   5.202  1.0888 -0.9739 -1.2066
  347MOL   H12142333   3.904   3.593   5.191 -0.9319  2.1600 -1.5809
  347MOL   H12242334   3.824   3.737   5.233 -0.4291  0.8293  1.7746
  348MOL     C142335   3.235   7.435   1.522  0.2592 -0.8596  0.0047
  348MOL     C242336   3.163   7.301   1.511 -0.2106  0.3860  0.3826
  348MOL     H342337   3.167   7.519   1.534  0.8820 -0.4490  0.6925
  348MOL     H442338   3.289   7.452   1.429 -0.9429 -1.1898 -0.7638
  348MOL     H542339   3.106   7.294   1.604 -0.6267 -1.3245  0.0116
  348MOL     H642340   3.104   7.301   1.419 -0.6140  0.8163  0.6425
  348MOL     H742341   3.317   7.444   1.593 -0.9616 -2.1025  1.6280
  348MOL     C842342   3.255   7.178   1.498 -0.0294 -0.9521  0.3715
  348MOL     C942343   3.164   7.047   1.494  0.2033  0.4267  1.3082
  348MOL    H1042344   3.310   7.190   1.405  0.3839  2.8199  1.0203
  348MOL    H1142345   3.336   7.176   1.572  1.6108  1.5635 -1.2939
  348MOL    H1242346   3.122   7.037   1.594 -1.8821 -0.8507  0.3502
  348MOL    H1342347   3.072   7.056   1.436  0.9055 -1.4170 -0.1177
  348MOL    C1442348   3.230   6.913   1.450  0.0825 -0.9072  0.6745
  348MOL    C1542349   3.168   6.787   1.517  0.5118 -0.5168  0.7616
  348MOL    H1642350   3.217   6.888   1.344 -2.0525 -0.7991  0.9078
  348MOL    H1742351   3.335   6.910   1.479  0.4612 -2.9434 -0.7104
  348MOL    H1842352   3.186   6.798   1.624 -0.4446  0.1935  0.8590
  348MOL    H1942353   3.059   6.787   1.506  0.5695  1.6414 -0.0448
  348MOL    C2042354   3.221   6.659   1.444  0.2230 -0.1975  0.0898
  348MOL    C2142355   3.156   6.530   1.491  0.0464 -0.2444 -0.1119
  348MOL    H2242356   3.215   6.660   1.335  0.7836  0.4052  0.0583
  348MOL    H2342357   3.328   6.655   1.466  0.0403 -0.9218  0.8677
  348MOL    H2442358   3.174   6.511   1.597 -0.4503 -1.0533 -0.1677
  348MOL    H2542359   3.048   6.533   1.477 -0.2619 -0.2544  2.0681
  348MOL    C2642360   3.211   6.412   1.407 -0.3693  0.7330 -0.3478
  348MOL    C2742361   3.162   6.279   1.461  0.0902  0.0666  0.1306
  348MOL    H2842362   3.178   6.414   1.303 -2.1414  1.1852  0.1977
  348MOL    H2942363   3.320   6.403   1.407 -0.2537  1.0616  3.4550
  348MOL    H3042364   3.183   6.257   1.566 -0.0307 -1.0881 -0.0824
  348MOL    H3142365   3.058   6.279   1.430  0.5773  5.0762 -1.9824
  348MOL    C3242366   3.238   6.161   1.379  0.4596 -0.2933  0.3451
  348MOL    C3342367   3.186   6.025   1.426 -0.0437 -0.3670  0.7092
  348MOL    H3442368   3.237   6.171   1.270  3.9214  0.6228  0.3417
  348MOL    H3542369   3.342   6.170   1.409  0.3228 -1.9021  1.3454
  348MOL    H3642370   3.162   6.018   1.532 -2.0838 -0.9007  0.2326
  348MOL    H3742371   3.087   6.013   1.383  0.9384 -2.0359 -1.1870
  348MOL    C3842372   3.272   5.895   1.385  0.1656  1.0287  0.4310
  348MOL    C3942373   3.212   5.767   1.438 -0.2143  0.6972 -0.2197
  348MOL    H4042374   3.273   5.894   1.276  1.4049  0.6676  0.4292
  348MOL    H4142375   3.372   5.912   1.427 -1.1593  2.7662  3.0137
  348MOL    H4242376   3.216   5.751   1.546  1.1871 -0.5153 -0.4373
  348MOL    H4342377   3.107   5.767   1.411 -0.0653 -1.3778 -0.9012
  348MOL    C4442378   3.295   5.650   1.372 -0.4369 -0.2542 -0.2865
  348MOL    C4542379   3.241   5.513   1.416 -0.3445 -0.2774 -1.2471
  348MOL    H4642380   3.302   5.662   1.264  2.0450 -0.0139 -0.1403
  348MOL    H4742381   3.399   5.662   1.405 -0.5909 -1.3791  0.6562
  348MOL    H4842382   3.221   5.519   1.523 -1.0703 -0.7481 -1.3525
  348MOL    H4942383   3.143   5.501   1.370  0.0816 -1.3286 -1.9017
  348MOL    C5042384   3.330   5.394   1.374  0.0015 -0.2280 -0.1222
  348MOL    C5142385   3.278   5.251   1.406 -0.0558  0.4958  0.3469
  348MOL    H5242386   3.315   5.394   1.266 -0.3739 -3.7399 -0.0957
  348MOL    H5342387   3.432   5.409   1.412  0.1161  0.2555 -0.5970
  348MOL    H5442388   3.169   5.248   1.411 -0.0500 -2.6871 -0.5952
  348MOL    H5542389   3.316   5.195   1.321 -0.7020 -0.0307  0.4007
  348MOL    C5642390   3.325   5.198   1.538  0.1480 -0.2263  0.8664
  348MOL    C5742391   3.327   5.046   1.525  0.0749 -0.1544 -0.0450
  348MOL    H5842392   3.424   5.235   1.564  0.3542  0.4193 -0.7409
  348MOL    H5942393   3.261   5.239   1.616  0.2702  2.2393 -0.2975
  348MOL    H6042394   3.239   5.000   1.481  0.1539 -1.3929  1.0450
  348MOL    H6142395   3.418   5.027   1.468  0.3246  0.9408 -0.0129
  348MOL    C6242396   3.353   4.978   1.663 -1.2768  0.1488  0.4361
  348MOL    C6342397   3.353   4.822   1.650 -0.5916  0.4640  0.1275
  348MOL    H6442398   3.439   5.027   1.709  1.4511 -2.2484 -1.9297
  348MOL    H6542399   3.275   5.015   1.729  0.1797  0.7070  1.9041
  348MOL    H6642400   3.273   4.789   1.584 -0.0408 -0.2722 -0.1773
  348MOL    H6742401   3.440   4.786   1.594  0.5070  0.2797  1.9125
  348MOL    C6842402   3.341   4.743   1.784 -0.6358  0.0103 -0.3051
  348MOL    C6942403   3.197   4.770   1.842  0.2948 -0.0471 -0.0532
  348MOL    H7042404   3.356   4.637   1.765  0.2064 -0.1690  1.2044
  348MOL    H7142405   3.423   4.765   1.853 -1.5887 -0.6735  1.0692
  348MOL    H7242406   3.202   4.845   1.921 -0.1851 -1.2437  1.1200
  348MOL    H7342407   3.136   4.815   1.764 -0.7149 -2.3091 -0.5861
  348MOL    C7442408   3.125   4.644   1.890 -0.6323 -0.1133 -0.0710
  348MOL    C7542409   2.997   4.667   1.964  0.1703  0.2471  0.2107
  348MOL    H7642410   3.108   4.573   1.809 -0.8943 -0.6234  0.4252
  348MOL    H7742411   3.190   4.592   1.961 -0.5627 -2.0890 -1.5085
  348MOL    H7842412   3.011   4.729   2.052 -0.7224 -0.6923  1.0285
  348MOL    H7942413   2.921   4.715   1.902  0.1187 -0.6176 -0.4110
  348MOL    C8042414   2.944   4.530   2.015  0.0247  0.0828 -0.4183
  348MOL    C8142415   3.028   4.444   2.107  0.0446  0.0329  0.2404
  348MOL    H8242416   2.851   4.559   2.064 -1.1953 -2.9212 -0.8673
  348MOL    H8342417   2.912   4.469   1.931 -2.2771 -0.9258  1.1074
  348MOL    H8442418   2.961   4.362   2.133  0.9541  0.2300  3.3906
  348MOL    H8542419   3.119   4.414   2.053 -0.4339 -2.1066  0.5738
  348MOL    C8642420   3.081   4.511   2.229  0.1663 -0.3470 -0.0722
  348MOL    C8742421   3.153   4.418   2.326  0.5359  0.0252  0.5421
  348MOL    H8842422   3.148   4.594   2.205  0.5006 -0.1168  1.5428
  348MOL    H8942423   2.997   4.557   2.281  1.0263 -0.4871  1.4803
  348MOL    H9042424   3.095   4.329   2.351  2.8144 -1.6544  0.0237
  348MOL    H9142425   3.228   4.366   2.266  2.5139  1.5982  1.5674
  348MOL    C9242426   3.210   4.493   2.453 -1.0031 -0.1328 -0.1318
  348MOL    C9342427   3.283   4.398   2.543 -1.0090 -0.0542 -0.3031
  348MOL    H9442428   3.273   4.579   2.428 -2.2606  0.5501 -1.0200
  348MOL    H9542429   3.127   4.528   2.514 -0.5903  1.8537 -0.6592
  348MOL    H9642430   3.209   4.325   2.575 -1.2187  0.0589 -0.5234
  348MOL    H9742431   3.358   4.342   2.486 -0.4012 -0.8602  1.2661
  348MOL    C9842432   3.356   4.454   2.668  0.0389 -0.0789 -0.2473
  348MOL    C9942433   3.442   4.342   2.742 -0.1557  0.1953  0.6767
  348MOL   H10042434   3.433   4.522   2.630  0.4010 -1.4785 -2.1275
  348MOL   H10142435   3.280   4.499   2.731 -2.1973 -1.7918 -1.6736
  348MOL   H10242436   3.383   4.252   2.760  0.9287 -0.2366  2.0804
  348MOL   H10342437   3.521   4.301   2.678 -0.2129  0.9438  0.1207
  348MOL   C10442438   3.491   4.401   2.877 -0.1791 -0.0345 -0.0854
  348MOL   C10542439   3.596   4.319   2.956 -0.1619 -0.1424  0.4169
  348MOL   H10642440   3.538   4.499   2.861 -2.2847  1.0691  0.3320
  348MOL   H10742441   3.407   4.421   2.943  0.0657 -1.0472  0.5505
  348MOL   H10842442   3.675   4.282   2.892  0.5454  0.4968  0.9029
  348MOL   H10942443   3.650   4.382   3.027 -0.7010  1.9889 -1.0057
  348MOL   C11042444   3.559   4.197   3.045 -0.4559 -0.3337  0.1470
  348MOL   C11142445   3.676   4.145   3.132  0.3689 -0.4228  0.5183
  348MOL   H11242446   3.481   4.225   3.116 -4.2020 -1.0594 -3.4871
  348MOL   H11342447   3.505   4.120   2.989  0.9177 -0.5929 -0.8522
  348MOL   H11442448   3.734   4.226   3.176 -0.9251 -0.4101  2.2784
  348MOL   H11542449   3.641   4.093   3.221 -1.3672 -0.7387 -0.3330
  348MOL   C11642450   3.766   4.058   3.045 -0.4913  0.2666  0.2112
  348MOL   C11742451   3.875   3.990   3.117 -0.5631 -0.3513  0.1282
  348MOL   H11842452   3.696   3.983   3.007  0.0207 -0.4878  0.7664
  348MOL   H11942453   3.803   4.126   2.968  0.0970  1.8092  1.8273
  348MOL   H12042454   3.845   3.941   3.209  1.2177  1.2074  1.5660
  348MOL   H12142455   3.926   3.920   3.050 -0.1877 -0.0024  0.0496
  348MOL   H12242456   3.947   4.065   3.149 -1.8819  0.6239  0.8840
  349MOL     C142457   5.793   0.107   3.387  0.5396 -0.0711  0.0491
  349MOL     C242458   5.671   0.202   3.370  0.3636  0.1920  0.1665
  349MOL     H342459   5.846   0.082   3.295  2.4264 -2.2247  1.6461
  349MOL     H442460   5.767   0.010   3.429  0.1216 -1.4801 -3.2532
  349MOL     H542461   5.703   0.284   3.306  1.0486 -1.0750 -1.1418
  349MOL     H642462   5.596   0.151   3.311  2.0431  1.7141 -3.4322
  349MOL     H742463   5.859   0.162   3.453  0.4155  0.4700 -0.2787
  349MOL     C842464   5.618   0.265   3.500  0.2482  0.3936  0.3517
  349MOL     C942465   5.463   0.279   3.502  0.9679 -0.1943 -0.6530
  349MOL    H1042466   5.650   0.201   3.582 -0.5951  0.7076  0.9345
  349MOL    H1142467   5.659   0.362   3.529 -0.5695  0.6924  0.5424
  349MOL    H1242468   5.440   0.352   3.425  1.7480 -1.5593 -2.2118
  349MOL    H1342469   5.419   0.184   3.471  0.5642 -0.3756  0.4334
  349MOL    C1442470   5.402   0.325   3.638  0.4079  0.4535  0.1167
  349MOL    C1542471   5.255   0.325   3.633  0.4577  0.9128  0.1504
  349MOL    H1642472   5.444   0.275   3.725 -0.3410 -0.4896 -0.0550
  349MOL    H1742473   5.438   0.426   3.658  1.7819 -0.1740  0.8236
  349MOL    H1842474   5.208   0.387   3.558 -0.8532  0.0577  0.2482
  349MOL    H1942475   5.213   0.225   3.617  1.6663  0.4416 -0.1658
  349MOL    C2042476   5.216   0.367   3.774  0.4667 -0.6635 -0.0475
  349MOL    C2142477   5.081   0.446   3.778 -0.3043  0.5396 -0.5789
  349MOL    H2242478   5.214   0.284   3.844  1.1568 -0.9991 -0.4152
  349MOL    H2342479   5.288   0.436   3.818 -1.5151  1.5534 -0.1969
  349MOL    H2442480   5.055   0.460   3.882  1.5905 -1.0312  0.1451
  349MOL    H2542481   5.106   0.540   3.728  1.5912  1.6113  2.2875
  349MOL    C2642482   4.967   0.369   3.716  0.2278  0.2835 -0.1258
  349MOL    C2742483   4.838   0.434   3.759  1.2198  0.0538  0.0346
  349MOL    H2842484   4.975   0.377   3.607  0.1458 -2.3919 -0.3537
  349MOL    H2942485   4.974   0.265   3.748  0.4547 -0.2451 -1.8373
  349MOL    H3042486   4.807   0.411   3.861  2.3257 -3.4979 -0.3844
  349MOL    H3142487   4.849   0.542   3.747 -1.8056  0.5783  1.4723
  349MOL    C3242488   4.728   0.397   3.659 -0.5845 -0.1914 -0.4760
  349MOL    C3342489   4.600   0.466   3.709  0.1754  0.4484  0.0606
  349MOL    H3442490   4.758   0.434   3.561  0.1447  1.2182  0.2580
  349MOL    H3542491   4.718   0.289   3.653 -2.5402 -0.1402  1.2194
  349MOL    H3642492   4.576   0.428   3.808 -0.6187  2.8011  0.7938
  349MOL    H3742493   4.604   0.575   3.715 -1.3293  0.4896  0.5648
  349MOL    C3842494   4.478   0.411   3.615 -0.3618 -0.0292  0.6493
  349MOL    C3942495   4.341   0.464   3.673 -0.1544 -0.0930 -0.1790
  349MOL    H4042496   4.493   0.448   3.513  2.3052  1.3895  1.4849
  349MOL    H4142497   4.484   0.303   3.621 -0.7422 -0.1759 -1.2651
  349MOL    H4242498   4.333   0.457   3.782  2.0237  0.3521  0.0299
  349MOL    H4342499   4.332   0.570   3.652  3.7774  0.4744  0.6368
  349MOL    C4442500   4.226   0.373   3.629  0.0415  0.6149 -0.0580
  349MOL    C4542501   4.086   0.408   3.669  0.0884 -0.0953  0.0106
  349MOL    H4642502   4.236   0.379   3.521  2.0501 -0.9670  0.0202
  349MOL    H4742503   4.250   0.274   3.668  0.5501 -0.9522 -4.1247
  349MOL    H4842504   4.060   0.364   3.765  0.8075  3.1432  1.7405
  349MOL    H4942505   4.070   0.515   3.684  0.4026 -0.4146  2.8204
  349MOL    C5042506   3.984   0.348   3.571  0.1735  0.0171  0.3251
  349MOL    C5142507   3.946   0.451   3.466  0.8392 -0.1772  0.4841
  349MOL    H5242508   4.025   0.260   3.521 -0.3030 -1.6553  2.8055
  349MOL    H5342509   3.894   0.332   3.630 -0.4581  2.8768  0.2160
  349MOL    H5442510   3.903   0.535   3.520  2.6034  1.0887 -0.0364
  349MOL    H5542511   4.037   0.484   3.415 -0.0406  1.5738  0.0414
  349MOL    C5642512   3.841   0.408   3.367 -0.2883 -0.7165  0.3852
  349MOL    C5742513   3.904   0.331   3.238  0.2672 -0.1629 -0.0020
  349MOL    H5842514   3.773   0.352   3.431 -1.0425  1.0974  1.2007
  349MOL    H5942515   3.798   0.503   3.334 -0.0591  0.5886  3.6284
  349MOL    H6042516   3.981   0.399   3.199 -0.7281  0.5075 -0.8493
  349MOL    H6142517   3.955   0.242   3.274  1.2792  0.1093 -0.7423
  349MOL    C6242518   3.797   0.310   3.132 -0.8259 -0.7839  0.0057
  349MOL    C6342519   3.851   0.239   3.012  0.2075  0.1866  0.6073
  349MOL    H6442520   3.713   0.260   3.179 -0.9973 -0.7429 -0.2555
  349MOL    H6542521   3.750   0.401   3.097  0.2460  0.1159  0.8569
  349MOL    H6642522   3.921   0.302   2.956  1.6154 -0.0307  2.0904
  349MOL    H6742523   3.894   0.143   3.039  0.4765  0.1651  0.1005
  349MOL    C6842524   3.735   0.202   2.919  0.3750 -0.3376 -1.0690
  349MOL    C6942525   3.781   0.125   2.797 -0.0518  0.4288  1.1319
  349MOL    H7042526   3.650   0.146   2.958 -0.5657  0.7494 -1.5177
  349MOL    H7142527   3.698   0.302   2.897  0.7552  0.2430  0.8308
  349MOL    H7242528   3.883   0.158   2.775  0.2420 -2.1660 -1.7427
  349MOL    H7342529   3.781   0.018   2.818 -0.1755  0.2790  0.3735
  349MOL    C7442530   3.684   0.165   2.679  0.1387  0.0080  0.2103
  349MOL    C7542531   3.715   0.078   2.556  0.0546 -0.4045 -0.0508
  349MOL    H7642532   3.576   0.161   2.694  0.2764 -0.3004  1.1433
  349MOL    H7742533   3.704   0.266   2.642  1.6286 -0.3277  0.0674
  349MOL    H7842534   3.821   0.088   2.529  0.0297 -1.7247 -0.6560
  349MOL    H7942535   3.701   7.664   2.578 -0.1407 -0.2713  0.4632
  349MOL    C8042536   3.637   0.133   2.433 -0.3442 -0.9708 -0.5038
  349MOL    C8142537   3.639   0.050   2.313 -0.5355  0.3577 -0.0923
  349MOL    H8242538   3.535   0.149   2.468 -0.9549 -1.0280 -2.2094
  349MOL    H8342539   3.676   0.233   2.415 -2.0749 -0.0808  0.6420
  349MOL    H8442540   3.745   0.033   2.296 -0.5554 -1.8876  1.7800
  349MOL    H8542541   3.594   7.645   2.336  0.0805  0.0202 -0.2850
  349MOL    C8642542   3.581   0.130   2.193 -0.4542  0.3420 -0.2817
  349MOL    C8742543   3.562   0.041   2.076 -0.0744  0.7349  0.4996
  349MOL    H8842544   3.488   0.175   2.227 -0.3405  0.9693 -0.7931
  349MOL    H8942545   3.659   0.203   2.170  0.7744 -1.2074 -1.0985
  349MOL    H9042546   3.649   7.672   2.049 -0.7007 -0.2906  0.7485
  349MOL    H9142547   3.479   7.671   2.111 -0.5409  0.2335 -1.4285
  349MOL    C9242548   3.504   0.110   1.957  0.1487 -0.8218  0.2860
  349MOL    C9342549   3.475   0.019   1.839  0.5370  0.3395  0.3066
  349MOL    H9442550   3.422   0.175   1.986 -0.2949 -1.3934  0.3161
  349MOL    H9542551   3.574   0.182   1.914 -0.0628 -1.0369 -0.4297
  349MOL    H9642552   3.562   7.650   1.814 -0.5922 -1.3148  0.2432
  349MOL    H9742553   3.398   7.640   1.871  0.3892  0.5212  0.3547
  349MOL    C9842554   3.457   0.083   1.704 -0.2688 -0.3549  0.5637
  349MOL    C9942555   3.309   0.104   1.674  0.7047 -0.2210  0.6910
  349MOL   H10042556   3.515   0.175   1.706 -1.1281  0.1914  0.5750
  349MOL   H10142557   3.502   0.032   1.619  1.0179  2.2620 -0.3884
  349MOL   H10242558   3.252   0.011   1.674 -0.9879  0.7820 -0.3335
  349MOL   H10342559   3.256   0.155   1.755 -2.0587 -0.2085 -1.0288
  349MOL   C10442560   3.301   0.169   1.533 -0.8297 -0.5796 -0.1553
  349MOL   C10542561   3.163   0.141   1.470 -0.0224 -0.5175 -0.1975
  349MOL   H10642562   3.331   0.272   1.555  1.4759 -1.6537  1.9140
  349MOL   H10742563   3.385   0.135   1.474 -0.8054 -1.4728  0.3868
  349MOL   H10842564   3.164   0.032   1.461  1.7681 -0.6253  1.1636
  349MOL   H10942565   3.079   0.176   1.530  0.5381  0.6026 -0.0663
  349MOL   C11042566   3.151   0.205   1.334  0.2620  0.3908 -0.6561
  349MOL   C11142567   3.153   0.362   1.337  0.1253 -0.2217 -0.0785
  349MOL   H11242568   3.237   0.174   1.275  0.9041  0.6241  0.1491
  349MOL   H11342569   3.057   0.174   1.289 -1.8544  3.2982  1.5389
  349MOL   H11442570   3.080   0.389   1.414 -0.0248  1.5140 -0.7962
  349MOL   H11542571   3.247   0.392   1.383 -0.0801  0.4527 -0.0929
  349MOL   C11642572   3.141   0.435   1.210 -0.1962 -0.6498 -0.0762
  349MOL   C11742573   3.005   0.421   1.136 -0.7481 -0.5784 -0.7861
  349MOL   H11842574   3.178   0.537   1.225 -0.1475 -0.6209 -0.3835
  349MOL   H11942575   3.221   0.410   1.141  2.2371 -1.1515  2.8121
  349MOL   H12042576   2.996   0.494   1.056 -1.4181 -0.3654 -0.5240
  349MOL   H12142577   2.987   0.322   1.095  0.8769 -0.9251 -0.6888
  349MOL   H12242578   2.921   0.446   1.201 -1.3966 -2.7736 -0.7485
  350MOL     C142579   6.244   4.020   4.441 -1.0220  0.5360 -0.4146
  350MOL     C242580   6.169   4.138   4.370  0.2700  0.1201  0.0712
  350MOL     H342581   6.352   4.032   4.436 -0.7614 -1.9845 -1.3682
  350MOL     H442582   6.212   3.925   4.397  0.0643 -0.1486  0.2308
  350MOL     H542583   6.217   4.156   4.274  0.6724 -1.7004 -0.0843
  350MOL     H642584   6.066   4.110   4.347  0.6229 -0.1619 -1.2038
  350MOL     H742585   6.213   4.020   4.546 -0.3161 -0.1551 -0.1939
  350MOL     C842586   6.178   4.265   4.455 -0.5469 -0.1462 -0.5112
  350MOL     C942587   6.161   4.396   4.385  0.3722  0.4637  0.4019
  350MOL    H1042588   6.112   4.258   4.542 -0.4979 -2.2293 -0.6266
  350MOL    H1142589   6.278   4.262   4.498 -0.8499 -1.6886  0.1135
  350MOL    H1242590   6.229   4.467   4.433  0.3966  0.6385  0.1108
  350MOL    H1342591   6.194   4.390   4.281  0.5232  1.7048  0.3685
  350MOL    C1442592   6.027   4.467   4.396  0.0237  0.0179  0.5161
  350MOL    C1542593   5.920   4.396   4.313  0.0807  0.2188 -0.2803
  350MOL    H1642594   5.995   4.468   4.501 -0.5841  0.6892  0.3236
  350MOL    H1742595   6.040   4.571   4.368 -0.1684  0.2261  1.1822
  350MOL    H1842596   5.932   4.403   4.205 -0.5392  2.0608 -0.2545
  350MOL    H1942597   5.919   4.291   4.342 -0.1092  1.0969  3.0752
  350MOL    C2042598   5.779   4.461   4.337  0.0937 -0.3454 -0.2089
  350MOL    C2142599   5.674   4.376   4.268 -1.1114  0.9951 -0.4716
  350MOL    H2242600   5.754   4.473   4.443 -0.2427  0.6701 -0.3973
  350MOL    H2342601   5.764   4.561   4.295 -2.7226 -0.1463  1.1078
  350MOL    H2442602   5.710   4.361   4.166 -1.0574 -1.6153 -0.1114
  350MOL    H2542603   5.666   4.279   4.318 -2.3614  1.0224 -0.5835
  350MOL    C2642604   5.527   4.433   4.281 -0.1944 -0.3350 -0.0334
  350MOL    C2742605   5.470   4.436   4.427  0.1225  0.2885  0.2978
  350MOL    H2842606   5.524   4.536   4.246  0.6817 -0.3910 -0.2856
  350MOL    H2942607   5.451   4.375   4.227 -1.1477  0.4874  0.4041
  350MOL    H3042608   5.455   4.338   4.471  0.4420 -0.8628 -2.1073
  350MOL    H3142609   5.534   4.494   4.493 -1.5757 -0.2787  2.4952
  350MOL    C3242610   5.325   4.489   4.440  0.0574  0.5362  0.1453
  350MOL    C3342611   5.251   4.436   4.565  0.0094  0.0887 -0.2837
  350MOL    H3442612   5.315   4.597   4.434 -0.9186  0.4407  0.0238
  350MOL    H3542613   5.268   4.445   4.357 -1.5619 -0.0889  1.5590
  350MOL    H3642614   5.148   4.467   4.549  0.2826  2.2526  1.8893
  350MOL    H3742615   5.239   4.328   4.558  1.7710 -0.4208  3.4558
  350MOL    C3842616   5.304   4.472   4.711 -0.7352 -0.2540  0.6233
  350MOL    C3942617   5.227   4.423   4.834  0.5867  0.1035 -0.9349
  350MOL    H4042618   5.408   4.439   4.707 -0.3904  1.0136 -1.3979
  350MOL    H4142619   5.318   4.579   4.725 -1.4487 -0.3256  2.0153
  350MOL    H4242620   5.136   4.483   4.839  0.3126 -0.4038  0.3821
  350MOL    H4342621   5.186   4.322   4.833  0.4871  0.0536  2.4565
  350MOL    C4442622   5.302   4.434   4.969 -0.2097  0.0112 -0.2675
  350MOL    C4542623   5.210   4.419   5.092  0.1429 -0.0524 -0.2513
  350MOL    H4642624   5.367   4.348   4.981  0.1959  0.5129  1.3026
  350MOL    H4742625   5.359   4.527   4.979 -0.6440  0.3481 -0.8997
  350MOL    H4842626   5.132   4.495   5.087  1.6466  1.4718 -1.1951
  350MOL    H4942627   5.160   4.322   5.090 -0.0239  0.0435 -1.4625
  350MOL    C5042628   5.288   4.420   5.228  0.4244 -0.4005  0.1308
  350MOL    C5142629   5.193   4.400   5.344  0.2468  0.4951 -0.3962
  350MOL    H5242630   5.372   4.351   5.224  0.6295 -0.0512 -2.5940
  350MOL    H5342631   5.320   4.521   5.254 -0.0514  0.4140 -2.2577
  350MOL    H5442632   5.122   4.483   5.334 -0.5597 -0.0821  0.5180
  350MOL    H5542633   5.153   4.300   5.329  2.3216 -0.3591 -0.4209
  350MOL    C5642634   5.264   4.409   5.475 -0.4183 -0.0613  0.0727
  350MOL    C5742635   5.164   4.387   5.587  0.7482  0.2032  0.1520
  350MOL    H5842636   5.334   4.326   5.485 -1.3046 -1.1215 -2.1078
  350MOL    H5942637   5.303   4.511   5.478 -1.7636  0.5229 -1.2508
  350MOL    H6042638   5.111   4.291   5.584  1.1922 -0.0826  1.0765
  350MOL    H6142639   5.222   4.377   5.679  1.5936 -0.2093 -0.4201
  350MOL    C6242640   5.076   4.511   5.609  0.2369  0.4948  0.8595
  350MOL    C6342641   5.002   4.503   5.739  0.1707  0.8346  0.2791
  350MOL    H6442642   5.136   4.602   5.596  0.4389  0.6538  2.7722
  350MOL    H6542643   4.995   4.506   5.537  0.7544 -0.5139  0.3315
  350MOL    H6642644   4.984   4.401   5.774 -1.0615  0.5780 -1.0411
  350MOL    H6742645   5.071   4.541   5.814  1.4213 -0.9215  0.0770
  350MOL    C6842646   4.859   4.585   5.734 -0.5219  0.2238 -0.0902
  350MOL    C6942647   4.823   4.617   5.881 -0.7203 -0.0290 -0.5638
  350MOL    H7042648   4.870   4.669   5.666 -1.2806 -0.4717 -1.0806
  350MOL    H7142649   4.785   4.516   5.693  0.0872  0.1586 -1.0980
  350MOL    H7242650   4.719   4.648   5.873 -1.3908 -1.8199  0.8194
  350MOL    H7342651   4.803   4.522   5.930  1.1939 -0.1647 -0.0120
  350MOL    C7442652   4.910   4.720   5.956  0.2004 -0.0582  0.0628
  350MOL    C7542653   4.851   4.754   6.093  0.2406 -0.1597  0.3401
  350MOL    H7642654   5.016   4.694   5.969  0.0638 -0.1733  0.9896
  350MOL    H7742655   4.919   4.819   5.910 -1.0390  1.1524  2.3151
  350MOL    H7842656   4.765   4.822   6.090 -1.3533 -2.1515 -0.1352
  350MOL    H7942657   4.828   4.661   6.145  4.2888 -1.6535 -0.4344
  350MOL    C8042658   4.957   4.831   6.185 -0.2696  0.5848 -0.0222
  350MOL    C8142659   4.875   4.903   6.291 -0.2337 -0.3029 -0.5035
  350MOL    H8242660   5.028   4.761   6.229  0.1116  1.1177  0.2230
  350MOL    H8342661   5.016   4.896   6.120  1.4432 -0.2279  0.6976
  350MOL    H8442662   4.807   4.973   6.242 -0.8509  1.0179  2.1477
  350MOL    H8542663   4.809   4.836   6.345 -2.6849  1.2376 -1.4986
  350MOL    C8642664   4.968   4.988   6.378  0.6316  0.0447 -0.1705
  350MOL    C8742665   4.888   5.071   6.489 -0.2812 -0.2767  0.1199
  350MOL    H8842666   5.045   4.933   6.432 -0.9810 -1.1399  0.9565
  350MOL    H8942667   5.011   5.062   6.310  2.0309 -2.2445 -1.8032
  350MOL    H9042668   4.803   5.124   6.448 -1.9038 -2.5190  0.4629
  350MOL    H9142669   4.849   4.995   6.558 -0.5971  1.9211  2.4075
  350MOL    C9242670   4.981   5.173   6.562  0.4283  0.2082  0.2125
  350MOL    C9342671   4.909   5.229   6.684  0.5475 -0.3745  0.7048
  350MOL    H9442672   5.072   5.117   6.585  1.0874  0.9254 -0.6181
  350MOL    H9542673   5.004   5.254   6.493 -0.5487  0.4494  0.1711
  350MOL    H9642674   4.812   5.268   6.655  0.5231 -0.3238  0.8597
  350MOL    H9742675   4.881   5.150   6.753 -2.0962  0.5301  0.7076
  350MOL    C9842676   4.985   5.340   6.767  0.2362  0.1621  0.6076
  350MOL    C9942677   4.993   5.480   6.679 -0.3942 -0.0969 -0.2840
  350MOL   H10042678   4.926   5.369   6.855 -0.1705  0.1850  0.3302
  350MOL   H10142679   5.085   5.313   6.800  0.4125 -1.6343 -1.2635
  350MOL   H10242680   5.069   5.477   6.601 -0.4355 -0.3895 -0.3148
  350MOL   H10342681   4.896   5.486   6.629  1.3663  1.2327 -3.6728
  350MOL   C10442682   5.017   5.600   6.767 -0.3719  0.3530  0.1835
  350MOL   C10542683   5.163   5.617   6.816 -0.0890 -0.1117 -0.2556
  350MOL   H10642684   4.971   5.680   6.708 -0.5500 -0.2272 -0.4737
  350MOL   H10742685   4.947   5.591   6.851 -0.1701  1.2171  0.4482
  350MOL   H10842686   5.189   5.527   6.871 -0.8536  0.2954  0.7874
  350MOL   H10942687   5.227   5.612   6.728  2.0144  2.6972  1.0148
  350MOL   C11042688   5.188   5.746   6.894 -0.2917 -0.0647 -0.2154
  350MOL   C11142689   5.338   5.759   6.942 -0.0614 -0.1404 -0.3907
  350MOL   H11242690   5.183   5.830   6.825  1.8405  1.1427  1.0252
  350MOL   H11342691   5.122   5.770   6.978  0.8879 -1.0102  1.0062
  350MOL   H11442692   5.355   5.685   7.020 -1.5885  1.1348  1.1704
  350MOL   H11542693   5.394   5.721   6.856 -0.7599  0.2839 -1.0414
  350MOL   C11642694   5.388   5.904   6.978  0.0621  0.5081  0.2451
  350MOL   C11742695   5.294   6.005   7.052 -0.0779  0.0031  0.1358
  350MOL   H11842696   5.485   5.903   7.027 -0.2262  0.5031  0.8102
  350MOL   H11942697   5.398   5.948   6.878  1.4072  0.8283  0.5032
  350MOL   H12042698   5.333   6.106   7.051 -0.9870  0.3666  0.6127
  350MOL   H12142699   5.194   6.000   7.007  0.4185 -0.5700 -0.9119
  350MOL   H12242700   5.281   5.965   7.153  1.1394 -0.6486  0.0412
  351MOL     C142701   3.927   1.237   5.191  0.2674  0.5041 -0.4569
  351MOL     C242702   4.037   1.126   5.214 -0.3609  0.2945  0.4022
  351MOL     H342703   3.899   1.253   5.087  2.2057  2.0863 -0.7727
  351MOL     H442704   3.959   1.333   5.232  0.8332 -0.0220  0.3363
  351MOL     H542705   4.140   1.161   5.207  0.0786 -1.2023 -0.8037
  351MOL     H642706   4.022   1.088   5.315 -0.1012 -2.5958 -0.5895
  351MOL     H742707   3.835   1.206   5.240  0.4363  0.4700 -0.1627
  351MOL     C842708   4.027   1.009   5.116 -0.7509 -0.9879  0.1650
  351MOL     C942709   4.132   0.900   5.149  0.0628 -0.3270  0.2397
  351MOL    H1042710   3.925   0.973   5.097 -1.2949 -0.0199  1.1850
  351MOL    H1142711   4.060   1.049   5.020  2.9314 -0.9313  1.3930
  351MOL    H1242712   4.232   0.940   5.131 -1.6567  3.2447 -1.8968
  351MOL    H1342713   4.123   0.858   5.249 -0.0853 -1.0955 -0.0998
  351MOL    C1442714   4.125   0.787   5.050 -0.4682 -0.2308 -0.6541
  351MOL    C1542715   4.215   0.672   5.101  0.2068  0.4775  0.3536
  351MOL    H1642716   4.024   0.746   5.050  0.3308 -2.2958  1.1169
  351MOL    H1742717   4.159   0.822   4.952 -0.5255 -0.7472 -0.8629
  351MOL    H1842718   4.315   0.707   5.124  0.7875 -0.8978 -0.0643
  351MOL    H1942719   4.183   0.634   5.198  0.7475  0.7563  0.6400
  351MOL    C2042720   4.228   0.561   4.996  0.3148 -0.1975  0.3237
  351MOL    C2142721   4.343   0.468   5.032  0.3321 -0.0055  0.2267
  351MOL    H2242722   4.132   0.509   4.992  0.6162 -0.7184 -0.1287
  351MOL    H2342723   4.251   0.599   4.897 -0.1597 -0.9992 -0.1013
  351MOL    H2442724   4.441   0.514   5.040  0.8067 -0.8210 -0.8480
  351MOL    H2542725   4.341   0.432   5.135 -2.1781  1.3023  0.6739
  351MOL    C2642726   4.338   0.356   4.931  0.2529  0.2897  0.2580
  351MOL    C2742727   4.472   0.273   4.943 -1.2700  0.0193 -0.6597
  351MOL    H2842728   4.254   0.287   4.945 -0.3005  0.4710 -2.1003
  351MOL    H2942729   4.348   0.392   4.829  1.3977  1.1029  0.6433
  351MOL    H3042730   4.560   0.334   4.925 -2.3122  2.1367  1.0608
  351MOL    H3142731   4.476   0.233   5.045 -1.2063 -0.5243 -0.8790
  351MOL    C3242732   4.475   0.153   4.844 -0.2221  0.3690  0.0182
  351MOL    C3342733   4.599   0.074   4.858  0.1551  0.2950 -0.4049
  351MOL    H3442734   4.381   0.098   4.856 -0.3026  0.5769  0.3702
  351MOL    H3542735   4.460   0.188   4.742 -0.2510  1.2229  0.3062
  351MOL    H3642736   4.686   0.132   4.826 -0.4212  1.8564  0.8087
  351MOL    H3742737   4.635   0.058   4.960  0.1652  2.9493  0.0335
  351MOL    C3842738   4.578   7.628   4.790  0.0701 -0.5556 -0.4930
  351MOL    C3942739   4.707   7.548   4.785  0.0702  0.1384  0.1280
  351MOL    H4042740   4.494   7.572   4.832 -1.3325  2.1160  0.4327
  351MOL    H4142741   4.546   7.650   4.688  1.6491 -1.9144 -1.2887
  351MOL    H4242742   4.787   7.611   4.746  1.0712 -2.3838 -2.0964
  351MOL    H4342743   4.736   7.531   4.889 -0.1567 -1.9433 -0.1344
  351MOL    C4442744   4.701   7.419   4.708 -0.4803 -0.3336  0.2423
  351MOL    C4542745   4.828   7.343   4.691 -0.0876 -0.2763  0.2952
  351MOL    H4642746   4.636   7.357   4.770 -1.9513  0.1185 -0.8233
  351MOL    H4742747   4.659   7.441   4.610  0.2009  1.4461  0.3295
  351MOL    H4842748   4.890   7.414   4.636  0.5262 -0.2189  1.0450
  351MOL    H4942749   4.879   7.327   4.786 -1.0059  1.0113  1.0129
  351MOL    C5042750   4.804   7.203   4.627 -0.9643 -0.2989 -0.5592
  351MOL    C5142751   4.933   7.116   4.608 -0.4170 -0.4752  0.5091
  351MOL    H5242752   4.730   7.158   4.692  1.3195 -2.1059  0.9013
  351MOL    H5342753   4.764   7.208   4.526 -0.2764 -0.7775 -0.8638
  351MOL    H5442754   5.000   7.179   4.549 -3.2899  0.4575 -1.8614
  351MOL    H5542755   4.972   7.104   4.709 -0.4136 -0.5375  0.4999
  351MOL    C5642756   4.910   6.981   4.537  0.6795  0.6002  0.0744
  351MOL    C5742757   5.039   6.899   4.516  0.4045  0.3441  0.0529
  351MOL    H5842758   4.841   6.929   4.604  0.8917 -1.2396 -1.1010
  351MOL    H5942759   4.859   6.986   4.441  0.3511 -0.4586  0.1837
  351MOL    H6042760   5.111   6.955   4.456  1.9353 -1.9060 -0.2872
  351MOL    H6142761   5.089   6.892   4.613 -1.9747  2.5909  1.5073
  351MOL    C6242762   5.013   6.756   4.458  0.0156  0.3921  0.1566
  351MOL    C6342763   5.138   6.671   4.452 -0.5630 -0.2106  0.3145
  351MOL    H6442764   4.944   6.705   4.526 -0.4667  1.9893  0.8962
  351MOL    H6542765   4.957   6.763   4.364 -1.6765 -0.0678  1.0978
  351MOL    H6642766   5.222   6.733   4.418 -0.0278 -0.5324  1.0588
  351MOL    H6742767   5.162   6.643   4.554  0.2991  0.8471  0.4238
  351MOL    C6842768   5.124   6.529   4.394 -0.3706  0.5981  0.7157
  351MOL    C6942769   5.250   6.443   4.400 -0.2820 -0.1341  0.4952
  351MOL    H7042770   5.040   6.472   4.433  0.3630 -0.4380  0.8053
  351MOL    H7142771   5.094   6.537   4.290  1.2600 -1.1707  0.0856
  351MOL    H7242772   5.345   6.481   4.363 -1.1522  0.3860 -1.2606
  351MOL    H7342773   5.269   6.423   4.505  1.0330 -2.7598 -0.2227
  351MOL    C7442774   5.220   6.310   4.322  0.0603 -0.1076 -0.3082
  351MOL    C7542775   5.306   6.192   4.372  0.7442  0.4342  0.8947
  351MOL    H7642776   5.119   6.273   4.337  0.0873  0.1684  0.5726
  351MOL    H7742777   5.230   6.337   4.217 -2.8001 -0.6956 -0.7817
  351MOL    H7842778   5.310   6.201   4.480  0.7475  1.6430  0.8066
  351MOL    H7942779   5.255   6.099   4.347  0.1219  0.9012  0.3994
  351MOL    C8042780   5.452   6.183   4.322  0.1043 -0.1335 -0.2466
  351MOL    C8142781   5.546   6.228   4.431  0.4186  0.4456  0.2773
  351MOL    H8242782   5.482   6.081   4.298  1.7992  0.2539  0.1863
  351MOL    H8342783   5.473   6.239   4.231  2.3519 -0.1711  0.2271
  351MOL    H8442784   5.643   6.243   4.383 -0.1214  3.1360 -0.0790
  351MOL    H8542785   5.520   6.327   4.469 -1.1934  0.4780 -0.8601
  351MOL    C8642786   5.556   6.140   4.558  0.2830  0.1031 -0.8841
  351MOL    C8742787   5.512   6.221   4.688 -0.1420  0.0567 -0.0217
  351MOL    H8842788   5.490   6.055   4.539  0.8551 -0.6336  0.3770
  351MOL    H8942789   5.656   6.101   4.576 -0.2072 -0.8114 -0.1086
  351MOL    H9042790   5.420   6.267   4.652 -0.6029 -1.5165 -0.8733
  351MOL    H9142791   5.492   6.145   4.764 -0.4074  1.2122  1.0831
  351MOL    C9242792   5.612   6.319   4.737 -0.2626 -0.8143  1.0847
  351MOL    C9342793   5.556   6.389   4.856  0.1864 -0.1947 -0.2469
  351MOL    H9442794   5.689   6.252   4.776  1.8246  0.9498  0.1085
  351MOL    H9542795   5.649   6.384   4.658 -1.2146 -0.1461  1.1834
  351MOL    H9642796   5.457   6.422   4.826  1.0882  1.6343 -1.3278
  351MOL    H9742797   5.526   6.322   4.937 -0.8873 -0.1883 -0.6368
  351MOL    C9842798   5.641   6.507   4.904 -0.3616  0.4570 -0.4472
  351MOL    C9942799   5.589   6.580   5.037 -1.4294  0.4281  0.3135
  351MOL   H10042800   5.737   6.455   4.914 -1.2253 -0.8913  1.1707
  351MOL   H10142801   5.651   6.589   4.833 -0.0287  2.2735  1.6167
  351MOL   H10242802   5.524   6.666   5.021  0.6434  1.7780 -1.0939
  351MOL   H10342803   5.523   6.511   5.090 -0.2727 -1.1704 -0.2922
  351MOL   C10442804   5.701   6.639   5.130  0.4540  1.0527 -0.5532
  351MOL   C10542805   5.652   6.737   5.234  0.0902  0.2571 -0.2060
  351MOL   H10642806   5.753   6.557   5.181  1.3455  2.6585  1.1743
  351MOL   H10742807   5.777   6.679   5.062 -0.1600  0.4894 -1.5818
  351MOL   H10842808   5.589   6.808   5.180  0.7815 -0.6418 -2.2175
  351MOL   H10942809   5.583   6.688   5.303  0.1516 -1.0340 -1.0447
  351MOL   C11042810   5.758   6.804   5.307 -0.8809 -0.6132  0.3684
  351MOL   C11142811   5.689   6.888   5.418 -0.5733 -0.8131 -0.4341
  351MOL   H11242812   5.828   6.732   5.350 -0.6245 -1.7007 -1.8101
  351MOL   H11342813   5.832   6.860   5.250  0.7813 -0.9467  2.1596
  351MOL   H11442814   5.614   6.959   5.384 -1.4289 -2.0500 -1.1340
  351MOL   H11542815   5.625   6.830   5.485 -2.4450  1.6481  0.0008
  351MOL   C11642816   5.794   6.972   5.482  0.0594  0.5770 -0.5719
  351MOL   C11742817   5.746   7.066   5.593 -0.1307 -0.4527 -0.3121
  351MOL   H11842818   5.875   6.917   5.529 -1.2091 -1.0614 -0.2645
  351MOL   H11942819   5.844   7.033   5.407 -1.1933  1.2394 -0.8926
  351MOL   H12042820   5.678   7.018   5.663 -0.3496 -0.3588 -0.4592
  351MOL   H12142821   5.826   7.114   5.650 -0.2039  1.2959 -1.6393
  351MOL   H12242822   5.691   7.150   5.551  2.2570  1.8364  0.9335
  352MOL     C142823   2.030   5.156   0.784  0.5938  0.2874  0.4836
  352MOL     C242824   2.102   5.289   0.777  0.2560 -0.6586  0.3867
  352MOL     H342825   1.976   5.154   0.879  0.0059  1.8691  0.1949
  352MOL     H442826   2.101   5.073   0.779  0.4194  0.2140 -0.7901
  352MOL     H542827   2.029   5.362   0.812  1.7303  0.6407  0.7832
  352MOL     H642828   2.181   5.300   0.851  0.3585 -1.9646  0.4949
  352MOL     H742829   1.951   5.147   0.710 -1.4635  0.2631  2.6324
  352MOL     C842830   2.151   5.324   0.635 -0.0172  0.2782  0.0555
  352MOL     C942831   2.226   5.464   0.633  1.0543  0.1492 -0.4183
  352MOL    H1042832   2.230   5.250   0.619 -0.1692 -0.1419  1.2365
  352MOL    H1142833   2.075   5.317   0.557 -0.2939 -0.1941  0.3691
  352MOL    H1242834   2.295   5.473   0.717 -1.5892 -0.4030  1.8937
  352MOL    H1342835   2.291   5.480   0.547 -0.4674  1.4980 -1.3310
  352MOL    C1442836   2.128   5.582   0.624 -0.4047  0.4973 -0.3424
  352MOL    C1542837   2.206   5.710   0.650 -0.5520 -0.5436  0.0192
  352MOL    H1642838   2.090   5.590   0.522  1.6381 -1.5597 -1.3033
  352MOL    H1742839   2.043   5.562   0.690  1.0546 -0.6445  1.2117
  352MOL    H1842840   2.207   5.708   0.759  0.8696 -0.8173  0.0022
  352MOL    H1942841   2.309   5.701   0.616 -1.2653 -1.3521 -2.0078
  352MOL    C2042842   2.139   5.838   0.597  0.2470 -0.2957 -0.4864
  352MOL    C2142843   2.215   5.963   0.644  0.0162 -0.3147  0.1042
  352MOL    H2242844   2.155   5.832   0.490  2.4726 -2.2861 -0.0938
  352MOL    H2342845   2.033   5.849   0.619  0.3757  2.2034 -1.0170
  352MOL    H2442846   2.208   5.958   0.753 -1.7551  0.1681  0.0277
  352MOL    H2542847   2.322   5.955   0.625  0.3470 -0.3675  1.8786
  352MOL    C2642848   2.155   6.082   0.581 -0.5944  0.1208  0.7316
  352MOL    C2742849   2.220   6.213   0.629  0.2151  0.2213  0.1811
  352MOL    H2842850   2.161   6.076   0.472 -0.2139  1.0921  0.6965
  352MOL    H2942851   2.050   6.087   0.608 -1.1957 -2.1389 -0.9831
  352MOL    H3042852   2.193   6.229   0.734 -0.1167  0.0969  0.1151
  352MOL    H3142853   2.328   6.204   0.620  0.1217 -0.7023 -0.1137
  352MOL    C3242854   2.170   6.337   0.552 -0.3548  0.1025 -0.3322
  352MOL    C3342855   2.216   6.478   0.597  0.5631  0.5423  0.1632
  352MOL    H3442856   2.212   6.309   0.455  1.8336 -2.7425  1.3741
  352MOL    H3542857   2.063   6.334   0.532 -0.2976 -2.1333 -0.3576
  352MOL    H3642858   2.184   6.496   0.699  1.3503 -1.6370  0.8155
  352MOL    H3742859   2.324   6.466   0.607  0.9018  1.4950 -1.9196
  352MOL    C3842860   2.192   6.592   0.494 -0.0431  0.3491 -0.7372
  352MOL    C3942861   2.257   6.720   0.552 -0.2339 -0.5913  0.8577
  352MOL    H4042862   2.230   6.568   0.395  0.9754 -0.4754 -0.1603
  352MOL    H4142863   2.084   6.602   0.491 -0.2172 -0.1304  2.4369
  352MOL    H4242864   2.235   6.726   0.659 -2.1356 -1.2693  0.5363
  352MOL    H4342865   2.361   6.705   0.526  0.8719  3.2336  2.6669
  352MOL    C4442866   2.215   6.838   0.464  0.5088 -0.2167 -0.8123
  352MOL    C4542867   2.283   6.960   0.508 -0.1899  0.4641  0.3607
  352MOL    H4642868   2.238   6.828   0.358 -1.0613 -0.4362 -1.1549
  352MOL    H4742869   2.107   6.849   0.477  0.9239  1.3043  1.4738
  352MOL    H4842870   2.217   7.036   0.466 -0.9832 -0.2575  0.2980
  352MOL    H4942871   2.287   6.977   0.615  2.1094  3.0544 -0.0693
  352MOL    C5042872   2.426   6.979   0.447 -0.3517  0.6541 -0.3827
  352MOL    C5142873   2.505   7.083   0.531  0.4862 -0.2480  0.0838
  352MOL    H5242874   2.478   6.884   0.435  0.2818  0.7958  1.2309
  352MOL    H5342875   2.417   7.013   0.343 -1.1280  0.1932 -0.4663
  352MOL    H5442876   2.438   7.169   0.534 -1.4301 -1.7356  1.3059
  352MOL    H5542877   2.518   7.052   0.635  4.1326  1.1230  0.1281
  352MOL    C5642878   2.638   7.118   0.469  0.0705 -0.0402  0.3165
  352MOL    C5742879   2.738   7.170   0.568  0.4535  0.3850  0.0419
  352MOL    H5842880   2.680   7.024   0.434  1.1761  0.9254 -0.9685
  352MOL    H5942881   2.623   7.192   0.391 -0.9407  0.5540  1.0576
  352MOL    H6042882   2.689   7.255   0.617 -0.1804  0.4003 -0.6143
  352MOL    H6142883   2.758   7.092   0.641 -1.7055  1.8066  2.2488
  352MOL    C6242884   2.866   7.222   0.502 -0.8182 -0.6036  0.2433
  352MOL    C6342885   2.972   7.280   0.596  0.1433 -0.2362  0.6666
  352MOL    H6442886   2.923   7.149   0.443 -0.0714  0.4610 -0.3701
  352MOL    H6542887   2.836   7.294   0.426 -2.1249 -2.7148 -1.3036
  352MOL    H6642888   2.935   7.371   0.643  1.7622  0.4677  0.6260
  352MOL    H6742889   2.983   7.218   0.684 -4.2471 -0.8088  0.9230
  352MOL    C6842890   3.100   7.314   0.519 -0.6333 -0.1497  0.1404
  352MOL    C6942891   3.198   7.392   0.610 -0.2590 -0.2794 -0.9377
  352MOL    H7042892   3.142   7.221   0.480  0.5173  0.2580  0.3854
  352MOL    H7142893   3.074   7.372   0.430  1.3171  0.7290  0.1271
  352MOL    H7242894   3.180   7.499   0.613  1.5581  0.0939 -2.4699
  352MOL    H7342895   3.184   7.352   0.710 -0.7526  0.2308 -0.8013
  352MOL    C7442896   3.344   7.376   0.564 -0.2485 -0.4591 -0.1441
  352MOL    C7542897   3.442   7.388   0.684 -0.8082  0.5483  0.1081
  352MOL    H7642898   3.369   7.278   0.525  0.5541  0.3037 -1.5866
  352MOL    H7742899   3.356   7.452   0.487  0.3601 -0.7404 -0.3293
  352MOL    H7842900   3.418   7.476   0.742  1.5508  0.3532  1.4476
  352MOL    H7942901   3.437   7.301   0.749 -0.1578  0.3535 -0.0985
  352MOL    C8042902   3.586   7.406   0.638 -0.1067  0.5665 -0.6422
  352MOL    C8142903   3.676   7.431   0.763 -0.1688  0.1164 -0.0277
  352MOL    H8242904   3.616   7.309   0.601  0.6432  0.4935  0.1562
  352MOL    H8342905   3.588   7.485   0.563 -0.8759  2.6242  1.4347
  352MOL    H8442906   3.664   7.532   0.800  1.0380  0.7991 -1.4463
  352MOL    H8542907   3.665   7.361   0.846 -2.7711  1.2736  0.6383
  352MOL    C8642908   3.823   7.422   0.733  1.0469  0.0205  0.5273
  352MOL    C8742909   3.920   7.468   0.844 -0.0988  0.6812  0.3282
  352MOL    H8842910   3.857   7.327   0.692  0.9013  0.2097 -0.0460
  352MOL    H8942911   3.843   7.498   0.657  0.2235  2.3702  2.5988
  352MOL    H9042912   4.017   7.476   0.794  0.2368 -0.5112  0.7712
  352MOL    H9142913   3.896   7.564   0.889 -0.9622 -0.4430  2.3135
  352MOL    C9242914   3.942   7.356   0.949 -0.2266  0.2042  0.3279
  352MOL    C9342915   4.044   7.394   1.064 -0.1570 -0.6773  0.2699
  352MOL    H9442916   3.847   7.323   0.991  0.1877 -1.3489  0.0692
  352MOL    H9542917   3.974   7.268   0.892 -2.4435 -0.3068 -0.1605
  352MOL    H9642918   4.146   7.412   1.030 -0.5999 -1.3918 -1.5116
  352MOL    H9742919   4.002   7.485   1.109  2.4666  1.6920 -1.9002
  352MOL    C9842920   4.034   7.274   1.167  0.6347  0.8280  0.4364
  352MOL    C9942921   4.107   7.296   1.303 -0.4825 -0.0258  0.4230
  352MOL   H10042922   3.935   7.239   1.194 -0.1520  1.8010 -1.1432
  352MOL   H10142923   4.076   7.184   1.122  0.8635  1.3646 -0.4383
  352MOL   H10242924   4.212   7.315   1.278 -1.0293  2.6986  0.1286
  352MOL   H10342925   4.080   7.393   1.344  0.6403 -0.2336  1.6996
  352MOL   C10442926   4.084   7.172   1.389 -0.1137  0.0046  0.1097
  352MOL   C10542927   4.176   7.173   1.518  0.9198 -0.3040  0.1798
  352MOL   H10642928   3.981   7.153   1.417 -0.0778  0.6750  0.6960
  352MOL   H10742929   4.111   7.081   1.334  1.2825 -0.9248  2.2869
  352MOL   H10842930   4.157   7.073   1.557  1.4265 -0.7394 -0.6626
  352MOL   H10942931   4.282   7.176   1.492  1.2770  0.8283  1.6897
  352MOL   C11042932   4.140   7.285   1.608 -0.4275  0.2492  0.0727
  352MOL   C11142933   3.989   7.294   1.644  0.0310 -0.7643 -0.0958
  352MOL   H11242934   4.194   7.260   1.699  0.6010  1.2256 -0.2582
  352MOL   H11342935   4.175   7.382   1.572 -1.4757  0.6380  0.0830
  352MOL   H11442936   3.921   7.302   1.558 -0.2042  0.6674  0.2179
  352MOL   H11542937   3.948   7.203   1.688 -2.2733 -0.2826 -1.1770
  352MOL   C11642938   3.959   7.417   1.738  0.1868 -0.4670 -0.9717
  352MOL   C11742939   3.807   7.429   1.766 -0.0622 -0.2852  0.0220
  352MOL   H11842940   4.014   7.398   1.830 -3.8489 -1.0439  1.4603
  352MOL   H11942941   3.987   7.511   1.690  0.3114  1.1138  2.0958
  352MOL   H12042942   3.756   7.354   1.826  0.4904 -0.5127  0.2086
  352MOL   H12142943   3.784   7.529   1.803 -2.9343 -0.1868 -1.8679
  352MOL   H12242944   3.758   7.418   1.670  0.6047 -1.5620 -0.1823
  353MOL     C142945   0.438   5.662   3.217 -0.2434 -0.4825  0.6860
  353MOL     C242946   0.488   5.590   3.091  0.2916  0.0149  0.2625
  353MOL     H342947   0.423   5.595   3.301  2.1495 -0.6068  1.0492
  353MOL     H442948   0.342   5.712   3.202  1.1423  1.7201 -1.2895
  353MOL     H542949   0.508   5.668   3.018 -2.5423 -0.6692 -1.3456
  353MOL     H642950   0.580   5.536   3.113  0.7533  1.0310  0.8321
  353MOL     H742951   0.507   5.739   3.250 -0.3098  0.1540 -0.6034
  353MOL     C842952   0.396   5.482   3.035 -0.3102 -0.2648 -0.4703
  353MOL     C942953   0.443   5.412   2.906  0.2983  0.1679  0.0849
  353MOL    H1042954   0.382   5.406   3.111  0.1622  0.3713  0.2524
  353MOL    H1142955   0.301   5.535   3.022 -0.6357 -0.9205 -0.7879
  353MOL    H1242956   0.437   5.490   2.830  0.4945  0.5270  0.4389
  353MOL    H1342957   0.547   5.380   2.920  0.7849  1.6665 -0.0005
  353MOL    C1442958   0.341   5.303   2.867 -0.6928 -0.2992 -0.4222
  353MOL    C1542959   0.385   5.227   2.736  0.2216 -0.1510  1.0293
  353MOL    H1642960   0.308   5.234   2.945  0.2456 -1.3390 -0.9211
  353MOL    H1742961   0.253   5.363   2.845 -0.2041  1.0076  1.1376
  353MOL    H1842962   0.419   5.302   2.665 -0.2633  1.2200  2.2215
  353MOL    H1942963   0.471   5.169   2.766  2.2283  2.1706 -0.0557
  353MOL    C2042964   0.268   5.136   2.686  0.8077 -0.1158  0.6162
  353MOL    C2142965   0.296   5.069   2.556 -0.8855 -0.6791 -0.1330
  353MOL    H2242966   0.242   5.068   2.767  1.5498 -1.2509 -0.0780
  353MOL    H2342967   0.173   5.189   2.676  1.2326  0.8491  1.6752
  353MOL    H2442968   0.296   5.140   2.474 -0.4814 -0.8191 -0.2550
  353MOL    H2542969   0.395   5.024   2.559 -1.6987 -2.4650  2.7263
  353MOL    C2642970   0.193   4.961   2.538 -0.1450 -0.3327 -0.2670
  353MOL    C2742971   0.210   4.895   2.405 -0.2438  0.5351  0.2762
  353MOL    H2842972   0.199   4.890   2.620  0.4234  0.8846  0.7674
  353MOL    H2942973   0.095   5.009   2.545 -0.4525 -0.9222 -0.5225
  353MOL    H3042974   0.200   4.976   2.333  1.1489  1.9308  1.6025
  353MOL    H3142975   0.311   4.855   2.395 -1.7093 -3.4415  0.1604
  353MOL    C3242976   0.109   4.786   2.376  0.4876 -0.5505  0.7685
  353MOL    C3342977   0.119   4.741   2.229  0.3666 -0.4687  0.9168
  353MOL    H3442978   0.141   4.710   2.447 -0.7495 -0.1776  1.7343
  353MOL    H3542979   0.008   4.818   2.403  0.8642  0.2049  1.2957
  353MOL    H3642980   0.074   4.820   2.169  0.2207 -1.4112 -0.2459
  353MOL    H3742981   0.221   4.727   2.192 -0.4637 -0.5576 -1.4148
  353MOL    C3842982   0.053   4.607   2.194 -0.0429 -0.3415  0.6238
  353MOL    C3942983   0.094   4.563   2.052  0.4347 -0.6098  0.3016
  353MOL    H4042984   0.109   4.540   2.260  2.2434  0.1026 -0.8037
  353MOL    H4142985   7.638   4.611   2.211 -0.1438 -0.5974  0.0552
  353MOL    H4242986   0.079   4.649   1.987 -0.3620 -1.3041 -0.4466
  353MOL    H4342987   0.197   4.528   2.052  0.8175  0.4862 -0.8486
  353MOL    C4442988   0.009   4.464   1.988  0.7685  1.3038  0.3970
  353MOL    C4542989   0.051   4.431   1.841  0.1205 -0.2530 -1.1275
  353MOL    H4642990   0.009   4.370   2.043 -1.2191  0.4738 -0.9503
  353MOL    H4742991   7.599   4.502   1.995  0.0795 -0.3501 -0.4354
  353MOL    H4842992   0.049   4.528   1.791  1.0628 -0.5440 -1.7621
  353MOL    H4942993   0.153   4.391   1.836  0.3902  0.0879  1.2450
  353MOL    C5042994   7.651   4.337   1.771 -0.4081  0.6641 -0.2246
  353MOL    C5142995   0.011   4.319   1.623 -0.2680  0.4299  0.8823
  353MOL    H5242996   7.649   4.238   1.816  2.9176  0.4753 -0.3339
  353MOL    H5342997   7.551   4.377   1.783 -0.6972 -0.8244  2.7297
  353MOL    H5442998   7.673   4.407   1.567 -1.6846  0.5739  1.8198
  353MOL    H5542999   0.116   4.293   1.614 -0.5202 -0.1152 -0.6181
  353MOL    C5643000   7.622   4.206   1.559  0.4727  0.2383  0.2695
  353MOL    C5743001   7.622   4.210   1.404  0.0293  0.1316 -0.8912
  353MOL    H5843002   7.638   4.107   1.601  0.2799 -0.1888 -0.6480
  353MOL    H5943003   7.517   4.209   1.585  0.0703  0.1930 -1.2679
  353MOL    H6043004   7.529   4.160   1.375  0.1438 -1.4686  1.3969
  353MOL    H6143005   7.608   4.314   1.374  2.8250  0.7916 -0.0309
  353MOL    C6243006   0.053   4.147   1.330 -0.0719  0.2382  0.3987
  353MOL    C6343007   0.080   4.199   1.186 -0.0074 -0.3230  0.7659
  353MOL    H6443008   0.140   4.165   1.392  0.2061 -1.1277  0.4175
  353MOL    H6543009   0.044   4.038   1.328  1.4298  0.1199 -1.2305
  353MOL    H6643010   0.052   4.303   1.175 -2.5067 -1.2091 -1.9092
  353MOL    H6743011   0.186   4.190   1.162 -0.5523 -0.5092 -1.6398
  353MOL    C6843012   0.010   4.109   1.080  0.2992 -0.2518 -0.4528
  353MOL    C6943013   0.001   4.170   0.942  0.9356 -0.7048  0.3092
  353MOL    H7043014   0.045   4.006   1.088  0.0417 -0.2792  0.3134
  353MOL    H7143015   7.600   4.108   1.118  0.0020  1.2563 -1.1581
  353MOL    H7243016   7.665   4.275   0.944  0.7903 -0.7622  1.4191
  353MOL    H7343017   0.103   4.157   0.908 -0.7327 -1.2030 -5.0247
  353MOL    C7443018   7.592   4.101   0.850 -0.1539 -0.7342 -0.1112
  353MOL    C7543019   7.605   4.143   0.703 -0.3454 -0.3571  0.4968
  353MOL    H7643020   7.608   3.993   0.853  0.3080 -0.6449  0.8197
  353MOL    H7743021   7.491   4.118   0.888 -0.4189 -2.6815  0.1140
  353MOL    H7843022   7.586   4.249   0.688 -0.3511 -0.5057 -0.5534
  353MOL    H7943023   0.015   4.114   0.678 -0.0793  0.3248  0.7995
  353MOL    C8043024   7.519   4.057   0.607  0.3243 -0.3971  0.4399
  353MOL    C8143025   7.506   4.120   0.468  0.3477 -0.2814  0.2782
  353MOL    H8243026   7.558   3.956   0.596 -2.6984 -1.5772 -0.1631
  353MOL    H8343027   7.421   4.060   0.657  1.1583  1.2931  2.0609
  353MOL    H8443028   7.474   4.224   0.473 -0.8614 -0.5431 -1.7361
  353MOL    H8543029   7.605   4.136   0.426  0.0754 -1.6852 -0.9518
  353MOL    C8643030   7.412   4.048   0.376  0.7763  0.5676 -0.2343
  353MOL    C8743031   7.438   4.091   0.232 -0.8048 -0.8329 -0.4892
  353MOL    H8843032   7.423   3.941   0.391 -0.9788 -0.1437 -3.5406
  353MOL    H8943033   7.307   4.060   0.406  0.6791 -0.6374 -0.0445
  353MOL    H9043034   7.429   4.199   0.220 -0.5562 -0.6822  0.6030
  353MOL    H9143035   7.544   4.067   0.223 -0.3447  0.5534  0.9851
  353MOL    C9243036   7.345   4.030   0.124  0.2902 -0.3036 -0.5068
  353MOL    C9343037   7.206   4.093   0.129 -0.6565 -0.8619  0.5053
  353MOL    H9443038   7.398   4.045   0.030  1.5944  0.2188  0.3055
  353MOL    H9543039   7.334   3.923   0.143 -1.0920 -0.2704 -1.0495
  353MOL    H9643040   7.169   4.111   0.231 -1.4655 -0.3758  0.1322
  353MOL    H9743041   7.209   4.199   0.101  1.2686 -1.0912 -0.2229
  353MOL    C9843042   7.105   4.019   0.049  0.2129 -0.0933  0.2234
  353MOL    C9943043   6.979   4.104   0.033  0.1806  0.8137 -0.3079
  353MOL   H10043044   7.132   3.996   7.638  1.6301 -1.1683  0.8129
  353MOL   H10143045   7.091   3.919   0.091  0.5967 -1.1889 -2.1758
  353MOL   H10243046   6.954   4.151   0.128 -1.1268 -0.8661  0.1973
  353MOL   H10343047   6.987   4.176   7.643 -0.1708  0.5678 -0.5584
  353MOL   C10443048   6.854   4.015   0.009 -0.1203 -0.4108 -0.3429
  353MOL   C10543049   6.824   3.934   0.138  0.3919 -0.1257  0.3939
  353MOL   H10643050   6.769   4.071   7.661  0.7980 -0.6383 -2.6865
  353MOL   H10743051   6.873   3.945   7.619  0.9114 -0.1800 -0.3085
  353MOL   H10843052   6.904   3.878   0.186 -0.7982  0.6830  3.4458
  353MOL   H10943053   6.802   4.011   0.212 -1.0618  2.3546 -2.4846
  353MOL   C11043054   6.700   3.840   0.125  0.0532  0.0904  0.6057
  353MOL   C11143055   6.731   3.701   0.064  0.0325 -0.3918 -0.5375
  353MOL   H11243056   6.665   3.834   0.228  0.2279 -0.5021  0.6277
  353MOL   H11343057   6.627   3.900   0.071 -1.0502 -1.2580  0.5828
  353MOL   H11443058   6.753   3.725   7.652 -2.1770  1.6955 -0.5664
  353MOL   H11543059   6.819   3.657   0.112  1.3474  2.5946 -0.0781
  353MOL   C11643060   6.613   3.607   0.073 -0.5766 -0.0245 -0.3479
  353MOL   C11743061   6.646   3.471   7.691  0.4589  0.5044 -0.0525
  353MOL   H11843062   6.581   3.601   0.177 -0.8461 -0.9580 -0.4771
  353MOL   H11943063   6.524   3.644   0.024 -0.3883  3.3651  1.7392
  353MOL   H12043064   6.638   3.497   7.586 -0.7283  0.5746  0.0394
  353MOL   H12143065   6.751   3.444   0.012  0.5824  1.3074  0.6871
  353MOL   H12243066   6.580   3.386   0.017 -1.6130  1.9895 -0.3468
  354MOL     C143067   1.607   0.369   3.916 -0.6930  0.0372  0.6620
  354MOL     C243068   1.466   0.416   3.944  0.2154  0.7411 -0.9358
  354MOL     H343069   1.594   0.348   3.810 -0.9204  0.3175  0.6335
  354MOL     H443070   1.636   0.278   3.968 -2.1588 -0.9233 -0.1722
  354MOL     H543071   1.434   0.504   3.888  0.1239  1.1445 -0.2601
  354MOL     H643072   1.402   0.334   3.909  1.5294 -1.6699  2.0875
  354MOL     H743073   1.674   0.455   3.926 -0.6955  0.0629  0.4584
  354MOL     C843074   1.448   0.433   4.100  0.1711 -0.2337  0.4339
  354MOL     C943075   1.307   0.456   4.158  0.2026 -0.3314  0.6001
  354MOL    H1043076   1.476   0.337   4.143  0.9162 -0.8409 -1.3559
  354MOL    H1143077   1.521   0.506   4.137  3.2055 -2.8113 -0.1972
  354MOL    H1243078   1.271   0.556   4.135 -0.3108 -0.4814  0.7648
  354MOL    H1343079   1.231   0.392   4.114  0.6561 -2.1498  2.3790
  354MOL    C1443080   1.297   0.423   4.309 -0.3655  0.4184  0.5196
  354MOL    C1543081   1.158   0.453   4.371  0.0233  0.5977 -0.5856
  354MOL    H1643082   1.335   0.327   4.343 -0.9257 -0.5348 -1.4825
  354MOL    H1743083   1.378   0.477   4.359  0.3259 -0.7059  0.6224
  354MOL    H1843084   1.127   0.556   4.358  0.5001  0.7883 -0.2238
  354MOL    H1943085   1.080   0.397   4.320 -1.5999  2.6491 -0.4094
  354MOL    C2043086   1.156   0.425   4.525 -0.4119 -0.6187  0.8491
  354MOL    C2143087   1.017   0.449   4.590 -0.2122 -0.8006  0.1551
  354MOL    H2243088   1.184   0.319   4.532 -0.5739 -0.9747 -2.7872
  354MOL    H2343089   1.238   0.476   4.575 -0.0487 -0.7693  0.4144
  354MOL    H2443090   0.980   0.551   4.575 -1.5627 -1.2218  0.5177
  354MOL    H2543091   0.944   0.387   4.537  0.7099 -0.1876 -1.8818
  354MOL    C2643092   1.021   0.441   4.742  0.1170  0.3441  0.5454
  354MOL    C2743093   0.901   0.512   4.802  0.3520 -0.7388 -0.6965
  354MOL    H2843094   1.003   0.334   4.755 -0.8828  0.5760  1.0940
  354MOL    H2943095   1.116   0.463   4.792 -0.6365  0.3453  2.0034
  354MOL    H3043096   0.897   0.615   4.768  2.2451 -0.3084  0.3068
  354MOL    H3143097   0.804   0.476   4.768 -0.6671 -0.7316  2.0304
  354MOL    C3243098   0.886   0.501   4.959  0.5862  0.5982  0.3068
  354MOL    C3343099   0.760   0.580   5.002  0.4248  0.5003 -0.4341
  354MOL    H3443100   0.893   0.398   4.995 -0.7732  0.1407 -0.6889
  354MOL    H3543101   0.973   0.552   5.000  1.7227 -1.4058  0.4880
  354MOL    H3643102   0.773   0.687   4.984 -1.6327  0.5140 -1.9477
  354MOL    H3743103   0.670   0.555   4.946 -1.2355 -0.5756  2.5715
  354MOL    C3843104   0.730   0.560   5.152  0.0365 -0.6577 -0.1913
  354MOL    C3943105   0.602   0.626   5.185  0.4709 -0.1470  0.0742
  354MOL    H4043106   0.735   0.454   5.175  0.0633 -0.4475  0.8253
  354MOL    H4143107   0.814   0.584   5.217 -1.2295 -1.4778  1.8155
  354MOL    H4243108   0.622   0.728   5.152  0.8249 -0.0530  0.5812
  354MOL    H4343109   0.519   0.591   5.124 -0.5909  0.0677  1.3790
  354MOL    C4443110   0.550   0.615   5.336  0.3058 -0.0127 -0.3550
  354MOL    C4543111   0.400   0.647   5.349  0.2629 -0.5401  0.5992
  354MOL    H4643112   0.563   0.514   5.376  0.6017 -0.5676 -1.8065
  354MOL    H4743113   0.613   0.680   5.395  0.4710  0.8603 -1.4875
  354MOL    H4843114   0.383   0.735   5.287  0.8565 -0.7828  0.0796
  354MOL    H4943115   0.347   0.564   5.303  1.7674 -1.8716  1.1903
  354MOL    C5043116   0.346   0.658   5.493  0.6715 -0.7991 -0.0949
  354MOL    C5143117   0.196   0.680   5.501 -0.0680 -0.0483 -0.0913
  354MOL    H5243118   0.373   0.577   5.561 -1.5144  0.3389  2.1924
  354MOL    H5343119   0.405   0.743   5.529 -1.1810 -0.6375  2.7316
  354MOL    H5443120   0.168   0.726   5.406  2.8777 -1.4117 -1.6657
  354MOL    H5543121   0.148   0.582   5.502  1.1180 -0.6517 -1.9089
  354MOL    C5643122   0.162   0.770   5.621  0.1373 -0.3622  0.1207
  354MOL    C5743123   0.016   0.758   5.674 -0.0851 -0.0227 -0.5721
  354MOL    H5843124   0.233   0.745   5.701  1.5866 -0.8430 -1.2774
  354MOL    H5943125   0.200   0.870   5.600  1.1064 -0.4808  1.2409
  354MOL    H6043126   7.647   0.821   5.609  0.9836  1.1134 -0.5034
  354MOL    H6143127   7.675   0.654   5.669 -0.6470  0.1961 -1.6405
  354MOL    C6243128   7.685   0.807   5.819 -0.2065  0.1844 -0.3635
  354MOL    C6343129   7.543   0.789   5.869  0.1656  0.5688 -0.3966
  354MOL    H6443130   0.052   0.746   5.887 -0.6272  0.7469  0.5195
  354MOL    H6543131   0.035   0.906   5.839  2.9056 -1.0160 -0.7778
  354MOL    H6643132   7.484   0.839   5.792  2.0381  0.1586 -2.1518
  354MOL    H6743133   7.511   0.685   5.858  0.4999  0.7618 -3.5184
  354MOL    C6843134   7.516   0.850   6.006 -0.5459  0.0527 -0.0438
  354MOL    C6943135   7.366   0.832   6.051  0.6180  0.6346 -0.2274
  354MOL    H7043136   7.588   0.787   6.058 -1.5316  0.4069  1.8077
  354MOL    H7143137   7.554   0.951   6.016  1.6829 -0.7670 -0.0552
  354MOL    H7243138   7.297   0.880   5.982  0.7954 -0.2592 -1.0483
  354MOL    H7343139   7.340   0.726   6.055  1.2313  0.4578 -0.7697
  354MOL    C7443140   7.337   0.874   6.192 -1.1002 -0.5424  0.0920
  354MOL    C7543141   7.184   0.862   6.234 -0.6494  0.3226  0.1697
  354MOL    H7643142   7.408   0.826   6.259  1.1828  0.7699 -1.3368
  354MOL    H7743143   7.370   0.977   6.205  1.4013 -1.1580 -1.0741
  354MOL    H7843144   7.127   0.925   6.166 -1.1337 -0.4913 -0.1841
  354MOL    H7943145   7.155   0.758   6.220  1.6183 -0.5211  1.4269
  354MOL    C8043146   7.150   0.880   6.379 -0.3378 -0.4761  0.1734
  354MOL    C8143147   6.998   0.874   6.403 -0.2676  0.8532 -0.3204
  354MOL    H8243148   7.190   0.803   6.445 -3.7610 -0.8007  1.9759
  354MOL    H8343149   7.196   0.974   6.411  0.8890 -1.3367  0.9827
  354MOL    H8443150   6.957   0.968   6.365 -1.4776  0.6848  0.5176
  354MOL    H8543151   6.948   0.810   6.330  0.4961  0.2122 -0.2804
  354MOL    C8643152   6.955   0.829   6.539 -0.6490 -0.5661  0.8325
  354MOL    C8743153   6.971   0.948   6.645  0.2975  0.4676 -0.0656
  354MOL    H8843154   6.849   0.802   6.534 -1.2297  1.9049 -1.1159
  354MOL    H8943155   7.008   0.737   6.564 -0.0128 -0.7456 -1.0463
  354MOL    H9043156   7.072   0.987   6.633  0.5857 -0.8897 -2.1946
  354MOL    H9143157   6.897   1.025   6.620  1.9883  2.0646 -0.2406
  354MOL    C9243158   6.944   0.889   6.781 -0.6727 -0.0713 -0.4094
  354MOL    C9343159   6.973   0.986   6.894 -0.1997  0.4526 -0.0257
  354MOL    H9443160   6.839   0.861   6.785 -1.0246  1.4239  1.2975
  354MOL    H9543161   6.994   0.793   6.796 -0.4018 -0.5455 -3.8376
  354MOL    H9643162   7.081   1.000   6.907 -0.7175  1.5332  3.9187
  354MOL    H9743163   6.934   1.084   6.868 -1.1252  0.0380 -0.2115
  354MOL    C9843164   6.919   0.952   7.031 -0.4657 -0.0483 -0.1658
  354MOL    C9943165   6.972   1.043   7.141 -0.0569  0.7237 -0.5076
  354MOL   H10043166   6.810   0.954   7.029 -0.4391  1.6220 -1.0028
  354MOL   H10143167   6.949   0.851   7.057  2.0500  1.0586  1.3950
  354MOL   H10243168   7.081   1.037   7.140 -0.1473 -1.1568 -0.8898
  354MOL   H10343169   6.948   1.143   7.106 -0.2176  1.1625  0.8228
  354MOL   C10443170   6.923   1.011   7.279  0.6708 -0.3353  0.2638
  354MOL   C10543171   6.980   1.117   7.370 -0.3664  0.2100 -0.4353
  354MOL   H10643172   6.814   1.016   7.276  0.6477 -1.0379 -0.2362
  354MOL   H10743173   6.962   0.912   7.303  0.2370 -1.0973 -2.0274
  354MOL   H10843174   7.089   1.116   7.364 -0.2967  1.1269  0.5207
  354MOL   H10943175   6.945   1.219   7.355 -0.6018  0.1375 -0.3808
  354MOL   C11043176   6.947   1.099   7.525 -0.1058  0.2671  0.1811
  354MOL   C11143177   7.049   1.161   7.622 -0.2579  0.3482 -0.2130
  354MOL   H11243178   6.840   1.118   7.536 -0.4908 -1.2909 -0.5742
  354MOL   H11343179   6.947   0.991   7.544  1.0218 -0.1768 -2.1307
  354MOL   H11443180   7.113   1.077   7.648  1.0654  1.3003 -0.3001
  354MOL   H11543181   7.117   1.239   7.587  0.5264 -0.2101  0.0618
  354MOL   C11643182   6.986   1.233   0.056 -0.1434  0.2942  0.9677
  354MOL   C11743183   6.911   1.359   0.016  0.1357 -0.0710  0.1267
  354MOL   H11843184   6.929   1.168   0.122 -1.2437  1.7411  1.4764
  354MOL   H11943185   7.079   1.261   0.106  2.1834  1.3965 -3.7215
  354MOL   H12043186   6.958   1.408   7.622 -3.0432  0.4329 -1.3756
  354MOL   H12143187   6.806   1.349   7.681  0.0178  0.0031  0.5521
  354MOL   H12243188   6.913   1.431   0.097  0.1118 -0.2222  0.2615
  355MOL     C143189   3.386   4.343   4.283 -0.1741  0.0608  0.2930
  355MOL     C243190   3.502   4.241   4.320  0.1922 -0.4420 -0.1567
  355MOL     H343191   3.299   4.286   4.251 -0.6930  0.0499  1.6992
  355MOL     H443192   3.426   4.409   4.205 -0.3649 -0.2503 -0.0646
  355MOL     H543193   3.518   4.175   4.235  1.3750 -0.1109 -0.1974
  355MOL     H643194   3.593   4.301   4.320  0.1082 -0.2888 -1.6985
  355MOL     H743195   3.358   4.407   4.367  2.8692  1.9460 -0.0149
  355MOL     C843196   3.486   4.154   4.449 -0.4575 -0.1350  0.7323
  355MOL     C943197   3.493   4.247   4.573 -0.3129 -0.0706  0.6014
  355MOL    H1043198   3.395   4.095   4.444  0.2984 -1.2745  0.2508
  355MOL    H1143199   3.570   4.085   4.451 -0.2598  0.1295  1.9513
  355MOL    H1243200   3.586   4.304   4.565 -0.2990  0.4545  3.6601
  355MOL    H1343201   3.413   4.321   4.562 -1.0930 -1.3176 -2.3182
  355MOL    C1443202   3.477   4.175   4.701  0.1265 -0.1972 -0.5405
  355MOL    C1543203   3.477   4.264   4.822  0.0614 -0.3067 -0.2952
  355MOL    H1643204   3.383   4.121   4.694 -0.2617  0.5614 -1.2860
  355MOL    H1743205   3.549   4.093   4.709 -1.0215 -1.0341  1.4185
  355MOL    H1843206   3.559   4.335   4.829  1.1550 -1.3868 -1.8795
  355MOL    H1943207   3.396   4.335   4.805 -0.6171 -0.8554  0.5615
  355MOL    C2043208   3.447   4.201   4.965 -0.1307  0.2409  0.6376
  355MOL    C2143209   3.436   4.316   5.068 -0.1676 -0.4095 -0.1829
  355MOL    H2243210   3.352   4.148   4.971 -0.3490  0.3730 -1.5165
  355MOL    H2343211   3.535   4.138   4.983  0.7448  0.7165 -1.8100
  355MOL    H2443212   3.524   4.377   5.051  0.1022 -0.7988 -0.1783
  355MOL    H2543213   3.342   4.372   5.072 -1.4072 -2.5305  1.1044
  355MOL    C2643214   3.452   4.253   5.206  0.1685 -0.4642  0.3890
  355MOL    C2743215   3.481   4.364   5.311 -0.0414  0.3010  0.0625
  355MOL    H2843216   3.365   4.194   5.234  0.7542 -0.6815  1.7821
  355MOL    H2943217   3.530   4.177   5.202  2.1443  1.5689 -0.8505
  355MOL    H3043218   3.575   4.417   5.293  0.2682  0.0572  0.9488
  355MOL    H3143219   3.417   4.452   5.309  0.7100  0.8500 -0.2655
  355MOL    C3243220   3.476   4.316   5.463 -0.1705  0.1271 -0.0121
  355MOL    C3343221   3.505   4.432   5.563  0.8107 -0.3633 -0.0592
  355MOL    H3443222   3.374   4.290   5.487  0.0497  0.1648  0.9688
  355MOL    H3543223   3.543   4.231   5.474 -0.5063 -0.2398 -0.8186
  355MOL    H3643224   3.597   4.486   5.542  1.9425 -2.2712 -0.1097
  355MOL    H3743225   3.417   4.496   5.571  0.4579 -0.9197  0.6074
  355MOL    C3843226   3.523   4.374   5.704  0.1969 -0.0448 -0.0781
  355MOL    C3943227   3.545   4.496   5.802 -0.0254  0.8598  0.4107
  355MOL    H4043228   3.434   4.318   5.734 -2.0863  2.3420 -2.1343
  355MOL    H4143229   3.614   4.316   5.713  0.9238  1.1580  0.4275
  355MOL    H4243230   3.636   4.551   5.782 -1.6410  3.3618 -0.2333
  355MOL    H4343231   3.457   4.560   5.790 -1.6756 -1.1089  1.5853
  355MOL    C4443232   3.540   4.447   5.944  0.7253  0.2097  0.2259
  355MOL    C4543233   3.571   4.559   6.046  0.6680 -0.0537 -0.5302
  355MOL    H4643234   3.445   4.400   5.970 -0.2503  1.8678 -0.2441
  355MOL    H4743235   3.620   4.373   5.953  0.4033 -0.0744  0.7360
  355MOL    H4843236   3.668   4.600   6.017  1.1912 -2.0916 -1.7832
  355MOL    H4943237   3.500   4.641   6.041  1.5565  0.7649  0.0720
  355MOL    C5043238   3.588   4.498   6.189 -0.2287  0.0238  0.2624
  355MOL    C5143239   3.610   4.609   6.293  0.2929 -0.0689 -0.2996
  355MOL    H5243240   3.500   4.437   6.207 -0.5577 -0.3239 -2.2941
  355MOL    H5343241   3.667   4.424   6.198 -0.2058  0.1579  1.1367
  355MOL    H5443242   3.685   4.681   6.260  1.2832 -1.8529 -2.0098
  355MOL    H5543243   3.515   4.660   6.311  0.1577 -0.0439 -1.0298
  355MOL    C5643244   3.663   4.545   6.428  0.3698 -0.0245  0.0678
  355MOL    C5743245   3.719   4.646   6.527  0.3376 -0.2942  0.2952
  355MOL    H5843246   3.588   4.482   6.477  0.8122 -0.7182 -0.1341
  355MOL    H5943247   3.743   4.474   6.404 -0.1237 -1.1699  1.6967
  355MOL    H6043248   3.794   4.710   6.481 -0.6567 -1.0031 -2.4092
  355MOL    H6143249   3.639   4.715   6.554 -0.3417 -0.1683 -1.9020
  355MOL    C6243250   3.761   4.585   6.664  0.0108 -0.6549  0.0525
  355MOL    C6343251   3.806   4.684   6.768  0.6394  0.2570  1.3506
  355MOL    H6443252   3.689   4.512   6.703  0.1977 -1.2392 -0.6696
  355MOL    H6543253   3.844   4.518   6.640  1.2614  1.0938 -0.6104
  355MOL    H6643254   3.873   4.641   6.843  1.0829  0.5363  1.1168
  355MOL    H6743255   3.856   4.764   6.713  1.9303 -1.5693 -0.2009
  355MOL    C6843256   3.682   4.740   6.844 -0.3549  0.3550 -0.3092
  355MOL    C6943257   3.721   4.836   6.954  0.4553  0.8412 -1.2106
  355MOL    H7043258   3.614   4.795   6.779 -0.4642 -0.7968 -1.1805
  355MOL    H7143259   3.628   4.654   6.882  1.2509 -0.1552  0.8834
  355MOL    H7243260   3.755   4.765   7.029 -3.4970 -0.5149 -0.5585
  355MOL    H7343261   3.792   4.903   6.907 -1.1386  1.8477 -2.2409
  355MOL    C7443262   3.601   4.904   7.018  0.2331  0.3065  0.2798
  355MOL    C7543263   3.539   5.021   6.929  0.5427 -0.4756 -0.1929
  355MOL    H7643264   3.524   4.828   7.033  0.5932  0.1604  1.4466
  355MOL    H7743265   3.634   4.956   7.108 -0.3058 -0.5828  1.0027
  355MOL    H7843266   3.611   5.099   6.904 -0.1524  0.7506  1.5632
  355MOL    H7943267   3.502   4.975   6.837 -0.1147 -0.1027 -0.1168
  355MOL    C8043268   3.421   5.093   7.001 -0.1506  0.4674 -0.0098
  355MOL    C8143269   3.369   5.200   6.899  0.2070 -0.3844  0.4056
  355MOL    H8243270   3.341   5.027   7.034 -0.1913  1.5361  2.1187
  355MOL    H8343271   3.465   5.136   7.091  1.6253  0.8832 -1.0442
  355MOL    H8443272   3.450   5.270   6.879 -0.0909 -0.2253 -0.2585
  355MOL    H8543273   3.362   5.152   6.801  0.2530 -1.5624  0.9759
  355MOL    C8643274   3.241   5.273   6.929 -0.7379 -0.2885  0.5701
  355MOL    C8743275   3.209   5.385   6.831 -0.7073  0.4530  0.0813
  355MOL    H8843276   3.157   5.205   6.925 -1.4397  0.6689 -1.7727
  355MOL    H8943277   3.240   5.317   7.029 -0.6312  0.3927  0.2734
  355MOL    H9043278   3.299   5.444   6.816 -0.5308 -0.3503 -2.1180
  355MOL    H9143279   3.195   5.356   6.727  0.5270 -0.5129  0.1781
  355MOL    C9243280   3.092   5.466   6.872 -0.0870  0.0346  0.7065
  355MOL    C9343281   2.948   5.424   6.831  0.2369 -0.2234  0.5446
  355MOL    H9443282   3.102   5.493   6.977 -0.1122  1.5368  0.3480
  355MOL    H9543283   3.101   5.560   6.816 -1.4582 -1.4049 -2.0203
  355MOL    H9643284   2.946   5.416   6.722 -1.2729  1.9476  0.3864
  355MOL    H9743285   2.922   5.322   6.860 -0.8348  0.5821  2.4759
  355MOL    C9843286   2.837   5.521   6.884 -0.3501  0.3775 -0.4907
  355MOL    C9943287   2.807   5.527   7.034  0.0833 -0.5424  0.5960
  355MOL   H10043288   2.863   5.626   6.871 -0.7459  0.8201  2.0514
  355MOL   H10143289   2.753   5.493   6.820 -0.0995 -0.6761 -0.3760
  355MOL   H10243290   2.886   5.574   7.093  0.8468 -2.0901  0.8433
  355MOL   H10343291   2.719   5.588   7.057  0.7767  0.4141  0.7600
  355MOL   C10443292   2.778   5.385   7.094 -0.8500 -0.0859 -0.1098
  355MOL   C10543293   2.707   5.388   7.233 -0.2106 -0.9522  0.4143
  355MOL   H10643294   2.709   5.340   7.022  0.3031 -1.0796 -0.6248
  355MOL   H10743295   2.870   5.326   7.093 -0.2435  0.8287  1.2847
  355MOL   H10843296   2.766   5.455   7.295 -0.5085 -0.7868  0.5203
  355MOL   H10943297   2.608   5.432   7.220  0.6579  0.4985 -1.5108
  355MOL   C11043298   2.713   5.250   7.306 -0.2014  0.5461 -0.4565
  355MOL   C11143299   2.599   5.217   7.414  0.0756  0.2823  0.6127
  355MOL   H11243300   2.720   5.171   7.231  0.5734 -0.4362  0.6338
  355MOL   H11343301   2.809   5.244   7.358 -0.6771  1.4054  0.5376
  355MOL   H11443302   2.582   5.306   7.474 -0.0377  0.5813  0.1408
  355MOL   H11543303   2.505   5.201   7.361  1.5645 -0.3706 -1.9917
  355MOL   C11643304   2.625   5.092   7.497  0.0750 -0.9327  0.0974
  355MOL   C11743305   2.505   5.071   7.589  0.6857  1.0225  0.7473
  355MOL   H11843306   2.642   5.015   7.422  0.1549 -1.6186  0.8093
  355MOL   H11943307   2.716   5.098   7.557 -0.0741 -0.0007  0.2416
  355MOL   H12043308   2.411   5.109   7.547  0.3012 -1.4413 -0.7474
  355MOL   H12143309   2.480   4.970   7.622  0.2819  1.5265  2.0048
  355MOL   H12243310   2.513   5.142   7.671 -2.7587 -0.1895  2.2184
  356MOL     C143311   1.507   6.461   0.469 -0.1945 -0.4000  0.1012
  356MOL     C243312   1.638   6.546   0.477 -0.2712  0.1354  0.0776
  356MOL     H343313   1.498   6.399   0.558  0.9584  3.7324  3.2179
  356MOL     H443314   1.511   6.404   0.376 -0.5828 -0.4728  0.1306
  356MOL     H543315   1.658   6.605   0.567 -0.6218  2.0227 -1.0352
  356MOL     H643316   1.732   6.493   0.461 -0.7297 -0.4568 -0.7161
  356MOL     H743317   1.423   6.529   0.461 -0.2929 -0.3658  1.2913
  356MOL     C843318   1.638   6.659   0.363 -0.5344 -0.1212  0.5800
  356MOL     C943319   1.761   6.747   0.375 -0.4356  0.1773  0.3301
  356MOL    H1043320   1.645   6.615   0.263 -0.5659  2.7344 -0.7276
  356MOL    H1143321   1.545   6.716   0.370 -0.9913 -0.9985  1.6993
  356MOL    H1243322   1.760   6.794   0.474 -2.0348  1.6360 -0.3600
  356MOL    H1343323   1.854   6.690   0.366 -0.2093  0.5878  0.0398
  356MOL    C1443324   1.750   6.857   0.272  0.3792 -0.0496  0.3110
  356MOL    C1543325   1.864   6.955   0.261  0.5223 -0.6315  0.3411
  356MOL    H1643326   1.724   6.821   0.173  1.3272 -0.4177  0.1884
  356MOL    H1743327   1.657   6.906   0.300  0.2560  0.6071 -1.1731
  356MOL    H1843328   1.886   7.003   0.356 -0.0884  1.2478 -0.4438
  356MOL    H1943329   1.958   6.903   0.241  0.2758 -0.2813 -1.8487
  356MOL    C2043330   1.837   7.064   0.157 -0.3323 -0.3426  0.4119
  356MOL    C2143331   1.949   7.178   0.144  0.5572 -0.6933 -0.2536
  356MOL    H2243332   1.831   7.025   0.056 -0.1385  1.3475 -0.2741
  356MOL    H2343333   1.747   7.125   0.173 -0.8791 -0.9081 -0.4757
  356MOL    H2443334   1.972   7.196   0.249 -2.2708 -0.4871  0.3657
  356MOL    H2543335   2.045   7.149   0.102 -0.7985 -1.4331 -2.9157
  356MOL    C2643336   1.903   7.315   0.088  0.2405  0.0925 -1.0740
  356MOL    C2743337   1.859   7.310   7.632  0.2508 -0.4163  0.3622
  356MOL    H2843338   1.820   7.351   0.149  1.5440  1.0298  0.1667
  356MOL    H2943339   1.962   7.398   0.125  0.1457 -1.0952  1.8420
  356MOL    H3043340   1.946   7.336   7.570  0.6726 -0.5390  0.8998
  356MOL    H3143341   1.839   7.206   7.609 -1.5319 -0.0470  0.1767
  356MOL    C3243342   1.735   7.408   7.605 -0.5246 -0.4149  0.2269
  356MOL    C3343343   1.725   7.447   7.459 -0.0990  0.4400 -0.5193
  356MOL    H3443344   1.640   7.365   7.635 -0.3729 -0.4322  0.6861
  356MOL    H3543345   1.752   7.501   7.659  1.2810 -2.2947  3.0186
  356MOL    H3643346   1.679   7.546   7.449  0.8793  0.8522 -1.0921
  356MOL    H3743347   1.823   7.449   7.411 -0.2152 -2.9840 -1.0062
  356MOL    C3843348   1.649   7.343   7.370  0.5835  0.0433  0.0530
  356MOL    C3943349   1.649   7.370   7.217  0.5878 -0.2486 -1.2642
  356MOL    H4043350   1.689   7.246   7.396  0.7288  0.4501  1.3848
  356MOL    H4143351   1.547   7.334   7.408  1.6843 -1.6162  2.7788
  356MOL    H4243352   1.626   7.475   7.199 -0.2472 -0.2272 -0.1298
  356MOL    H4343353   1.745   7.346   7.170 -0.1174 -3.5152 -1.1525
  356MOL    C4443354   1.527   7.291   7.151 -0.1709  0.0686  0.3423
  356MOL    C4543355   1.537   7.302   6.993  0.1199  0.2546 -0.1338
  356MOL    H4643356   1.532   7.186   7.179  1.2060 -0.0077 -0.1762
  356MOL    H4743357   1.432   7.331   7.187 -0.5990 -0.3389 -0.3301
  356MOL    H4843358   1.494   7.398   6.967 -2.1436 -1.5606 -3.4169
  356MOL    H4943359   1.640   7.302   6.955 -0.5446 -1.3576 -2.0346
  356MOL    C5043360   1.461   7.191   6.913 -0.6515 -0.1382  0.2534
  356MOL    C5143361   1.326   7.145   6.959  0.0249  0.2546  0.0180
  356MOL    H5243362   1.457   7.222   6.809  1.1149 -0.0381  0.1886
  356MOL    H5343363   1.519   7.099   6.922  0.8495  0.8665  1.2294
  356MOL    H5443364   1.284   7.076   6.886  2.2054 -2.1442  0.9822
  356MOL    H5543365   1.340   7.090   7.052 -1.6200 -1.0805 -0.4980
  356MOL    C5643366   1.224   7.261   6.983 -0.6247  0.3493  0.2742
  356MOL    C5743367   1.120   7.211   7.087 -0.2123 -0.4234  0.8835
  356MOL    H5843368   1.267   7.352   7.023  0.4909 -0.1050  0.1242
  356MOL    H5943369   1.164   7.267   6.892 -1.0900  0.5348  0.5884
  356MOL    H6043370   1.063   7.123   7.057 -1.6008  0.3838  1.1091
  356MOL    H6143371   1.166   7.179   7.180 -3.6751 -2.2639  2.0202
  356MOL    C6243372   1.013   7.308   7.138  0.7036 -0.1282  0.0746
  356MOL    C6343373   0.911   7.257   7.241  0.6274 -0.0777  0.2199
  356MOL    H6443374   1.065   7.392   7.184 -1.0476  1.0833 -0.1232
  356MOL    H6543375   0.954   7.347   7.055 -0.3863  0.3134  1.0536
  356MOL    H6643376   0.837   7.333   7.268 -0.9387 -1.1302 -1.0227
  356MOL    H6743377   0.856   7.168   7.208  0.0281  0.0231  0.9409
  356MOL    C6843378   0.956   7.217   7.376 -0.3332  0.1320  0.0942
  356MOL    C6943379   0.884   7.096   7.439  0.2913 -0.6213  0.0803
  356MOL    H7043380   1.063   7.194   7.370  0.0637  2.2976 -2.4055
  356MOL    H7143381   0.958   7.306   7.439  0.7364 -0.8476  1.4716
  356MOL    H7243382   0.780   7.128   7.439  0.3892 -0.3002  0.7598
  356MOL    H7343383   0.887   7.004   7.379 -0.8760 -0.9543  0.5092
  356MOL    C7443384   0.934   7.056   7.578  0.2220 -0.3482  0.8511
  356MOL    C7543385   0.843   6.967   7.660  0.0682  0.8326 -0.1324
  356MOL    H7643386   1.033   7.013   7.567  0.5344  0.3883  0.7936
  356MOL    H7743387   0.953   7.147   7.635  0.3650 -0.6496  1.2927
  356MOL    H7843388   0.756   7.029   7.682 -0.6382 -0.2897  0.2818
  356MOL    H7943389   0.807   6.878   7.608  0.5811  1.1623 -1.0683
  356MOL    C8043390   0.907   6.909   0.089 -0.2105 -0.5217 -0.0401
  356MOL    C8143391   0.810   6.847   0.187  0.2940 -0.3039  0.0335
  356MOL    H8243392   0.972   6.826   0.059  0.7548 -2.0919  5.7545
  356MOL    H8343393   0.978   6.979   0.135 -1.3217  1.9325 -1.9713
  356MOL    H8443394   0.876   6.799   0.260 -0.7490 -2.3046 -0.3303
  356MOL    H8543395   0.743   6.924   0.226 -0.7229 -0.9499 -0.4246
  356MOL    C8643396   0.716   6.741   0.129  0.0855 -0.6133 -0.4022
  356MOL    C8743397   0.629   6.674   0.237 -0.6195  0.2643 -0.4124
  356MOL    H8843398   0.659   6.800   0.058 -0.1398  0.6460  0.8056
  356MOL    H8943399   0.775   6.664   0.078  0.6103 -0.8926  0.6089
  356MOL    H9043400   0.681   6.599   0.297 -1.9002 -0.4598 -0.1880
  356MOL    H9143401   0.603   6.763   0.293 -1.1152  1.0720 -1.8809
  356MOL    C9243402   0.498   6.598   0.190  0.0429  0.0687  0.3672
  356MOL    C9343403   0.429   6.556   0.316 -0.4935  0.5802  0.2098
  356MOL    H9443404   0.432   6.661   0.129  0.0150 -1.9142 -1.6900
  356MOL    H9543405   0.531   6.515   0.128  0.4257 -0.3872  1.1841
  356MOL    H9643406   0.480   6.467   0.355 -0.6059  0.1947 -0.5084
  356MOL    H9743407   0.428   6.643   0.381  1.0732  2.6608 -2.4964
  356MOL    C9843408   0.291   6.507   0.294 -0.3617  0.6678 -0.0782
  356MOL    C9943409   0.225   6.449   0.424  0.5705 -0.0052 -0.0920
  356MOL   H10043410   0.229   6.592   0.264 -0.5641  0.0084 -1.5708
  356MOL   H10143411   0.293   6.426   0.221 -0.4709 -1.0874  1.8301
  356MOL   H10243412   0.298   6.392   0.480 -1.0954 -0.2159  1.8994
  356MOL   H10343413   0.192   6.525   0.495 -0.9069 -1.4516  0.8014
  356MOL   C10443414   0.103   6.357   0.389  0.4500 -0.6999 -0.0952
  356MOL   C10543415   0.036   6.302   0.512 -0.8158  0.1238  0.4613
  356MOL   H10643416   0.031   6.419   0.335  0.7744 -1.4712 -1.4171
  356MOL   H10743417   0.128   6.272   0.327  0.5320 -1.0782  0.4551
  356MOL   H10843418   0.111   6.249   0.572 -1.3476 -1.6868 -0.4591
  356MOL   H10943419   0.002   6.383   0.576 -1.2909 -1.2586  2.0225
  356MOL   C11043420   7.599   6.217   0.491 -0.2853 -0.1985 -0.4560
  356MOL   C11143421   7.620   6.092   0.409  0.3306 -0.4790  0.2962
  356MOL   H11243422   7.557   6.193   0.589 -1.2191  1.3424 -0.4576
  356MOL   H11343423   7.530   6.282   0.438  1.9583  2.1890 -0.5529
  356MOL   H11443424   7.670   6.120   0.316  0.4264  2.5123  1.2034
  356MOL   H11543425   7.686   6.028   0.468  2.5609  0.7274 -0.7969
  356MOL   C11643426   7.488   6.023   0.366  0.0239  0.5879  0.5315
  356MOL   C11743427   7.505   5.871   0.315 -0.0843 -0.1411 -0.7681
  356MOL   H11843428   7.413   6.028   0.446  1.0290 -0.1660  1.5351
  356MOL   H11943429   7.445   6.078   0.282 -0.5066 -0.3830  0.1647
  356MOL   H12043430   7.512   5.813   0.407  0.6659  0.8979 -0.1484
  356MOL   H12143431   7.426   5.846   0.245  0.5916 -0.7380 -1.3275
  356MOL   H12243432   7.600   5.852   0.265  1.0791 -1.0933  1.6947
  357MOL     C143433   1.012   6.169   6.320  0.0859  0.1225 -0.3696
  357MOL     C243434   0.880   6.096   6.354  0.3775  0.1607 -0.6455
  357MOL     H343435   1.081   6.099   6.274  2.2118 -1.0268  4.3567
  357MOL     H443436   1.046   6.213   6.413 -0.3091  3.4684 -1.7305
  357MOL     H543437   0.902   6.008   6.415 -0.3143 -0.8113 -1.7858
  357MOL     H643438   0.820   6.162   6.417  2.7036 -0.1723  2.0082
  357MOL     H743439   0.997   6.252   6.251 -0.6280  0.9400  0.7560
  357MOL     C843440   0.781   6.066   6.234  0.3261 -0.3364  0.1265
  357MOL     C943441   0.839   6.001   6.110 -0.3215 -0.3088 -0.0456
  357MOL    H1043442   0.694   6.007   6.263 -0.5896  0.5866 -0.6912
  357MOL    H1143443   0.746   6.160   6.191 -1.3441 -0.5830  0.9167
  357MOL    H1243444   0.927   6.053   6.073 -1.0109  0.0317 -1.2553
  357MOL    H1343445   0.867   5.898   6.132 -2.3569 -0.8923 -0.0909
  357MOL    C1443446   0.728   5.999   5.991 -0.1502 -0.3337 -0.5665
  357MOL    C1543447   0.786   5.925   5.867 -0.5778  0.4024 -0.7188
  357MOL    H1643448   0.638   5.946   6.022  0.7116 -2.6579 -1.9213
  357MOL    H1743449   0.696   6.102   5.972  1.4419 -0.0145 -1.5802
  357MOL    H1843450   0.887   5.963   5.858 -0.4801  0.5464  0.9317
  357MOL    H1943451   0.791   5.819   5.892  1.7228  0.5331 -0.5582
  357MOL    C2043452   0.700   5.914   5.736  0.2659  0.3488 -0.2342
  357MOL    C2143453   0.780   5.848   5.625  0.1112 -0.2783 -0.6004
  357MOL    H2243454   0.605   5.866   5.758  0.3986  0.5469  0.7942
  357MOL    H2343455   0.689   6.020   5.713 -0.3706  0.3719  0.1753
  357MOL    H2443456   0.866   5.911   5.601 -0.4399  0.6835 -0.0714
  357MOL    H2543457   0.829   5.758   5.662 -1.9612  0.1043  3.3719
  357MOL    C2643458   0.695   5.805   5.505 -0.0811 -0.1731  0.9016
  357MOL    C2743459   0.750   5.696   5.407  0.2275  0.5228 -0.3555
  357MOL    H2843460   0.611   5.754   5.553 -0.5165 -1.4951 -1.2062
  357MOL    H2943461   0.660   5.890   5.447 -1.2723 -1.3220 -0.1129
  357MOL    H3043462   0.827   5.742   5.345  1.6527 -2.4322 -0.8712
  357MOL    H3143463   0.807   5.611   5.443  0.8851 -0.0524 -2.6871
  357MOL    C3243464   0.639   5.657   5.309 -0.6214 -0.0271 -0.0661
  357MOL    C3343465   0.675   5.553   5.206  0.3039 -0.4381 -0.1229
  357MOL    H3443466   0.544   5.633   5.356  0.0348 -0.7539  0.9243
  357MOL    H3543467   0.605   5.739   5.245 -2.3309 -0.1201  0.6962
  357MOL    H3643468   0.783   5.561   5.190  0.2320 -1.3643 -1.1120
  357MOL    H3743469   0.660   5.456   5.254  1.2055 -0.9716 -0.9099
  357MOL    C3843470   0.603   5.546   5.072 -0.2098  0.4307 -0.7217
  357MOL    C3943471   0.671   5.449   4.985  0.5272 -0.9426 -1.2741
  357MOL    H4043472   0.500   5.512   5.087 -0.0733  0.6913  0.8925
  357MOL    H4143473   0.604   5.641   5.020 -0.9777 -0.4759 -2.4434
  357MOL    H4243474   0.775   5.482   4.980 -0.1229  1.1175 -1.6444
  357MOL    H4343475   0.677   5.350   5.030 -0.8073 -1.8466 -2.9807
  357MOL    C4443476   0.615   5.441   4.837  0.2083  0.0612  0.3705
  357MOL    C4543477   0.653   5.320   4.758 -0.1012  0.2331  0.3691
  357MOL    H4643478   0.507   5.430   4.839  0.2070 -1.0302 -2.7173
  357MOL    H4743479   0.636   5.538   4.791  2.2179  0.2216  1.5469
  357MOL    H4843480   0.757   5.338   4.730  0.5275  1.5388  3.4101
  357MOL    H4943481   0.657   5.238   4.830  1.3233  0.6170  0.7412
  357MOL    C5043482   0.569   5.287   4.633  0.0260 -0.0369 -0.4294
  357MOL    C5143483   0.634   5.176   4.556  0.0259  0.1635  1.0078
  357MOL    H5243484   0.474   5.254   4.675  1.6307 -1.8454  1.8687
  357MOL    H5343485   0.540   5.373   4.571  0.4997  1.1798  1.0089
  357MOL    H5443486   0.715   5.215   4.495  0.3335  0.0770  1.3621
  357MOL    H5543487   0.663   5.103   4.632  0.4553 -2.0083 -1.1632
  357MOL    C5643488   0.544   5.112   4.447  0.1416 -0.3393  0.2503
  357MOL    C5743489   0.605   4.985   4.391  0.4039 -0.0646 -0.2003
  357MOL    H5843490   0.447   5.093   4.493 -0.1827  1.6737  0.4113
  357MOL    H5943491   0.523   5.182   4.366  0.3795 -0.0840  0.4088
  357MOL    H6043492   0.698   5.010   4.340  0.4340  1.7786  0.7014
  357MOL    H6143493   0.637   4.913   4.466  0.0981  0.5541  0.5278
  357MOL    C6243494   0.515   4.916   4.296 -0.3618 -0.0949  0.3786
  357MOL    C6343495   0.591   4.811   4.220 -0.6749  0.1678  0.8603
  357MOL    H6443496   0.434   4.863   4.346 -1.3329 -0.3811 -1.4574
  357MOL    H6543497   0.463   4.986   4.230  0.2691 -0.9069 -1.0193
  357MOL    H6643498   0.661   4.873   4.165 -1.9933  0.4579 -0.5096
  357MOL    H6743499   0.643   4.744   4.290 -0.8261 -2.0005 -1.0304
  357MOL    C6843500   0.500   4.732   4.126  0.6037  0.8497  0.5261
  357MOL    C6943501   0.571   4.653   4.018  0.2923  0.1803  0.9802
  357MOL    H7043502   0.443   4.657   4.181  0.2053  0.8408  0.1085
  357MOL    H7143503   0.434   4.800   4.071 -0.0056 -1.7578 -2.0568
  357MOL    H7243504   0.639   4.721   3.966  0.3570 -0.7797 -0.2270
  357MOL    H7343505   0.633   4.573   4.060 -1.0892 -0.4996  1.7730
  357MOL    C7443506   0.455   4.591   3.927  0.0560 -0.9631 -0.2873
  357MOL    C7543507   0.524   4.492   3.827  0.1302 -1.4906  0.2161
  357MOL    H7643508   0.388   4.529   3.987  0.4635 -0.0503  1.1432
  357MOL    H7743509   0.385   4.661   3.882  1.7221  2.3519  2.0514
  357MOL    H7843510   0.600   4.543   3.767  0.8240 -0.0954  2.2165
  357MOL    H7943511   0.574   4.416   3.886 -0.9321 -1.2492  1.4651
  357MOL    C8043512   0.426   4.425   3.732 -0.0210  0.1318  0.0821
  357MOL    C8143513   0.507   4.333   3.633 -0.2707 -0.2503  0.0598
  357MOL    H8243514   0.350   4.364   3.782 -1.2036  2.5310  1.2907
  357MOL    H8343515   0.378   4.503   3.673 -1.0786 -0.8481 -0.3718
  357MOL    H8443516   0.565   4.387   3.558  0.2887  1.6768  1.8470
  357MOL    H8543517   0.574   4.268   3.690 -0.0113 -0.6668 -0.7105
  357MOL    C8643518   0.421   4.235   3.551  0.0535 -0.2184  0.8198
  357MOL    C8743519   0.384   4.096   3.612 -0.0534 -0.0566  0.9999
  357MOL    H8843520   0.338   4.280   3.496  0.3413  0.8788  1.2598
  357MOL    H8943521   0.488   4.216   3.467 -0.5992  1.3301 -0.0712
  357MOL    H9043522   0.473   4.040   3.644  1.1769  0.1329 -1.9214
  357MOL    H9143523   0.307   4.108   3.688 -0.7990  1.1119  0.0690
  357MOL    C9243524   0.310   4.013   3.505 -0.0794  0.3774 -0.2701
  357MOL    C9343525   0.237   3.890   3.565 -0.2881 -0.3354  0.0063
  357MOL    H9443526   0.233   4.077   3.462  0.4694  1.7749  0.7579
  357MOL    H9543527   0.387   3.984   3.435 -1.2728 -0.2267 -1.3597
  357MOL    H9643528   0.193   3.934   3.655 -0.3581 -1.9126  0.7701
  357MOL    H9743529   0.177   3.844   3.487 -0.0743 -0.1355 -0.2732
  357MOL    C9843530   0.326   3.776   3.621 -0.2127  0.2175 -0.2635
  357MOL    C9943531   0.258   3.654   3.676  0.5768  0.2852  1.3387
  357MOL   H10043532   0.393   3.745   3.540 -2.1123  0.4853 -1.9880
  357MOL   H10143533   0.395   3.819   3.693  0.8181 -1.4389 -0.2416
  357MOL   H10243534   0.192   3.681   3.758  0.5991  1.5067  0.9651
  357MOL   H10343535   0.186   3.607   3.607  1.8772 -0.0267  0.1715
  357MOL   C10443536   0.362   3.550   3.725 -0.3521  0.4102  0.2797
  357MOL   C10543537   0.437   3.582   3.856 -0.2782  0.0352 -0.5108
  357MOL   H10643538   0.322   3.449   3.738 -0.6265  0.6037  0.9807
  357MOL   H10743539   0.434   3.527   3.647 -1.4190  3.6969 -1.7500
  357MOL   H10843540   0.507   3.662   3.833 -1.2484  1.2525  0.6848
  357MOL   H10943541   0.368   3.622   3.930 -0.0073 -0.4187 -0.0083
  357MOL   C11043542   0.514   3.465   3.915  0.1774 -0.0468 -0.8372
  357MOL   C11143543   0.622   3.509   4.007 -0.4488 -0.0121 -0.5445
  357MOL   H11243544   0.443   3.388   3.948  1.7705 -0.8078  0.8604
  357MOL   H11343545   0.560   3.396   3.844  1.1249  1.5368 -1.7656
  357MOL   H11443546   0.707   3.556   3.959 -0.5677  0.6961 -0.0740
  357MOL   H11543547   0.573   3.584   4.070 -2.3448  0.1331 -2.1419
  357MOL   C11643548   0.685   3.406   4.105 -0.2497  0.0877  0.1852
  357MOL   C11743549   0.593   3.344   4.210 -0.1735 -0.0159  0.0979
  357MOL   H11843550   0.720   3.319   4.050 -0.4821 -0.3719  0.7561
  357MOL   H11943551   0.771   3.437   4.164 -1.2677  0.0861  1.7105
  357MOL   H12043552   0.651   3.271   4.267 -0.5877 -1.0022 -0.7216
  357MOL   H12143553   0.553   3.410   4.287  0.9053  0.3614  0.3498
  357MOL   H12243554   0.511   3.284   4.170  0.3217 -0.7686  0.2011
  358MOL     C143555   4.625   0.705   2.980 -0.4574 -0.6983 -0.1278
  358MOL     C243556   4.652   0.718   2.822  0.1328  0.0963 -0.5180
  358MOL     H343557   4.576   0.799   3.004  1.1024  0.1474 -0.1485
  358MOL     H443558   4.711   0.688   3.045 -0.4359 -0.2754 -0.0419
  358MOL     H543559   4.668   0.624   2.769 -2.7056 -1.4608  1.2840
  358MOL     H643560   4.558   0.759   2.782  0.3344  2.4980  1.3338
  358MOL     H743561   4.557   0.621   2.994 -0.7160 -0.1457  2.1469
  358MOL     C843562   4.763   0.822   2.797  0.4159 -0.0303  0.0378
  358MOL     C943563   4.900   0.760   2.801 -0.3776  0.3028  0.1279
  358MOL    H1043564   4.738   0.872   2.703  0.4835 -1.2372 -0.6398
  358MOL    H1143565   4.761   0.899   2.873  1.9311 -0.5574  0.6318
  358MOL    H1243566   4.921   0.688   2.880  3.0268  1.2724  0.2224
  358MOL    H1343567   4.901   0.710   2.704 -2.8508 -1.8058  1.1343
  358MOL    C1443568   5.013   0.862   2.808 -0.3825 -0.2087  0.3105
  358MOL    C1543569   5.153   0.809   2.837 -0.0802  0.5202 -1.0614
  358MOL    H1643570   4.998   0.911   2.711 -3.3344  2.5621  2.0566
  358MOL    H1743571   4.993   0.946   2.875 -2.4474  0.3823 -0.9934
  358MOL    H1843572   5.148   0.791   2.944  0.7985 -0.0989 -1.1277
  358MOL    H1943573   5.178   0.716   2.786 -1.9797 -0.6645  0.1117
  358MOL    C2043574   5.257   0.910   2.807 -0.4333  0.3903  0.1053
  358MOL    C2143575   5.389   0.863   2.870  0.0370  0.5167 -0.1941
  358MOL    H2243576   5.257   0.934   2.701 -1.8169  0.6294  0.1461
  358MOL    H2343577   5.232   1.006   2.852 -1.3863 -2.2027  5.5658
  358MOL    H2443578   5.390   0.857   2.979 -1.7128 -0.0133 -0.1944
  358MOL    H2543579   5.408   0.759   2.841  2.0246  1.2782 -1.7837
  358MOL    C2643580   5.507   0.937   2.815  0.1177  0.3707 -0.0388
  358MOL    C2743581   5.545   1.064   2.894 -0.6446 -0.1789 -0.4418
  358MOL    H2843582   5.597   0.877   2.825  0.8469  1.4811  0.1618
  358MOL    H2943583   5.495   0.979   2.715  0.2590  0.0545 -0.1913
  358MOL    H3043584   5.613   1.120   2.829 -1.9208  1.0094 -0.7834
  358MOL    H3143585   5.457   1.123   2.920 -0.6251 -0.4279  0.1900
  358MOL    C3243586   5.617   1.036   3.027  0.6834 -0.7757  0.6118
  358MOL    C3343587   5.581   1.149   3.125  0.0009 -0.2509 -0.5515
  358MOL    H3443588   5.599   0.936   3.065 -0.9289 -0.0620  1.7624
  358MOL    H3543589   5.726   1.038   3.024  0.6759 -0.5951  0.4089
  358MOL    H3643590   5.589   1.248   3.079  2.5874  0.4199  1.1941
  358MOL    H3743591   5.476   1.139   3.150 -0.5950  1.6826 -2.1332
  358MOL    C3843592   5.656   1.140   3.261  0.2610 -0.0972  0.2264
  358MOL    C3943593   5.666   1.270   3.344  0.0432 -0.0301  0.0973
  358MOL    H4043594   5.611   1.068   3.329 -0.3028  2.2573  2.3896
  358MOL    H4143595   5.757   1.111   3.235  0.1488 -0.2979  0.0110
  358MOL    H4243596   5.713   1.349   3.286 -0.7137  1.4434  1.4480
  358MOL    H4343597   5.566   1.311   3.357  1.0595  1.9497  1.9084
  358MOL    C4443598   5.733   1.271   3.481  0.2151 -0.1676  1.1024
  358MOL    C4543599   5.753   1.406   3.550  0.0321 -0.1560  0.4053
  358MOL    H4643600   5.674   1.205   3.545 -0.4627 -0.3204  0.3308
  358MOL    H4743601   5.830   1.222   3.478  0.2728 -0.0141  0.2718
  358MOL    H4843602   5.836   1.467   3.513  1.3150 -1.6856  0.7464
  358MOL    H4943603   5.663   1.467   3.541  1.1626  1.7780  1.8334
  358MOL    C5043604   5.768   1.397   3.695 -0.1208  0.3305 -0.5437
  358MOL    C5143605   5.814   1.526   3.765  0.4114 -0.7283 -0.2992
  358MOL    H5243606   5.671   1.364   3.732 -1.2009  2.3159 -1.5971
  358MOL    H5343607   5.834   1.316   3.728  0.1378  0.8973  0.3460
  358MOL    H5443608   5.896   1.574   3.711  0.8589 -0.6920  0.4044
  358MOL    H5543609   5.738   1.604   3.773 -0.1177 -1.3496  0.7044
  358MOL    C5643610   5.857   1.497   3.915  0.2304 -0.0012 -0.5582
  358MOL    C5743611   5.754   1.428   4.009  0.3780 -0.1009  0.1909
  358MOL    H5843612   5.949   1.439   3.914 -0.6420 -1.4340  0.7675
  358MOL    H5943613   5.880   1.591   3.965 -1.5103  0.2515 -0.1971
  358MOL    H6043614   5.748   1.326   3.973  0.5907 -0.5703  1.4613
  358MOL    H6143615   5.795   1.412   4.109  0.2117 -1.1816  0.0825
  358MOL    C6243616   5.609   1.466   4.030 -1.2468  0.7399 -0.2100
  358MOL    C6343617   5.597   1.581   4.126 -0.7826  0.1702 -0.6927
  358MOL    H6443618   5.569   1.500   3.934  2.8726  1.9871 -1.6015
  358MOL    H6543619   5.557   1.378   4.068  1.0196  0.5827  2.7228
  358MOL    H6643620   5.655   1.562   4.217 -1.4031  0.0299 -0.3265
  358MOL    H6743621   5.646   1.664   4.074 -0.6301  0.0751 -0.7016
  358MOL    C6843622   5.447   1.601   4.171 -0.1304 -0.1633 -0.0382
  358MOL    C6943623   5.418   1.740   4.227 -0.4368  0.1358 -0.6775
  358MOL    H7043624   5.364   1.592   4.101 -0.3246  2.7086 -0.2563
  358MOL    H7143625   5.423   1.530   4.251 -0.9747  2.2830  1.9465
  358MOL    H7243626   5.488   1.754   4.310 -3.4197 -0.0266  1.9413
  358MOL    H7343627   5.436   1.828   4.165 -0.9156  0.2270 -0.6857
  358MOL    C7443628   5.274   1.748   4.272 -0.8185 -0.5214  0.3828
  358MOL    C7543629   5.235   1.902   4.280 -0.5208  0.3284  0.1158
  358MOL    H7643630   5.220   1.703   4.189  1.2128 -1.3487 -0.5209
  358MOL    H7743631   5.246   1.704   4.367 -0.8700  1.1340  1.1604
  358MOL    H7843632   5.265   1.958   4.191 -1.0561 -0.9357 -0.8778
  358MOL    H7943633   5.126   1.903   4.286 -0.3934  1.4298  2.8371
  358MOL    C8043634   5.293   1.987   4.401  0.6165  0.6481 -0.2210
  358MOL    C8143635   5.237   2.131   4.414  0.8554  0.6931  0.0281
  358MOL    H8243636   5.272   1.937   4.495  1.0390  0.6791 -0.1099
  358MOL    H8343637   5.401   1.993   4.395  0.8258 -1.8998  0.3489
  358MOL    H8443638   5.128   2.136   4.416  0.7791 -0.9388  0.1779
  358MOL    H8543639   5.273   2.170   4.509 -0.7805 -3.6200  2.5444
  358MOL    C8643640   5.284   2.224   4.302  0.4352 -0.5216 -0.0651
  358MOL    C8743641   5.197   2.352   4.298 -0.3645  0.4735  0.0022
  358MOL    H8843642   5.383   2.257   4.334  0.6442 -1.4164  0.2201
  358MOL    H8943643   5.296   2.188   4.200  2.0269  2.2605 -0.9060
  358MOL    H9043644   5.090   2.340   4.277  0.0936 -0.1092 -2.1423
  358MOL    H9143645   5.202   2.387   4.401 -0.3196 -0.8168  0.4395
  358MOL    C9243646   5.256   2.460   4.207 -0.1257 -0.1495 -0.2666
  358MOL    C9343647   5.192   2.600   4.234  0.3457 -0.5996  0.5912
  358MOL    H9443648   5.362   2.472   4.228  0.0767 -0.1544 -1.2470
  358MOL    H9543649   5.238   2.439   4.101  1.6353 -0.8183 -0.4489
  358MOL    H9643650   5.171   2.604   4.340  3.2372  0.5082  1.1658
  358MOL    H9743651   5.269   2.673   4.210 -0.6098 -0.0520 -0.9108
  358MOL    C9843652   5.065   2.622   4.149 -0.2637 -0.1682  0.0795
  358MOL    C9943653   5.027   2.770   4.155 -0.0037 -0.6712  0.5083
  358MOL   H10043654   5.084   2.589   4.047 -0.1748 -1.7741  0.5961
  358MOL   H10143655   4.986   2.557   4.187  0.6388 -1.3474 -0.0270
  358MOL   H10243656   4.928   2.790   4.114  0.3791 -1.3793 -0.8054
  358MOL   H10343657   5.014   2.802   4.258  0.2777  0.0300  0.3315
  358MOL   C10443658   5.115   2.859   4.063 -0.4394  0.2303 -0.3867
  358MOL   C10543659   5.057   2.994   4.041  0.6493  0.4867  0.0773
  358MOL   H10643660   5.219   2.858   4.094 -0.2548  0.2647 -0.9913
  358MOL   H10743661   5.115   2.805   3.968 -1.3921  0.8939 -0.7758
  358MOL   H10843662   4.956   2.983   4.000  0.5481  1.6700 -0.0035
  358MOL   H10943663   5.037   3.047   4.133 -2.1659  0.3281 -0.3958
  358MOL   C11043664   5.137   3.085   3.944  0.8131 -0.0461  0.4188
  358MOL   C11143665   5.057   3.210   3.903  0.9538 -0.7652  0.2299
  358MOL   H11243666   5.238   3.092   3.983  0.9996 -0.9581  0.1046
  358MOL   H11343667   5.137   3.033   3.848  0.3995  0.6373  0.0456
  358MOL   H11443668   4.979   3.176   3.835 -0.3102  2.2166  0.1389
  358MOL   H11543669   5.003   3.242   3.992  0.0257  1.3074 -1.0419
  358MOL   C11643670   5.141   3.327   3.851  0.5752  0.1502 -0.2584
  358MOL   C11743671   5.051   3.448   3.823  0.1661  0.2471  0.1020
  358MOL   H11843672   5.214   3.343   3.930 -1.6223  1.1518  1.6422
  358MOL   H11943673   5.197   3.297   3.763  0.9409 -1.0720  0.3855
  358MOL   H12043674   4.976   3.426   3.747 -0.2180  0.5027  0.4062
  358MOL   H12143675   5.002   3.481   3.914 -0.4260 -0.2630 -0.0283
  358MOL   H12243676   5.097   3.541   3.790 -1.7658  1.2148  0.0427
  359MOL     C143677   7.493   2.165   4.452  0.3511 -0.3376  0.1420
  359MOL     C243678   7.543   2.138   4.307  0.0507 -0.6932  0.2768
  359MOL     H343679   7.531   2.086   4.517  2.9592 -0.2593 -1.2522
  359MOL     H443680   7.385   2.152   4.441  0.3518 -0.7908  0.6271
  359MOL     H543681   7.651   2.123   4.303  0.1015 -0.0679 -0.9311
  359MOL     H643682   7.502   2.041   4.278  0.1336 -0.7676  0.4075
  359MOL     H743683   7.514   2.265   4.490  1.9528 -0.6124 -0.0019
  359MOL     C843684   7.511   2.251   4.212  0.7602 -0.7180  0.7935
  359MOL     C943685   7.582   2.237   4.077  0.4677 -0.4333 -0.4752
  359MOL    H1043686   7.405   2.249   4.189  0.7195  0.7060  0.8233
  359MOL    H1143687   7.535   2.346   4.260 -1.0908  1.1382 -1.8195
  359MOL    H1243688   7.690   2.238   4.086  0.3043  1.4325  2.0405
  359MOL    H1343689   7.563   2.145   4.023  0.9599 -2.4647  2.7083
  359MOL    C1443690   7.542   2.360   3.988  0.4803 -0.2802  0.4061
  359MOL    C1543691   7.594   2.345   3.849  0.4546  0.9389  0.6658
  359MOL    H1643692   7.434   2.380   3.986  0.1570 -1.7172  2.1668
  359MOL    H1743693   7.587   2.449   4.033  1.4372 -0.0818 -0.9084
  359MOL    H1843694   0.009   2.328   3.856  0.2450 -0.3925  0.8130
  359MOL    H1943695   7.542   2.267   3.794  1.4429 -0.0955  1.1977
  359MOL    C2043696   7.578   2.467   3.770 -0.0183  0.0735  0.4724
  359MOL    C2143697   0.014   2.511   3.694  0.5368 -0.2143 -0.3411
  359MOL    H2243698   7.498   2.443   3.701  0.0715  3.0182 -0.7469
  359MOL    H2343699   7.549   2.555   3.828 -0.0957  0.6376 -0.4098
  359MOL    H2443700   0.086   2.530   3.773  0.6375  1.9731 -0.9226
  359MOL    H2543701   0.045   2.428   3.630 -1.2720  0.1019 -1.6702
  359MOL    C2643702   0.001   2.626   3.586 -0.5015 -0.0874 -0.6831
  359MOL    C2743703   0.142   2.660   3.523  0.2723  0.2101  0.4010
  359MOL    H2843704   7.624   2.597   3.508 -1.9816  0.5898  0.3518
  359MOL    H2943705   7.635   2.708   3.630  0.9118 -0.1195  1.3387
  359MOL    H3043706   0.214   2.671   3.604  2.2868 -1.2995 -1.1542
  359MOL    H3143707   0.186   2.575   3.472 -1.2314 -0.0332 -0.5316
  359MOL    C3243708   0.155   2.784   3.437 -0.0587  0.1730 -0.0181
  359MOL    C3343709   0.089   2.792   3.299 -0.1977 -0.1838  0.1414
  359MOL    H3443710   0.119   2.868   3.497  3.2949  1.2860  0.5854
  359MOL    H3543711   0.262   2.804   3.422 -0.0228  0.5067  0.6493
  359MOL    H3643712   0.139   2.727   3.226 -0.1469 -0.3998  0.3681
  359MOL    H3743713   7.681   2.749   3.307  0.3535 -1.4036  0.6378
  359MOL    C3843714   0.083   2.926   3.227  0.7661 -0.6673 -0.3203
  359MOL    C3943715   0.199   2.956   3.129  0.6392  0.1814  0.4451
  359MOL    H4043716   7.686   2.941   3.167  1.5725 -1.3776 -1.7197
  359MOL    H4143717   0.075   3.012   3.294  1.2203 -1.1110  0.3144
  359MOL    H4243718   0.299   2.936   3.168 -1.0783 -0.1114  5.0536
  359MOL    H4343719   0.184   2.909   3.032  0.2042 -2.4442  1.7491
  359MOL    C4443720   0.206   3.110   3.088  1.3252  0.1886 -0.6409
  359MOL    C4543721   0.336   3.138   3.012  0.7187  0.1375  0.5772
  359MOL    H4643722   0.128   3.133   3.016  0.8116 -1.0642 -0.4987
  359MOL    H4743723   0.199   3.179   3.173 -3.3344 -2.2451  1.0991
  359MOL    H4843724   0.424   3.139   3.076  1.4844  1.0960 -0.4455
  359MOL    H4943725   0.364   3.056   2.946 -0.8756  0.9703 -1.1862
  359MOL    C5043726   0.334   3.271   2.934  0.1633  0.1855 -0.3226
  359MOL    C5143727   0.466   3.287   2.855  0.9541  0.4787  0.3334
  359MOL    H5243728   0.250   3.265   2.864  0.0671 -0.1092 -0.1828
  359MOL    H5343729   0.331   3.360   2.998  0.5011  0.2899 -0.4504
  359MOL    H5443730   0.555   3.271   2.916  0.5316  1.2349  1.1743
  359MOL    H5543731   0.469   3.212   2.777  0.4791 -0.6488  1.3777
  359MOL    C5643732   0.470   3.423   2.789 -0.0738 -0.5029  0.5707
  359MOL    C5743733   0.609   3.452   2.721  0.3665 -0.6741 -0.5417
  359MOL    H5843734   0.391   3.427   2.713  0.4977  2.5133  0.0838
  359MOL    H5943735   0.447   3.504   2.858  0.3082 -0.1565  0.2911
  359MOL    H6043736   0.697   3.451   2.785  1.1786  1.4162 -1.5709
  359MOL    H6143737   0.638   3.378   2.648 -0.4516 -1.0438 -0.4952
  359MOL    C6243738   0.613   3.596   2.665 -0.1606  0.2877 -0.4551
  359MOL    C6343739   0.745   3.633   2.598 -0.3442 -0.1055  0.2693
  359MOL    H6443740   0.527   3.608   2.599 -1.8325 -2.2960  1.1643
  359MOL    H6543741   0.592   3.670   2.744 -1.6391 -0.6039  0.0072
  359MOL    H6643742   0.828   3.572   2.634 -2.0865 -1.7975  1.5690
  359MOL    H6743743   0.741   3.583   2.502  0.8523  0.7720 -0.2476
  359MOL    C6843744   0.771   3.789   2.576 -0.0560  0.0752  0.0929
  359MOL    C6943745   0.825   3.848   2.712  0.5888  0.3351 -0.5913
  359MOL    H7043746   0.850   3.819   2.506  0.0617 -1.0167 -0.2483
  359MOL    H7143747   0.682   3.840   2.540 -0.0332  0.2843  0.3340
  359MOL    H7243748   0.786   3.949   2.715 -4.0781 -1.3859  2.2854
  359MOL    H7343749   0.774   3.805   2.798 -0.9605 -1.4459 -2.3714
  359MOL    C7443750   0.977   3.850   2.727  0.2574  0.2923  0.4974
  359MOL    C7543751   1.010   3.791   2.869  1.0858 -0.0480  0.0486
  359MOL    H7643752   1.035   3.789   2.658 -1.9063 -0.2836 -0.8651
  359MOL    H7743753   1.017   3.951   2.718 -1.1649  0.8835  0.7057
  359MOL    H7843754   1.117   3.794   2.890  1.2278  0.1115 -0.6552
  359MOL    H7943755   0.967   3.855   2.946 -1.7410 -2.0797  0.2250
  359MOL    C8043756   0.981   3.644   2.900  0.4834  0.1426 -0.2846
  359MOL    C8143757   0.978   3.623   3.053  0.1290  0.9288 -0.0839
  359MOL    H8243758   0.888   3.616   2.849  0.3513 -1.1509  0.6673
  359MOL    H8343759   1.062   3.585   2.857 -0.1538 -2.0789  1.5033
  359MOL    H8443760   1.070   3.670   3.090  0.8813 -0.2846 -0.4046
  359MOL    H8543761   0.901   3.681   3.103  0.2551  0.6149  0.4721
  359MOL    C8643762   0.989   3.485   3.097  0.0574 -1.0497  0.3988
  359MOL    C8743763   0.866   3.401   3.086  0.7735  0.1753 -0.4250
  359MOL    H8843764   1.070   3.430   3.048  2.2330  2.6313 -0.3800
  359MOL    H8943765   1.022   3.491   3.201  0.5685  0.2059  0.1746
  359MOL    H9043766   0.779   3.461   3.111  0.8916  0.1031  0.1784
  359MOL    H9143767   0.843   3.381   2.982 -1.9549 -2.2989  0.5998
  359MOL    C9243768   0.866   3.277   3.177 -0.2564 -0.3788 -0.8403
  359MOL    C9343769   0.738   3.190   3.162  0.4025  0.0554  0.7413
  359MOL    H9443770   0.959   3.229   3.146  0.4125  1.1463 -1.2268
  359MOL    H9543771   0.872   3.313   3.279 -1.3369  0.3844 -1.0326
  359MOL    H9643772   0.645   3.241   3.185 -1.1380 -1.0563 -2.6128
  359MOL    H9743773   0.718   3.166   3.057  1.0133 -1.3006  0.9237
  359MOL    C9843774   0.756   3.058   3.231 -0.7234  0.3491  0.2479
  359MOL    C9943775   0.628   2.979   3.231  0.0817  0.0999  0.0722
  359MOL   H10043776   0.825   2.999   3.170 -3.4986 -1.4362 -1.2757
  359MOL   H10143777   0.791   3.066   3.334  1.2065 -2.2213 -0.1575
  359MOL   H10243778   0.563   3.015   3.311  1.0472  0.1034  0.8609
  359MOL   H10343779   0.583   2.992   3.133  0.1035 -0.5011 -0.0198
  359MOL   C10443780   0.652   2.828   3.257 -0.4002 -0.0875  0.3551
  359MOL   C10543781   0.528   2.750   3.310  0.1900  0.0607 -0.2147
  359MOL   H10643782   0.688   2.783   3.164 -1.4226 -0.0796 -0.0531
  359MOL   H10743783   0.732   2.819   3.330  0.3842 -1.2229 -0.6197
  359MOL   H10843784   0.496   2.798   3.403  0.8880 -2.2073  1.2317
  359MOL   H10943785   0.446   2.758   3.239  1.3761 -1.8430 -1.8478
  359MOL   C11043786   0.571   2.609   3.347 -0.2724 -0.5825 -0.1329
  359MOL   C11143787   0.446   2.522   3.395 -0.3679  0.7970  0.2648
  359MOL   H11243788   0.613   2.575   3.253  0.8641 -1.6195  0.7373
  359MOL   H11343789   0.656   2.606   3.415 -1.1710 -1.3674  0.9926
  359MOL   H11443790   0.418   2.532   3.500 -3.6114 -0.0218 -0.4948
  359MOL   H11543791   0.360   2.551   3.335 -0.3405 -1.2115 -0.7780
  359MOL   C11643792   0.491   2.375   3.376  0.5876 -0.2263 -0.1322
  359MOL   C11743793   0.365   2.279   3.381  0.1458 -0.1711  0.4605
  359MOL   H11843794   0.528   2.359   3.275 -1.4142  0.5579 -1.0276
  359MOL   H11943795   0.556   2.339   3.455  0.5088 -0.7511 -0.2994
  359MOL   H12043796   0.394   2.175   3.371  1.1731  0.2461 -0.9919
  359MOL   H12143797   0.306   2.293   3.472  1.4393  2.1484  1.0063
  359MOL   H12243798   0.291   2.294   3.303  1.1480  1.2141 -0.2560
  360MOL     C143799   3.948   5.178   5.472  0.4735  0.4902 -0.1389
  360MOL     C243800   4.049   5.292   5.511  0.2814  0.1983  0.7552
  360MOL     H343801   3.972   5.130   5.378 -2.1683  1.5758 -1.4201
  360MOL     H443802   3.842   5.204   5.475  0.7387  1.5160  0.5904
  360MOL     H543803   4.148   5.255   5.538 -0.4451 -0.3559  2.7288
  360MOL     H643804   4.077   5.357   5.428  1.4771  1.0782  1.8299
  360MOL     H743805   3.954   5.098   5.546  1.0736 -0.0272 -0.7389
  360MOL     C843806   3.993   5.375   5.624 -0.3069 -0.0420  0.0848
  360MOL     C943807   4.070   5.499   5.657  0.2360  0.0324  0.6602
  360MOL    H1043808   3.888   5.404   5.615 -0.1463  0.4564 -0.2287
  360MOL    H1143809   3.998   5.305   5.708 -4.2114 -0.6360 -0.0763
  360MOL    H1243810   4.175   5.475   5.674  0.7410  1.5103 -0.2392
  360MOL    H1343811   4.074   5.561   5.567 -3.8221 -0.7856 -0.1811
  360MOL    C1443812   4.020   5.581   5.773  0.0606 -0.2409  0.5479
  360MOL    C1543813   4.127   5.684   5.815  0.2982  0.0165 -0.6399
  360MOL    H1643814   3.920   5.620   5.751  0.4452  0.5047  0.0943
  360MOL    H1743815   3.999   5.511   5.854  0.3365 -2.0139 -0.9060
  360MOL    H1843816   4.221   5.637   5.846 -0.9670 -2.9657 -1.1472
  360MOL    H1943817   4.153   5.755   5.737 -0.3285  0.2945 -0.6007
  360MOL    C2043818   4.090   5.768   5.933 -0.0138 -0.0381  0.5993
  360MOL    C2143819   4.191   5.876   5.970  0.7457 -0.3026  0.0807
  360MOL    H2243820   3.992   5.811   5.915 -0.2186 -0.3965  0.8419
  360MOL    H2343821   4.072   5.710   6.024 -1.2072 -0.4297  0.1166
  360MOL    H2443822   4.279   5.831   6.017  0.8976  0.9216  0.9752
  360MOL    H2543823   4.229   5.935   5.887 -0.8154 -0.0218 -0.4382
  360MOL    C2643824   4.135   5.980   6.069 -0.1447 -0.1737 -0.6502
  360MOL    C2743825   4.240   6.092   6.099 -0.1863  0.9329  0.2522
  360MOL    H2843826   4.051   6.038   6.031  0.7098  1.4972 -0.0450
  360MOL    H2943827   4.104   5.925   6.158  0.7835 -2.1342 -1.5165
  360MOL    H3043828   4.325   6.035   6.137  0.7060  1.8458 -0.3469
  360MOL    H3143829   4.275   6.133   6.005 -1.5057  2.3172  0.3514
  360MOL    C3243830   4.193   6.196   6.202  1.1538  0.0281 -0.0802
  360MOL    C3343831   4.312   6.286   6.239 -1.0808 -0.7170  0.3425
  360MOL    H3443832   4.106   6.248   6.163  2.3329  1.6161 -0.6437
  360MOL    H3543833   4.155   6.147   6.292 -0.1963  0.7042 -0.2737
  360MOL    H3643834   4.403   6.227   6.250  0.8922  2.1290 -0.2482
  360MOL    H3743835   4.334   6.344   6.149  0.0300 -1.5030  0.0902
  360MOL    C3843836   4.282   6.381   6.359 -0.0088  0.6260  0.4968
  360MOL    C3943837   4.398   6.482   6.384  0.6378  0.2312 -0.0226
  360MOL    H4043838   4.190   6.436   6.342  0.1569  0.4812 -0.9479
  360MOL    H4143839   4.261   6.321   6.448 -1.8365  1.8320  0.9019
  360MOL    H4243840   4.489   6.427   6.408 -0.3771 -0.9355  1.2320
  360MOL    H4343841   4.397   6.546   6.296 -2.0247 -0.0542 -0.2308
  360MOL    C4443842   4.374   6.569   6.510  0.2240 -0.2672  0.0404
  360MOL    C4543843   4.496   6.668   6.530  0.1019  0.1590  0.8986
  360MOL    H4643844   4.282   6.628   6.511  0.4494  0.1323 -1.4502
  360MOL    H4743845   4.370   6.506   6.599 -0.7896  0.6350  0.6592
  360MOL    H4843846   4.584   6.612   6.561  1.5297  2.1499  0.5127
  360MOL    H4943847   4.520   6.708   6.431 -0.9857  2.3702  1.4867
  360MOL    C5043848   4.478   6.795   6.611  0.1297 -0.6714 -0.0405
  360MOL    C5143849   4.394   6.912   6.556 -0.3539  0.9057 -0.0784
  360MOL    H5243850   4.434   6.765   6.706  0.4915  0.7636  0.5943
  360MOL    H5343851   4.582   6.827   6.620 -0.0226 -0.4171  0.8213
  360MOL    H5443852   4.421   6.927   6.451 -1.2559 -1.8058 -0.7604
  360MOL    H5543853   4.288   6.886   6.556  0.1997 -1.5362 -1.5979
  360MOL    C5643854   4.400   7.039   6.636 -0.0084 -0.2009  0.2564
  360MOL    C5743855   4.326   7.152   6.567  0.0592  0.5078 -0.5795
  360MOL    H5843856   4.349   7.021   6.730 -2.2259  1.4331 -0.5810
  360MOL    H5943857   4.501   7.074   6.658 -0.6709  1.6472  0.4209
  360MOL    H6043858   4.369   7.175   6.469  1.8956  1.5981  0.4544
  360MOL    H6143859   4.227   7.114   6.542  0.1930 -0.9214  0.9695
  360MOL    C6243860   4.313   7.274   6.653  0.1228 -0.4199  0.7402
  360MOL    C6343861   4.219   7.377   6.596 -0.0940  0.3460 -0.1676
  360MOL    H6443862   4.274   7.247   6.752 -0.3559  0.9623  0.9383
  360MOL    H6543863   4.410   7.323   6.662 -0.4830  1.1048 -0.8274
  360MOL    H6643864   4.248   7.392   6.492  1.6762 -0.7912  0.1297
  360MOL    H6743865   4.125   7.322   6.591 -0.4906  1.0637 -0.6097
  360MOL    C6843866   4.225   7.514   6.672  0.0747 -0.7139 -0.1099
  360MOL    C6943867   4.173   7.635   6.591 -0.1183  0.3473 -0.2382
  360MOL    H7043868   4.180   7.503   6.771 -1.5153 -0.4463 -0.7973
  360MOL    H7143869   4.330   7.531   6.699  0.0884 -0.8558 -0.0749
  360MOL    H7243870   4.230   7.641   6.498 -0.0601 -2.0478 -0.4018
  360MOL    H7343871   4.071   7.605   6.563  0.4472 -0.6478 -1.2902
  360MOL    C7443872   4.164   0.077   6.663  0.7520 -0.6960 -0.0102
  360MOL    C7543873   4.080   0.185   6.591 -0.1765 -0.7754 -0.0084
  360MOL    H7643874   4.120   0.060   6.761 -0.8994  0.0982 -0.5949
  360MOL    H7743875   4.267   0.102   6.687  0.5149  0.8124 -0.5189
  360MOL    H7843876   4.122   0.203   6.492  0.1937  1.6432  0.5548
  360MOL    H7943877   3.981   0.148   6.567  0.1350 -1.7075  0.1364
  360MOL    C8043878   4.080   0.326   6.658  0.2350  0.6987  0.7073
  360MOL    C8143879   4.010   0.439   6.576 -0.3493 -0.5834 -0.2175
  360MOL    H8243880   4.044   0.332   6.761 -1.7056  3.0364 -0.0755
  360MOL    H8343881   4.186   0.351   6.669  1.0632 -1.5656 -1.7221
  360MOL    H8443882   4.062   0.432   6.480  2.9948 -3.5140  1.6998
  360MOL    H8543883   3.902   0.427   6.563 -0.3701 -0.1506 -0.4601
  360MOL    C8643884   4.043   0.578   6.639 -0.1608  0.9337 -0.4034
  360MOL    C8743885   4.019   0.695   6.547 -0.4779 -0.6122 -0.0124
  360MOL    H8843886   3.983   0.588   6.729  1.3133 -0.7798  0.8035
  360MOL    H8943887   4.148   0.580   6.670 -0.1676 -3.5831  0.1546
  360MOL    H9043888   4.073   0.675   6.455  1.8788  1.1366  0.9216
  360MOL    H9143889   3.914   0.693   6.516 -0.3737 -0.5844 -0.3601
  360MOL    C9243890   4.068   0.829   6.608 -0.2356 -0.3160  0.3143
  360MOL    C9343891   3.990   0.958   6.574  0.8711 -0.9744  0.4928
  360MOL    H9443892   4.071   0.820   6.717 -0.3834 -1.5488  0.2143
  360MOL    H9543893   4.173   0.837   6.582  0.4188  0.0342  2.8737
  360MOL    H9643894   3.882   0.945   6.580  0.9366 -1.0057  1.6263
  360MOL    H9743895   4.014   1.032   6.651  4.4367 -1.3413 -0.1759
  360MOL    C9843896   4.032   1.012   6.440  1.2441  0.1726 -0.0582
  360MOL    C9943897   4.004   1.165   6.423  0.0277 -0.2475 -0.5386
  360MOL   H10043898   4.139   0.995   6.430  1.3238 -0.6534  1.9367
  360MOL   H10143899   3.982   0.967   6.354 -0.2648  1.5131  0.0894
  360MOL   H10243900   3.897   1.182   6.408 -0.6476 -3.2171  0.6688
  360MOL   H10343901   4.035   1.224   6.509 -0.7110  1.0189 -1.1246
  360MOL   C10443902   4.069   1.243   6.303  0.0630  0.2720 -0.6564
  360MOL   C10543903   4.211   1.291   6.313 -0.1421 -0.4702 -0.5105
  360MOL   H10643904   4.059   1.180   6.214  0.7956 -1.3629  0.4096
  360MOL   H10743905   4.007   1.332   6.289 -2.1478 -0.9373  1.1424
  360MOL   H10843906   4.272   1.202   6.331 -2.0744 -1.9351 -1.0528
  360MOL   H10943907   4.244   1.325   6.215  0.4541 -0.3143 -0.2578
  360MOL   C11043908   4.244   1.388   6.432 -0.3301  0.0205 -0.2185
  360MOL   C11143909   4.148   1.508   6.431  0.3111 -0.0573  0.0974
  360MOL   H11243910   4.247   1.329   6.523 -0.2583  0.6560  0.1958
  360MOL   H11343911   4.344   1.427   6.414 -0.6477  0.0429 -2.0402
  360MOL   H11443912   4.156   1.564   6.338  0.2937  0.3414  0.3371
  360MOL   H11543913   4.044   1.475   6.431 -0.0928  1.1330 -2.1189
  360MOL   C11643914   4.166   1.617   6.539  0.6190  0.2579 -0.0899
  360MOL   C11743915   4.103   1.581   6.676 -1.0415 -0.0653 -0.0640
  360MOL   H11843916   4.271   1.644   6.531  0.5499  0.5136 -0.1437
  360MOL   H11943917   4.120   1.712   6.512 -1.5357 -1.0195 -1.0778
  360MOL   H12043918   3.996   1.564   6.685 -1.1300 -0.2234 -1.4130
  360MOL   H12143919   4.154   1.494   6.718 -2.5248 -1.3678 -0.9355
  360MOL   H12243920   4.147   1.652   6.747  0.1316 -1.1531  0.3410
  361MOL     C143921   1.244   7.647   6.870  0.7525 -0.5990 -0.7207
  361MOL     C243922   1.295   0.093   6.825  0.7651  0.3197  0.5801
  361MOL     H343923   1.303   7.563   6.834  0.9145 -0.4448 -0.8155
  361MOL     H443924   1.139   7.635   6.843 -0.2795 -0.1835  2.8839
  361MOL     H543925   1.317   0.088   6.718  1.4939  1.7633  0.6537
  361MOL     H643926   1.212   0.163   6.831  1.2134  0.8119  1.0708
  361MOL     H743927   1.260   7.641   6.977  0.4746 -1.5151 -0.7256
  361MOL     C843928   1.416   0.152   6.896 -0.0051 -0.5801 -0.7677
  361MOL     C943929   1.468   0.266   6.810  0.7409 -0.3570  0.8254
  361MOL    H1043930   1.387   0.201   6.989 -1.1839  0.2365 -1.5539
  361MOL    H1143931   1.499   0.086   6.921  1.5003  1.4538 -0.3058
  361MOL    H1243932   1.508   0.221   6.720  0.7470  2.7855 -0.8256
  361MOL    H1343933   1.381   0.323   6.777  0.4640 -2.3287 -2.0866
  361MOL    C1443934   1.575   0.366   6.866 -0.2463  0.3567  0.5725
  361MOL    C1543935   1.593   0.480   6.765  0.6483  0.7241 -0.7387
  361MOL    H1643936   1.529   0.406   6.957 -2.2405  0.2315 -0.3671
  361MOL    H1743937   1.669   0.317   6.891 -1.3575 -0.8598  2.5052
  361MOL    H1843938   1.498   0.532   6.753  1.1263  1.6403 -0.5900
  361MOL    H1943939   1.663   0.560   6.788  2.1955 -0.9619  0.6937
  361MOL    C2043940   1.637   0.425   6.626  0.0772 -0.2726 -0.4209
  361MOL    C2143941   1.682   0.546   6.539 -0.7824  0.3255 -0.4017
  361MOL    H2243942   1.725   0.366   6.652 -1.8841 -3.1461 -0.0410
  361MOL    H2343943   1.559   0.358   6.590  0.9942 -1.2338 -0.6504
  361MOL    H2443944   1.613   0.625   6.569  0.9180  1.9097 -0.5494
  361MOL    H2543945   1.781   0.574   6.575 -0.2353 -1.6835 -0.3171
  361MOL    C2643946   1.671   0.508   6.386  0.0219 -0.6566  0.8161
  361MOL    C2743947   1.690   0.641   6.301  0.0596  0.9957 -0.5755
  361MOL    H2843948   1.737   0.428   6.355  0.3722  1.2389 -3.8048
  361MOL    H2943949   1.567   0.477   6.373 -0.5563  0.8900  1.5579
  361MOL    H3043950   1.668   0.631   6.194 -0.2339  0.5300 -0.4712
  361MOL    H3143951   1.625   0.721   6.335 -0.6573 -0.7679  2.3451
  361MOL    C3243952   1.847   0.683   6.306  0.1431 -0.4950 -0.1353
  361MOL    C3343953   1.857   0.827   6.265 -0.3898  0.3925  0.2967
  361MOL    H3443954   1.888   0.653   6.402 -0.8682 -1.1443  0.1080
  361MOL    H3543955   1.892   0.617   6.232  1.7840  0.2993  0.1540
  361MOL    H3643956   1.778   0.847   6.193  0.4680 -0.2541 -0.8465
  361MOL    H3743957   1.843   0.886   6.355  0.2362  2.8201 -1.1658
  361MOL    C3843958   1.998   0.844   6.202  0.6131  0.7300 -0.3551
  361MOL    C3943959   2.019   0.986   6.148  0.1716 -0.8094  0.1079
  361MOL    H4043960   2.077   0.802   6.264 -1.6369 -0.5294  1.7627
  361MOL    H4143961   1.988   0.782   6.113 -0.0120  1.0386 -0.4999
  361MOL    H4243962   1.942   1.001   6.073 -1.5537  1.7055  2.2665
  361MOL    H4343963   1.997   1.060   6.225  0.9830 -0.2394 -0.2028
  361MOL    C4443964   2.161   0.999   6.098  0.6678 -0.0716  0.1777
  361MOL    C4543965   2.203   1.141   6.062  0.2996  0.4333  0.0118
  361MOL    H4643966   2.229   0.963   6.175 -0.4218 -2.8687 -0.1022
  361MOL    H4743967   2.188   0.931   6.017  1.1659  1.7978 -1.2701
  361MOL    H4843968   2.133   1.170   5.983 -2.0622 -0.9239  1.5245
  361MOL    H4943969   2.202   1.213   6.143 -0.9369  2.1663 -1.4968
  361MOL    C5043970   2.335   1.142   5.995 -0.0095 -0.2597  0.9260
  361MOL    C5143971   2.385   1.286   5.953 -0.3720 -0.1469 -0.8073
  361MOL    H5243972   2.411   1.086   6.050 -1.7384 -5.0986 -1.3250
  361MOL    H5343973   2.320   1.084   5.904  1.3459  0.1310  0.4332
  361MOL    H5443974   2.304   1.340   5.903  0.3161  0.9933 -0.7082
  361MOL    H5543975   2.403   1.343   6.045 -0.9824  0.1625 -0.8757
  361MOL    C5643976   2.514   1.271   5.873  0.1545  0.2979  0.1590
  361MOL    C5743977   2.557   1.400   5.814  0.2803  0.5653 -0.2956
  361MOL    H5843978   2.597   1.236   5.935 -1.4267 -2.0829  0.9881
  361MOL    H5943979   2.494   1.202   5.791  0.1804 -0.9343  1.1861
  361MOL    H6043980   2.488   1.435   5.737  0.9965  1.5418 -0.5187
  361MOL    H6143981   2.558   1.481   5.887 -0.2796 -1.9564  2.6188
  361MOL    C6243982   2.698   1.397   5.752 -0.5291 -0.4341 -0.3900
  361MOL    C6343983   2.749   1.534   5.696 -0.6955 -0.8780  0.2223
  361MOL    H6443984   2.770   1.350   5.820  1.7134  2.8056 -0.4121
  361MOL    H6543985   2.691   1.343   5.658  0.9498  0.5472 -1.0824
  361MOL    H6643986   2.672   1.602   5.659 -0.6970 -2.4698 -2.8863
  361MOL    H6743987   2.779   1.584   5.788 -1.9289 -0.9349  0.6622
  361MOL    C6843988   2.866   1.523   5.595  0.2229 -0.8934 -0.7329
  361MOL    C6943989   2.919   1.661   5.576  0.0696 -0.6588 -0.1273
  361MOL    H7043990   2.950   1.459   5.622  2.2424  1.7671 -0.4899
  361MOL    H7143991   2.825   1.485   5.502  1.0547 -0.5461 -1.2451
  361MOL    H7243992   2.839   1.705   5.516 -0.1605  0.9271  1.3040
  361MOL    H7343993   2.921   1.725   5.664  2.8253  0.5733 -1.0294
  361MOL    C7443994   3.053   1.667   5.497  0.3250  0.3472  0.0688
  361MOL    C7543995   3.173   1.689   5.591  0.2154  0.3547 -0.5756
  361MOL    H7643996   3.077   1.584   5.430 -1.5155 -0.6211  0.5655
  361MOL    H7743997   3.033   1.755   5.436 -0.5821 -0.3469 -0.6490
  361MOL    H7843998   3.256   1.719   5.527  2.6131  0.6318  2.5659
  361MOL    H7943999   3.154   1.766   5.667  1.7809 -1.2246  1.4727
  361MOL    C8044000   3.212   1.565   5.678  0.1732 -0.1017  0.3406
  361MOL    C8144001   3.333   1.598   5.769  0.4230 -0.0164  1.2447
  361MOL    H8244002   3.127   1.536   5.740 -1.1116 -2.0915 -2.2767
  361MOL    H8344003   3.217   1.476   5.616  1.4132  0.4021 -0.2881
  361MOL    H8444004   3.408   1.638   5.701  0.6975 -1.7304  0.5140
  361MOL    H8544005   3.320   1.672   5.848 -0.8125  0.0762  0.9646
  361MOL    C8644006   3.374   1.469   5.841 -0.1702 -0.2842  0.4151
  361MOL    C8744007   3.520   1.484   5.888  0.1748  0.0620  0.0575
  361MOL    H8844008   3.299   1.435   5.913  0.4587 -0.8651  0.8030
  361MOL    H8944009   3.371   1.394   5.762  2.6967 -0.0788  0.0699
  361MOL    H9044010   3.569   1.386   5.886  0.5025  0.1667  2.2425
  361MOL    H9144011   3.582   1.546   5.824  0.1334 -0.0721 -0.1155
  361MOL    C9244012   3.519   1.546   6.026  0.3359 -0.2606 -0.2762
  361MOL    C9344013   3.649   1.530   6.106  0.2659  0.6544  0.4721
  361MOL    H9444014   3.486   1.650   6.014  0.1165 -0.3553 -0.5008
  361MOL    H9544015   3.434   1.504   6.080  1.8254 -1.8046  0.8905
  361MOL    H9644016   3.688   1.429   6.118  1.5548  0.8807 -1.6038
  361MOL    H9744017   3.722   1.584   6.046  0.5377  0.3872  0.5633
  361MOL    C9844018   3.633   1.605   6.235  0.6098  0.0503  0.3913
  361MOL    C9944019   3.771   1.605   6.304 -0.0620  0.3483 -0.0172
  361MOL   H10044020   3.598   1.706   6.215 -2.1887 -1.4476 -2.7281
  361MOL   H10144021   3.562   1.561   6.304 -1.4872  2.9228  0.1754
  361MOL   H10244022   3.811   1.503   6.305 -2.0161 -0.4311  1.4826
  361MOL   H10344023   3.835   1.660   6.235  0.2364  0.9622  0.7422
  361MOL   C10444024   3.770   1.677   6.441  0.1466  0.1691  0.9918
  361MOL   C10544025   3.705   1.595   6.546  0.3318  0.8263 -0.0144
  361MOL   H10644026   3.876   1.695   6.463  0.0730  2.4489 -0.3344
  361MOL   H10744027   3.721   1.774   6.433 -0.7624 -0.3236  0.5383
  361MOL   H10844028   3.601   1.578   6.519  0.6971  0.8275 -1.4397
  361MOL   H10944029   3.746   1.496   6.565 -2.7169 -0.8613 -1.7580
  361MOL   C11044030   3.698   1.672   6.678  0.2008 -0.3798 -0.9008
  361MOL   C11144031   3.593   1.616   6.784 -0.4909  0.3335 -0.4368
  361MOL   H11244032   3.797   1.672   6.723  0.0623 -0.2773 -0.5977
  361MOL   H11344033   3.679   1.779   6.667  0.7011 -0.0399  1.3715
  361MOL   H11444034   3.584   1.693   6.860  0.1938  1.1678 -1.1925
  361MOL   H11544035   3.495   1.592   6.743  0.0188 -0.1201 -1.4167
  361MOL   C11644036   3.650   1.489   6.850  0.2488  0.4700 -0.5640
  361MOL   C11744037   3.572   1.444   6.972  0.1225 -0.0948  0.1540
  361MOL   H11844038   3.649   1.408   6.777  1.1066  0.7962 -0.9479
  361MOL   H11944039   3.756   1.496   6.874 -0.2220 -0.7275  1.9856
  361MOL   H12044040   3.614   1.358   7.025 -1.4986 -0.5194  0.8011
  361MOL   H12144041   3.561   1.530   7.038  0.6831 -0.5145  0.8082
  361MOL   H12244042   3.467   1.425   6.951  0.6178 -0.2603 -2.2507
  362MOL     C144043   3.578   4.067   3.642  0.1419  0.5423  0.4278
  362MOL     C244044   3.624   3.928   3.615  0.6940 -0.2644  0.2778
  362MOL     H344045   3.658   4.138   3.664  0.8758 -0.0555 -0.2956
  362MOL     H444046   3.508   4.073   3.726  2.6341  0.5537  2.5498
  362MOL     H544047   3.673   3.880   3.700 -1.4973  2.1864  3.0042
  362MOL     H644048   3.548   3.855   3.589  1.4058 -0.2806 -1.8971
  362MOL     H744049   3.520   4.120   3.567  0.5263 -2.1072 -1.8122
  362MOL     C844050   3.726   3.926   3.506  0.2465  0.6750  0.2794
  362MOL     C944051   3.828   3.810   3.509 -0.3574 -0.0989 -0.5511
  362MOL    H1044052   3.673   3.934   3.411  0.2454  0.2863  0.2455
  362MOL    H1144053   3.792   4.013   3.513  0.2904  0.6993 -0.4237
  362MOL    H1244054   3.778   3.715   3.524 -0.4463  0.0685  0.2020
  362MOL    H1344055   3.884   3.806   3.415 -1.1660  3.2164 -1.2322
  362MOL    C1444056   3.930   3.815   3.626 -0.3792  1.0001  0.3542
  362MOL    C1544057   4.008   3.681   3.638 -0.3441  0.2996 -0.0287
  362MOL    H1644058   4.001   3.893   3.599 -1.2942  1.4196 -0.9101
  362MOL    H1744059   3.879   3.844   3.719 -0.8508 -1.5425  0.9141
  362MOL    H1844060   3.929   3.608   3.658  0.4164 -0.1540  1.3433
  362MOL    H1944061   4.048   3.655   3.540  1.0573  0.2252  0.5592
  362MOL    C2044062   4.101   3.674   3.754 -0.7922 -0.0027 -0.0526
  362MOL    C2144063   4.209   3.570   3.735  0.4421 -1.0006  0.2863
  362MOL    H2244064   4.142   3.775   3.757  0.5683 -0.5783  2.0793
  362MOL    H2344065   4.056   3.658   3.852 -0.0396 -0.6555  0.1971
  362MOL    H2444066   4.161   3.472   3.734 -1.4331 -0.1187  1.5499
  362MOL    H2544067   4.264   3.588   3.643  1.2208  1.0427  1.1237
  362MOL    C2644068   4.305   3.544   3.847  0.4745  0.1570 -0.1698
  362MOL    C2744069   4.406   3.430   3.824 -0.4539 -1.1239 -0.4931
  362MOL    H2844070   4.359   3.636   3.873 -1.3967  1.3352 -0.3864
  362MOL    H2944071   4.263   3.510   3.941  0.5413  1.7389  0.4519
  362MOL    H3044072   4.361   3.333   3.805 -0.2801 -0.6714 -3.3306
  362MOL    H3144073   4.453   3.462   3.731 -0.8250  1.6852  0.2679
  362MOL    C3244074   4.501   3.405   3.941  0.1671  0.3767  0.1837
  362MOL    C3344075   4.587   3.273   3.915 -0.3933 -0.4859 -0.0767
  362MOL    H3444076   4.558   3.496   3.962 -0.6728  1.2262 -1.1211
  362MOL    H3544077   4.437   3.384   4.028 -1.4577 -1.0016 -1.3044
  362MOL    H3644078   4.521   3.188   3.901 -0.7907 -0.0223 -1.0740
  362MOL    H3744079   4.657   3.273   3.831 -0.0035 -0.0317  0.2453
  362MOL    C3844080   4.661   3.216   4.034  0.1015 -0.0023 -0.9817
  362MOL    C3944081   4.734   3.316   4.117 -0.6763 -0.4072 -0.2998
  362MOL    H4044082   4.591   3.158   4.095 -0.3658  0.8395 -0.7182
  362MOL    H4144083   4.729   3.142   3.990  0.0832 -1.2518  1.0026
  362MOL    H4244084   4.807   3.357   4.048  1.6345 -0.3909  2.0603
  362MOL    H4344085   4.663   3.386   4.163  0.8079  0.9677 -0.0647
  362MOL    C4444086   4.806   3.243   4.232 -0.5098 -0.1894 -0.9053
  362MOL    C4544087   4.857   3.344   4.337 -0.5090 -0.4691  0.4900
  362MOL    H4644088   4.741   3.172   4.284  1.6614  0.2582  2.5419
  362MOL    H4744089   4.900   3.203   4.195 -0.8837 -0.5755 -1.4513
  362MOL    H4844090   4.913   3.423   4.288 -2.3186 -0.5684 -1.8258
  362MOL    H4944091   4.769   3.389   4.383 -0.9883 -1.5959  0.6951
  362MOL    C5044092   4.958   3.281   4.432  0.0335  0.7650  0.2598
  362MOL    C5144093   4.990   3.359   4.558 -0.1996  0.3807 -0.2641
  362MOL    H5244094   4.910   3.191   4.471  4.0302 -1.8690 -0.5326
  362MOL    H5344095   5.052   3.252   4.386 -0.3008  0.1474 -0.0432
  362MOL    H5444096   5.023   3.461   4.536 -1.1595  0.7537  0.0136
  362MOL    H5544097   4.894   3.374   4.607  0.4904  1.5922  0.7364
  362MOL    C5644098   5.086   3.298   4.653 -0.4102 -1.1466  0.3667
  362MOL    C5744099   5.126   3.394   4.762  0.2077 -0.1225  0.0958
  362MOL    H5844100   5.037   3.215   4.704  0.1120 -1.6891 -0.0090
  362MOL    H5944101   5.170   3.249   4.603  0.6456  0.6024  0.3936
  362MOL    H6044102   5.188   3.475   4.723 -2.0372  1.1954 -0.8044
  362MOL    H6144103   5.034   3.441   4.798 -0.0386  1.3394 -2.3737
  362MOL    C6244104   5.191   3.328   4.885 -0.5740 -0.1645 -0.0307
  362MOL    C6344105   5.252   3.433   4.976 -1.1525  0.4302  0.4040
  362MOL    H6444106   5.112   3.277   4.939 -1.6103  0.1321 -1.2478
  362MOL    H6544107   5.269   3.265   4.842 -0.6791 -0.4882  0.2528
  362MOL    H6644108   5.319   3.494   4.916 -0.3276 -0.1611  0.7215
  362MOL    H6744109   5.180   3.507   5.013 -1.0818  0.2962  0.8148
  362MOL    C6844110   5.332   3.388   5.099 -0.7045  0.6677 -0.0702
  362MOL    C6944111   5.346   3.512   5.194 -0.0169  0.2552  0.0846
  362MOL    H7044112   5.277   3.320   5.164 -0.0938  0.4262  0.1934
  362MOL    H7144113   5.425   3.338   5.073 -1.1709 -0.1879 -0.0956
  362MOL    H7244114   5.250   3.553   5.226  1.0538  1.0154  2.3892
  362MOL    H7344115   5.370   3.461   5.287 -1.9923  0.7468  0.8810
  362MOL    C7444116   5.436   3.631   5.159  0.5154 -0.3579  0.1235
  362MOL    C7544117   5.588   3.602   5.120  0.5171  0.8478 -0.3205
  362MOL    H7644118   5.407   3.688   5.070  1.4463 -0.2135 -0.0871
  362MOL    H7744119   5.434   3.701   5.243  1.9132  0.3328 -0.4058
  362MOL    H7844120   5.643   3.537   5.188  0.4368  0.4256 -0.6617
  362MOL    H7944121   5.591   3.549   5.025 -0.5676  0.6094 -0.2296
  362MOL    C8044122   5.664   3.737   5.112 -0.3236 -0.3084  0.4185
  362MOL    C8144123   5.792   3.721   5.041 -0.5840  0.1656  0.2263
  362MOL    H8244124   5.596   3.807   5.064 -0.6714 -0.5990  0.4889
  362MOL    H8344125   5.682   3.770   5.215 -1.0645 -1.1623  0.8303
  362MOL    H8444126   5.847   3.637   5.085  0.5406 -0.7629 -2.7643
  362MOL    H8544127   5.762   3.695   4.939  0.6981 -0.7711  0.0730
  362MOL    C8644128   5.874   3.856   5.031 -0.0876 -0.1940  0.2489
  362MOL    C8744129   6.005   3.842   4.951  0.2894  0.4763 -0.7549
  362MOL    H8844130   5.817   3.932   4.977  1.4602  1.1035  0.4012
  362MOL    H8944131   5.891   3.897   5.130 -0.1260  1.9219 -0.5838
  362MOL    H9044132   6.073   3.782   5.011  0.3321  1.0595 -0.2097
  362MOL    H9144133   5.992   3.788   4.857 -0.9751 -0.5680 -0.0013
  362MOL    C9244134   6.070   3.979   4.923  0.7221  0.0823  0.3510
  362MOL    C9344135   6.212   3.970   4.880 -0.5429  0.2221  0.0550
  362MOL    H9444136   6.007   4.018   4.843  0.6111 -2.3133 -0.7640
  362MOL    H9544137   6.056   4.061   4.994  1.1019  0.4932 -0.0498
  362MOL    H9644138   6.275   3.926   4.958  1.7128  1.0415 -1.2458
  362MOL    H9744139   6.233   3.907   4.794 -0.2170 -0.0194  0.3055
  362MOL    C9844140   6.272   4.111   4.850 -0.6801  0.7030  0.9165
  362MOL    C9944141   6.430   4.101   4.825 -0.4238  0.5906 -0.4338
  362MOL   H10044142   6.225   4.161   4.765  1.8352 -1.1488 -1.6723
  362MOL   H10144143   6.253   4.172   4.938  0.0484  0.6817  1.0900
  362MOL   H10244144   6.484   4.055   4.908 -0.8718  0.3921 -0.2469
  362MOL   H10344145   6.446   4.026   4.747 -0.3131  0.4530 -0.2782
  362MOL   C10444146   6.496   4.233   4.787 -0.2053  0.1698  0.2638
  362MOL   C10544147   6.644   4.216   4.743 -0.4336  0.0324 -0.0128
  362MOL   H10644148   6.445   4.275   4.700  2.4358 -2.1189 -2.4937
  362MOL   H10744149   6.486   4.300   4.872 -0.4135  0.4357  0.0280
  362MOL   H10844150   6.692   4.157   4.821 -0.8026 -1.8333 -1.1499
  362MOL   H10944151   6.655   4.162   4.649 -1.1302  0.0197 -0.0861
  362MOL   C11044152   6.710   4.353   4.713 -0.4175  0.1957  0.1800
  362MOL   C11144153   6.863   4.359   4.697 -0.3139  0.1295  0.2962
  362MOL   H11244154   6.672   4.411   4.630 -0.4473 -0.3135 -0.1652
  362MOL   H11344155   6.695   4.419   4.799 -2.2955 -0.6553  0.5415
  362MOL   H11444156   6.934   4.321   4.771 -0.1569 -0.1764 -0.0080
  362MOL   H11544157   6.885   4.300   4.608 -2.2577  2.6044 -1.9239
  362MOL   C11644158   6.903   4.506   4.678 -0.2397 -0.2815  0.2053
  362MOL   C11744159   7.059   4.523   4.684 -0.2502 -0.1922  0.0784
  362MOL   H11844160   6.871   4.538   4.579  0.6436  0.1628  0.0601
  362MOL   H11944161   6.859   4.571   4.754 -2.2692 -1.1695 -0.1760
  362MOL   H12044162   7.081   4.628   4.662  1.1416 -0.3227  0.7720
  362MOL   H12144163   7.101   4.506   4.784 -2.0559  0.3126  0.9424
  362MOL   H12244164   7.127   4.475   4.614  2.7086 -0.4335  2.9802
  363MOL     C144165   1.215   6.774   3.945  0.3420 -0.0257  0.1921
  363MOL     C244166   1.091   6.827   3.863 -0.0841 -0.2168 -0.1941
  363MOL     H344167   1.291   6.735   3.877  0.6838  0.4653  0.2909
  363MOL     H444168   1.195   6.709   4.030 -0.5592 -1.1763 -0.8883
  363MOL     H544169   1.055   6.751   3.794  1.5671 -1.6192  0.4608
  363MOL     H644170   1.017   6.868   3.931  0.8922  1.7601 -0.2976
  363MOL     H744171   1.278   6.853   3.987 -0.4459  0.6098  0.1933
  363MOL     C844172   1.146   6.945   3.780  0.5681  0.5250 -0.2713
  363MOL     C944173   1.033   7.002   3.697  0.3910  0.0688 -0.1546
  363MOL    H1044174   1.189   7.022   3.844 -1.5072  2.0122 -0.6344
  363MOL    H1144175   1.222   6.908   3.712 -1.0029 -4.5253  0.4995
  363MOL    H1244176   0.975   6.921   3.653  1.5073 -1.0171  0.3371
  363MOL    H1344177   0.964   7.058   3.760  1.6426 -1.7179  2.9318
  363MOL    C1444178   1.080   7.096   3.588  0.3742  0.4006  0.1939
  363MOL    C1544179   0.961   7.154   3.520 -0.0758  0.1546 -0.5002
  363MOL    H1644180   1.148   7.175   3.618  0.1802  1.6610 -2.4539
  363MOL    H1744181   1.141   7.039   3.518  0.6994  0.1597  0.6730
  363MOL    H1844182   0.976   7.159   3.412  1.5820 -2.0587 -0.4045
  363MOL    H1944183   0.872   7.095   3.540  1.4232 -1.4231  1.7428
  363MOL    C2044184   0.942   7.302   3.563  0.2490  0.1512 -0.4273
  363MOL    C2144185   0.813   7.366   3.527 -0.0374 -0.1335  0.3727
  363MOL    H2244186   0.942   7.311   3.672  1.5379 -0.2819 -0.3748
  363MOL    H2344187   1.018   7.368   3.520 -0.6024  1.1230 -0.4418
  363MOL    H2444188   0.730   7.300   3.554 -0.6180  0.3111 -0.3078
  363MOL    H2544189   0.792   7.457   3.583 -1.2233  0.4298 -0.9573
  363MOL    C2644190   0.802   7.410   3.373 -0.4466  0.1699 -0.2986
  363MOL    C2744191   0.686   7.497   3.344 -0.3834 -1.0385  0.7184
  363MOL    H2844192   0.892   7.469   3.358 -1.6886  2.6148  1.4080
  363MOL    H2944193   0.807   7.332   3.297  1.0355 -0.3537  0.3186
  363MOL    H3044194   0.594   7.448   3.377 -1.0905 -0.1997  0.0323
  363MOL    H3144195   0.697   7.592   3.396  0.8540 -2.0552  2.3643
  363MOL    C3244196   0.665   7.549   3.203  0.0601  0.2392  1.0833
  363MOL    C3344197   0.543   7.639   3.187  0.6036 -0.4494  0.8777
  363MOL    H3444198   0.754   7.600   3.167  0.3201 -0.2723  0.9960
  363MOL    H3544199   0.635   7.475   3.129  0.6636  0.3947  0.6742
  363MOL    H3644200   0.456   7.582   3.218  0.1588 -0.1354  0.2143
  363MOL    H3744201   0.537   0.032   3.255  2.1477 -0.7796  1.4595
  363MOL    C3844202   0.525   7.690   3.043 -0.1950 -0.3843  0.8755
  363MOL    C3944203   0.382   0.038   3.016 -0.1086 -0.3846 -0.5450
  363MOL    H4044204   0.598   0.071   3.008 -2.0186  1.2238  0.3486
  363MOL    H4144205   0.549   7.602   2.984 -0.7334  0.3484 -0.4509
  363MOL    H4244206   0.318   7.647   3.046 -2.4936  1.2955 -0.8098
  363MOL    H4344207   0.365   0.131   3.070  0.1136  0.5387 -2.0436
  363MOL    C4444208   0.353   0.058   2.868 -0.1707  0.1001 -0.5578
  363MOL    C4544209   0.208   0.083   2.829 -0.4970 -0.5518 -0.3164
  363MOL    H4644210   0.410   0.144   2.833  1.1010  0.1120  1.4271
  363MOL    H4744211   0.401   7.666   2.816 -0.0675 -1.7919  2.4554
  363MOL    H4844212   0.211   0.067   2.722  0.6311 -0.1207 -0.3588
  363MOL    H4944213   0.144   0.005   2.871 -0.0849  0.5275  2.4178
  363MOL    C5044214   0.148   0.222   2.845 -0.4041 -0.4517  0.1508
  363MOL    C5144215   7.688   0.231   2.846  0.4438  0.1645 -0.3436
  363MOL    H5244216   0.170   0.262   2.944 -0.8086  3.8901 -1.4158
  363MOL    H5344217   0.189   0.289   2.770  0.1121 -0.4363  0.4430
  363MOL    H5444218   7.665   0.189   2.748 -1.4127 -3.6912  1.6451
  363MOL    H5544219   7.639   0.159   2.912  0.8347  0.9635  0.8385
  363MOL    C5644220   7.628   0.371   2.858  0.0427  0.1080 -0.3931
  363MOL    C5744221   7.474   0.375   2.859  0.1030 -0.5354 -0.7880
  363MOL    H5844222   7.659   0.414   2.954 -2.6902  1.6301 -0.1508
  363MOL    H5944223   7.661   0.430   2.773 -2.6013  1.5349 -0.4838
  363MOL    H6044224   7.433   0.297   2.922  0.4556 -0.0634  0.0327
  363MOL    H6144225   7.437   0.468   2.903  0.9490  0.1516 -1.5026
  363MOL    C6244226   7.421   0.347   2.721  0.2257  0.0693 -0.5362
  363MOL    C6344227   7.277   0.355   2.719 -0.1053  0.0093 -0.3026
  363MOL    H6444228   7.466   0.427   2.663  1.1907  0.7887  1.1563
  363MOL    H6544229   7.458   0.252   2.681 -1.4355 -0.7031 -0.2772
  363MOL    H6644230   7.224   0.295   2.793 -2.1747  1.4411 -0.5834
  363MOL    H6744231   7.245   0.457   2.737  1.5121  0.4280  0.3457
  363MOL    C6844232   7.217   0.307   2.584  0.1152  0.2208  0.0696
  363MOL    C6944233   7.177   0.163   2.562 -0.0562  0.4366 -0.1064
  363MOL    H7044234   7.123   0.359   2.566 -0.1769 -0.5750 -0.7029
  363MOL    H7144235   7.286   0.333   2.504 -0.1534  2.7947  0.6266
  363MOL    H7244236   7.269   0.108   2.582 -1.1747 -2.1735 -1.7387
  363MOL    H7344237   7.111   0.114   2.633  1.3986 -0.5753  0.5748
  363MOL    C7444238   7.132   0.120   2.421  0.5272  0.0549 -0.8702
  363MOL    C7544239   7.109   7.669   2.402 -0.2749  0.4750  0.1814
  363MOL    H7644240   7.044   0.179   2.394 -0.5544 -0.8063  0.7176
  363MOL    H7744241   7.208   0.143   2.346 -1.0929  2.0564 -1.9626
  363MOL    H7844242   7.194   7.604   2.424 -1.3991 -0.8666  0.6665
  363MOL    H7944243   7.020   7.650   2.462  0.1647  2.2884  1.4538
  363MOL    C8044244   7.077   7.638   2.258 -0.0844  0.1928 -0.4237
  363MOL    C8144245   7.061   7.488   2.240 -0.5985  0.9265 -0.6267
  363MOL    H8244246   6.975   7.672   2.238 -0.3746  1.0162  2.2571
  363MOL    H8344247   7.136   7.691   2.183  0.7675 -0.3318 -0.1183
  363MOL    H8444248   7.149   7.433   2.274 -1.4336 -0.0968 -0.0747
  363MOL    H8544249   6.975   7.452   2.297  0.8434 -1.0804  0.3313
  363MOL    C8644250   7.028   7.454   2.095  0.1242 -0.5219  0.0162
  363MOL    C8744251   6.973   7.312   2.083  0.2747  0.6750 -0.1496
  363MOL    H8844252   6.954   7.525   2.059 -0.7035 -2.4735 -2.3212
  363MOL    H8944253   7.113   7.459   2.026  0.7471 -0.2956  0.7958
  363MOL    H9044254   7.050   7.237   2.105 -1.3172 -1.7839 -2.6910
  363MOL    H9144255   6.906   7.290   2.166 -0.5007 -0.6343 -1.1052
  363MOL    C9244256   6.898   7.262   1.958  0.0357 -0.0883  0.8026
  363MOL    C9344257   6.975   7.254   1.826  0.7815 -0.5451 -0.0271
  363MOL    H9444258   6.869   7.160   1.984  0.1751 -0.9612 -2.3057
  363MOL    H9544259   6.807   7.322   1.948  1.0654  1.7104  1.8250
  363MOL    H9644260   7.023   7.349   1.801 -1.1551  0.7097  0.9491
  363MOL    H9744261   7.055   7.185   1.852  1.3087  0.2266  0.4259
  363MOL    C9844262   6.899   7.204   1.696  0.0917  0.2807 -0.1157
  363MOL    C9944263   6.984   7.226   1.568 -0.8573  0.5779  0.3302
  363MOL   H10044264   6.872   7.100   1.710 -0.0535  0.2229 -0.8290
  363MOL   H10144265   6.807   7.262   1.682 -0.9395 -1.3047  0.0344
  363MOL   H10244266   7.011   7.331   1.566 -0.3183  0.4250 -1.5374
  363MOL   H10344267   7.076   7.171   1.589 -1.1045 -0.0865 -0.2798
  363MOL   C10444268   6.905   7.185   1.443 -0.3024  0.2796  1.0122
  363MOL   C10544269   6.989   7.203   1.316  0.7954 -0.6090  0.2865
  363MOL   H10644270   6.867   7.083   1.449  0.7347 -0.3986 -2.7237
  363MOL   H10744271   6.818   7.250   1.441  0.6924  1.6661  2.3128
  363MOL   H10844272   6.982   7.308   1.290 -1.0467 -0.2263  2.2161
  363MOL   H10944273   7.097   7.205   1.331  0.5965  1.0341  1.5476
  363MOL   C11044274   6.949   7.106   1.201 -0.5528 -0.4612 -0.3471
  363MOL   C11144275   6.985   7.155   1.054  0.3317  0.6341 -0.1254
  363MOL   H11244276   6.995   7.010   1.226  1.2576  0.3463 -0.4442
  363MOL   H11344277   6.842   7.088   1.205 -0.7206  0.9022  3.1984
  363MOL   H11444278   6.922   7.242   1.039 -0.3540  0.0413 -0.7059
  363MOL   H11544279   7.086   7.196   1.049  1.8924 -2.8574  0.6747
  363MOL   C11644280   6.968   7.056   0.939 -0.6738  0.6753  0.3223
  363MOL   C11744281   6.828   6.984   0.931  0.1460  0.1479  0.6005
  363MOL   H11844282   6.983   7.103   0.842  2.7464  0.1575  0.5226
  363MOL   H11944283   7.043   6.977   0.948 -0.9411 -0.0567 -3.1199
  363MOL   H12044284   6.803   6.898   0.993 -0.4212 -0.1667 -0.0693
  363MOL   H12144285   6.747   7.054   0.950  0.0695 -0.0926  1.1748
  363MOL   H12244286   6.826   6.929   0.838 -1.4835  1.2418 -0.0285
  364MOL     C144287   6.094   6.786   3.426  0.0169 -0.3556  0.4106
  364MOL     C244288   6.029   6.908   3.370 -0.2661  0.8924  1.2355
  364MOL     H344289   6.127   6.803   3.529  0.9509  0.6399 -0.0412
  364MOL     H444290   6.170   6.749   3.358 -0.3642  0.4946 -0.4817
  364MOL     H544291   6.044   6.992   3.439 -1.4199  1.6761  0.5561
  364MOL     H644292   6.078   6.933   3.276  1.3238 -0.5137  1.6729
  364MOL     H744293   6.018   6.708   3.431 -1.0376  0.6495  0.6231
  364MOL     C844294   5.877   6.890   3.369  0.3667 -0.7914  0.1111
  364MOL     C944295   5.801   7.016   3.323  0.0999 -0.5115 -0.0635
  364MOL    H1044296   5.846   6.808   3.305 -0.5024 -1.1631  0.9893
  364MOL    H1144297   5.845   6.863   3.470  0.6826  1.8887  0.9678
  364MOL    H1244298   5.833   7.102   3.381 -0.3083 -0.3607 -0.0661
  364MOL    H1344299   5.827   7.044   3.220  1.9593 -3.4766 -0.4579
  364MOL    C1444300   5.648   7.001   3.319 -0.0408  0.0058 -0.0055
  364MOL    C1544301   5.584   7.124   3.271 -0.3737 -0.0219  0.6955
  364MOL    H1644302   5.621   6.917   3.255 -0.2875 -0.7989  1.1551
  364MOL    H1744303   5.609   6.974   3.417  0.6394  0.9235  0.5285
  364MOL    H1844304   5.630   7.210   3.319 -1.1064  0.8550 -0.1323
  364MOL    H1944305   5.610   7.140   3.166  0.4198  0.7868  1.0101
  364MOL    C2044306   5.433   7.128   3.282  0.8536  0.0981  0.0920
  364MOL    C2144307   5.372   7.263   3.234 -0.1107  0.6016 -0.2298
  364MOL    H2244308   5.387   7.048   3.223 -1.0525 -1.5594  3.6481
  364MOL    H2344309   5.410   7.112   3.387  2.5097 -1.4361  0.2506
  364MOL    H2444310   5.414   7.341   3.298  0.6746  0.8700 -1.0601
  364MOL    H2544311   5.391   7.296   3.132 -0.8711  1.6018 -0.0589
  364MOL    C2644312   5.219   7.268   3.249  0.4241  0.4804 -0.1740
  364MOL    C2744313   5.168   7.400   3.181 -0.1542 -0.2954  0.1674
  364MOL    H2844314   5.163   7.183   3.209 -1.5930  2.3663 -1.4374
  364MOL    H2944315   5.196   7.271   3.356 -0.8782  2.5721 -0.4890
  364MOL    H3044316   5.218   7.493   3.207 -2.1824  1.2999 -1.4494
  364MOL    H3144317   5.208   7.384   3.081 -0.5266  1.2377 -0.2453
  364MOL    C3244318   5.018   7.411   3.184  0.2629 -0.4909 -0.6810
  364MOL    C3344319   4.963   7.513   3.078  0.6708 -0.6429  0.2212
  364MOL    H3444320   4.964   7.316   3.182 -0.4443 -0.3057  3.8692
  364MOL    H3544321   4.996   7.441   3.287 -2.5598 -1.1629 -1.0544
  364MOL    H3644322   5.014   7.607   3.098  1.3310 -1.3605  1.9713
  364MOL    H3744323   5.012   7.485   2.984  0.6427 -0.4306  0.1445
  364MOL    C3844324   4.811   7.507   3.067 -0.2544 -0.2226 -0.1670
  364MOL    C3944325   4.756   7.593   2.947 -0.6729  0.1895 -0.4680
  364MOL    H4044326   4.783   7.402   3.060  0.4066 -0.5045  1.2357
  364MOL    H4144327   4.771   7.547   3.161  2.5409 -0.8161  1.3279
  364MOL    H4244328   4.652   7.610   2.974 -0.5429 -0.8851  0.7652
  364MOL    H4344329   4.810   7.687   2.936 -0.1446 -0.3286 -2.5084
  364MOL    C4444330   4.773   7.523   2.812  0.3819  0.5022  0.1604
  364MOL    C4544331   4.735   7.617   2.698 -0.4002 -0.1257 -0.2490
  364MOL    H4644332   4.877   7.495   2.792  0.1413  1.0692 -2.0085
  364MOL    H4744333   4.721   7.428   2.808  4.5797 -1.8332 -4.7024
  364MOL    H4844334   4.637   7.656   2.724  0.0553  0.1802  0.9988
  364MOL    H4944335   4.810   0.003   2.687  0.6259 -1.0061  0.4240
  364MOL    C5044336   4.723   7.548   2.567  0.3841  0.1701 -0.0617
  364MOL    C5144337   4.861   7.536   2.482  0.9088  0.1332  0.3602
  364MOL    H5244338   4.669   7.454   2.562 -0.6690  0.7967 -0.6601
  364MOL    H5344339   4.644   7.591   2.506  0.9661  1.2395 -0.0898
  364MOL    H5444340   4.911   7.630   2.505  0.4060  0.6429 -0.6083
  364MOL    H5544341   4.930   7.456   2.510  2.6235  0.7614 -1.8899
  364MOL    C5644342   4.845   7.534   2.330 -0.2271  0.2447 -0.8137
  364MOL    C5744343   4.978   7.535   2.241 -0.6127  0.0808 -0.4888
  364MOL    H5844344   4.783   7.451   2.297 -0.0406 -0.1358 -0.2114
  364MOL    H5944345   4.778   7.615   2.302  1.5522  2.0645  0.0207
  364MOL    H6044346   5.032   7.623   2.275 -1.5279 -0.0671  1.4361
  364MOL    H6144347   5.041   7.455   2.281 -0.4801  0.7762  0.7239
  364MOL    C6244348   4.960   7.527   2.091 -0.2484  0.4222  0.4557
  364MOL    C6344349   5.096   7.533   2.021  0.1095  0.0308  0.2655
  364MOL    H6444350   4.909   7.434   2.070  2.6234 -0.6247 -2.2258
  364MOL    H6544351   4.903   7.613   2.056  0.0486 -0.1127 -1.3882
  364MOL    H6644352   5.167   7.461   2.061 -0.8003 -0.7244  0.5357
  364MOL    H6744353   5.074   7.494   1.922 -1.8217 -1.9769  1.4417
  364MOL    C6844354   5.139   7.681   2.003 -0.6280  0.1586  0.0134
  364MOL    C6944355   5.272   0.020   2.072 -1.0069 -0.0611  0.2247
  364MOL    H7044356   5.145   7.691   1.895 -0.2241 -0.1796  0.0032
  364MOL    H7144357   5.055   0.056   2.021  0.6670  1.9164 -0.2775
  364MOL    H7244358   5.274   7.666   2.171 -0.3108 -0.1467  0.1705
  364MOL    H7344359   5.351   7.663   2.014 -1.3671 -1.9626  1.2788
  364MOL    C7444360   5.290   0.174   2.079  0.7899  0.0644 -0.3084
  364MOL    C7544361   5.416   0.230   2.153 -0.0801 -0.7522 -0.1500
  364MOL    H7644362   5.293   0.211   1.976  0.7826  0.9645  0.0057
  364MOL    H7744363   5.199   0.226   2.111  0.5391 -0.4301 -0.2173
  364MOL    H7844364   5.501   0.205   2.091 -0.7926 -2.9932 -0.2721
  364MOL    H7944365   5.421   0.338   2.141  0.5231 -0.6648  0.8689
  364MOL    C8044366   5.434   0.191   2.300  0.5413 -0.5126 -0.8098
  364MOL    C8144367   5.525   0.288   2.379  0.4198  0.1350  0.1306
  364MOL    H8244368   5.336   0.205   2.345  1.7829  0.0225  1.8500
  364MOL    H8344369   5.453   0.086   2.319 -0.3110 -0.3457  1.1236
  364MOL    H8444370   5.631   0.286   2.351  0.1262  0.2653 -1.0226
  364MOL    H8544371   5.506   0.388   2.341  2.1981  0.0626 -1.0465
  364MOL    C8644372   5.509   0.276   2.526  0.0954  0.7445 -0.0259
  364MOL    C8744373   5.594   0.371   2.620 -0.8053 -0.0675 -0.2732
  364MOL    H8844374   5.402   0.285   2.543 -0.4289 -3.6237 -0.2857
  364MOL    H8944375   5.538   0.175   2.557 -0.1153  0.8805  0.6310
  364MOL    H9044376   5.693   0.325   2.621 -0.9499 -0.5207 -2.5502
  364MOL    H9144377   5.625   0.463   2.570  1.2526 -1.9609 -2.6834
  364MOL    C9244378   5.530   0.388   2.755  0.3888  0.0893 -0.0950
  364MOL    C9344379   5.609   0.473   2.862  0.0910  0.4721  0.2643
  364MOL    H9444380   5.429   0.426   2.738 -0.0277 -0.9540  0.0600
  364MOL    H9544381   5.512   0.285   2.784 -0.1991  0.1588 -0.2072
  364MOL    H9644382   5.706   0.425   2.873 -0.5088 -1.3070 -1.7347
  364MOL    H9744383   5.612   0.572   2.816  0.4626  2.1752  3.7635
  364MOL    C9844384   5.526   0.486   2.993 -0.2407  0.2030 -0.2080
  364MOL    C9944385   5.596   0.586   3.082  0.5492 -0.3947 -0.5479
  364MOL   H10044386   5.423   0.514   2.975 -0.0136  1.8614  0.9443
  364MOL   H10144387   5.529   0.389   3.042  0.3956 -0.0736 -0.7862
  364MOL   H10244388   5.688   0.542   3.120  1.7622  1.3623 -1.4175
  364MOL   H10344389   5.617   0.681   3.032 -1.7439  0.1172 -0.6083
  364MOL   C10444390   5.509   0.621   3.207  0.8118 -0.1387  0.1083
  364MOL   C10544391   5.583   0.695   3.318  0.1617 -0.0522 -0.1822
  364MOL   H10644392   5.420   0.673   3.172  0.9714 -1.6832 -2.6957
  364MOL   H10744393   5.477   0.530   3.258  1.5195 -2.4218 -3.4300
  364MOL   H10844394   5.651   0.627   3.370 -0.2221 -0.3985 -0.1301
  364MOL   H10944395   5.644   0.776   3.276 -1.4662  0.3137 -1.9120
  364MOL   C11044396   5.492   0.756   3.433 -0.0770 -0.0531 -0.2638
  364MOL   C11144397   5.575   0.815   3.550  0.1138  0.3901 -0.7615
  364MOL   H11244398   5.415   0.823   3.394 -1.9047 -0.7575  1.9998
  364MOL   H11344399   5.438   0.673   3.480 -1.2316  1.8664  1.8894
  364MOL   H11444400   5.620   0.726   3.593 -0.8136 -0.0225 -0.6269
  364MOL   H11544401   5.651   0.883   3.511  0.7416 -0.2103 -0.5761
  364MOL   C11644402   5.502   0.899   3.657  0.3368  0.0193 -0.2644
  364MOL   C11744403   5.387   0.827   3.727 -0.2051 -0.3467 -0.7394
  364MOL   H11844404   5.573   0.938   3.730  1.3520 -2.5411  0.1724
  364MOL   H11944405   5.463   0.981   3.597 -0.5353 -1.2927 -1.5061
  364MOL   H12044406   5.336   0.883   3.806  1.5914  0.4136 -0.1004
  364MOL   H12144407   5.309   0.813   3.652 -0.4717 -2.6548 -0.0716
  364MOL   H12244408   5.424   0.732   3.764 -2.1568 -1.2227 -0.9482
  365MOL     C144409   2.637   5.776   6.182  0.5331 -0.0718 -0.2221
  365MOL     C244410   2.624   5.714   6.038  0.6265 -0.2963 -0.7058
  365MOL     H344411   2.710   5.726   6.245  1.2558  1.0161 -0.1779
  365MOL     H444412   2.541   5.773   6.233  0.9362  0.5484  0.5780
  365MOL     H544413   2.547   5.773   5.988 -1.0717 -2.2594 -0.4695
  365MOL     H644414   2.710   5.744   5.979 -0.9187  4.2934 -0.8347
  365MOL     H744415   2.649   5.884   6.174 -2.7259  0.5438  2.1895
  365MOL     C844416   2.617   5.558   6.040 -0.6666  0.1627 -0.9373
  365MOL     C944417   2.602   5.503   5.899  0.9352 -0.1014  0.2140
  365MOL    H1044418   2.708   5.519   6.085  0.9304  1.5109 -2.9230
  365MOL    H1144419   2.535   5.537   6.108 -0.6505  0.7787 -0.7253
  365MOL    H1244420   2.498   5.511   5.868  0.3593  0.0832  2.1744
  365MOL    H1344421   2.653   5.576   5.835 -3.7474  2.9515 -0.2556
  365MOL    C1444422   2.650   5.363   5.878  0.3858 -0.5426 -0.3100
  365MOL    C1544423   2.652   5.321   5.736 -0.2662  0.4098 -0.0741
  365MOL    H1644424   2.755   5.351   5.903  0.3613 -1.4831 -0.6185
  365MOL    H1744425   2.596   5.291   5.941  2.9660 -1.3926  0.9711
  365MOL    H1844426   2.690   5.393   5.662  0.0916  0.6845  0.3751
  365MOL    H1944427   2.725   5.241   5.726 -0.1251  0.5517 -0.1886
  365MOL    C2044428   2.520   5.263   5.689  0.3453  0.1224  0.2946
  365MOL    C2144429   2.526   5.179   5.558  0.4719 -0.2090 -0.8450
  365MOL    H2244430   2.483   5.197   5.767  2.3578 -1.8107 -0.3078
  365MOL    H2344431   2.457   5.350   5.677  1.7525  0.9288 -1.6821
  365MOL    H2444432   2.606   5.220   5.496 -0.0692  1.8916 -0.2026
  365MOL    H2544433   2.552   5.076   5.584 -1.0379 -0.3143  0.3245
  365MOL    C2644434   2.401   5.192   5.472 -0.2169  0.2017  0.3852
  365MOL    C2744435   2.401   5.096   5.349 -0.3823 -0.1741 -1.2364
  365MOL    H2844436   2.309   5.175   5.527 -2.4735  1.7491 -2.7703
  365MOL    H2944437   2.409   5.295   5.438 -1.7629  0.3061  0.2983
  365MOL    H3044438   2.480   5.120   5.278  0.8930  1.7300  0.7400
  365MOL    H3144439   2.421   5.002   5.402 -1.4132  0.7279  0.8155
  365MOL    C3244440   2.271   5.089   5.259  0.1872 -0.3731 -0.3778
  365MOL    C3344441   2.280   4.965   5.166  0.8937  0.5181  0.4812
  365MOL    H3444442   2.191   5.074   5.331  0.8413  0.3899  0.5179
  365MOL    H3544443   2.255   5.183   5.206 -0.1826 -0.9997 -1.3878
  365MOL    H3644444   2.373   4.967   5.110 -0.0227 -0.8777 -1.1481
  365MOL    H3744445   2.276   4.874   5.227 -0.2137 -1.5551 -2.5740
  365MOL    C3844446   2.169   4.966   5.058 -0.2036 -0.5010 -0.0244
  365MOL    C3944447   2.172   4.843   4.964 -0.4623 -0.2799  0.0425
  365MOL    H4044448   2.071   4.988   5.099  0.4569 -0.5539  1.5993
  365MOL    H4144449   2.191   5.051   4.992 -1.6189  0.0021  0.1425
  365MOL    H4244450   2.097   4.852   4.885 -1.2318 -2.1813  0.5107
  365MOL    H4344451   2.269   4.832   4.917  0.5680 -1.7960  2.4166
  365MOL    C4444452   2.140   4.713   5.034  0.1952  0.2780 -0.6524
  365MOL    C4544453   2.082   4.599   4.950  0.5770  0.7608 -0.0125
  365MOL    H4644454   2.213   4.666   5.099 -2.4543 -2.6133  0.3782
  365MOL    H4744455   2.059   4.731   5.104  1.1189  0.8761  0.2752
  365MOL    H4844456   2.040   4.523   5.015  1.6592 -2.1704 -2.6050
  365MOL    H4944457   1.994   4.636   4.897 -0.7582 -1.7854  0.3582
  365MOL    C5044458   2.186   4.533   4.861 -0.5247  0.9899  0.5419
  365MOL    C5144459   2.115   4.428   4.766  0.7525  0.8597 -0.6720
  365MOL    H5244460   2.238   4.606   4.798  0.2042 -0.6192 -0.7657
  365MOL    H5344461   2.270   4.489   4.915 -0.2023  2.2286  1.0783
  365MOL    H5444462   2.059   4.357   4.827  1.6823  1.0635  0.4211
  365MOL    H5544463   2.039   4.477   4.705  0.1645 -0.2212 -0.8219
  365MOL    C5644464   2.216   4.353   4.691  0.0755 -0.9516 -0.3441
  365MOL    C5744465   2.153   4.266   4.589 -0.0440 -0.7654  0.3279
  365MOL    H5844466   2.283   4.432   4.657 -0.4023 -0.0951  0.6673
  365MOL    H5944467   2.272   4.291   4.761  0.2715 -1.1043 -0.6335
  365MOL    H6044468   2.086   4.191   4.630 -1.2850 -0.3610 -0.9236
  365MOL    H6144469   2.094   4.339   4.532  0.9053 -0.3709 -0.1741
  365MOL    C6244470   2.259   4.194   4.505  0.1235  0.2634 -0.2489
  365MOL    C6344471   2.190   4.109   4.393 -0.2125 -0.8398 -0.5347
  365MOL    H6444472   2.335   4.266   4.473 -1.6362  2.5066  0.4621
  365MOL    H6544473   2.307   4.120   4.570 -2.0988  0.4818  1.7022
  365MOL    H6644474   2.114   4.040   4.430  0.8382 -2.0743 -0.6246
  365MOL    H6744475   2.137   4.176   4.325 -1.6185 -1.0177  0.3561
  365MOL    C6844476   2.293   4.025   4.312 -0.0301  0.0090 -0.1904
  365MOL    C6944477   2.225   3.945   4.201  0.4477 -0.4345 -0.6318
  365MOL    H7044478   2.374   4.087   4.274 -1.8756  2.1434 -0.7428
  365MOL    H7144479   2.347   3.954   4.375  1.8749  0.3390 -1.4243
  365MOL    H7244480   2.146   3.876   4.233  2.0719 -2.4947 -0.9260
  365MOL    H7344481   2.179   4.019   4.136 -0.1811  1.3744  1.7972
  365MOL    C7444482   2.315   3.852   4.116 -0.0467 -0.0001  0.4005
  365MOL    C7544483   2.359   3.717   4.195  0.0866 -0.1840 -0.1256
  365MOL    H7644484   2.258   3.820   4.029 -1.3036 -1.3277  1.6584
  365MOL    H7744485   2.403   3.904   4.080 -0.7430  0.7502 -0.2301
  365MOL    H7844486   2.451   3.744   4.248  0.5254 -0.8295 -0.5407
  365MOL    H7944487   2.285   3.676   4.263  1.2505 -2.3879 -0.1431
  365MOL    C8044488   2.386   3.591   4.101 -0.7288  0.0671  0.0954
  365MOL    C8144489   2.428   3.459   4.175 -0.7014  0.1005 -0.4240
  365MOL    H8244490   2.289   3.572   4.055 -1.8698  1.4420  1.8533
  365MOL    H8344491   2.457   3.614   4.022 -0.8063 -2.0058 -0.6067
  365MOL    H8444492   2.507   3.487   4.245 -1.4027  1.8214 -0.2806
  365MOL    H8544493   2.346   3.422   4.236  0.3823 -0.2905  0.8048
  365MOL    C8644494   2.460   3.339   4.080  0.6582  0.1178  0.0723
  365MOL    C8744495   2.597   3.356   4.019  0.5797 -0.0453 -0.5241
  365MOL    H8844496   2.458   3.242   4.129  0.7129 -1.0618 -2.2089
  365MOL    H8944497   2.380   3.324   4.007  2.4849 -4.3076 -1.2104
  365MOL    H9044498   2.592   3.438   3.947  1.4125 -0.5498 -1.1687
  365MOL    H9144499   2.658   3.396   4.100  1.0575 -2.0590  0.1405
  365MOL    C9244500   2.664   3.235   3.963  0.4357 -0.2535  0.0760
  365MOL    C9344501   2.595   3.159   3.846 -0.7573 -0.1493  0.0356
  365MOL    H9444502   2.765   3.259   3.932  0.8138 -1.7182  0.1495
  365MOL    H9544503   2.679   3.163   4.043  1.0004  0.6690  0.8120
  365MOL    H9644504   2.507   3.104   3.879 -1.0176  0.9759  1.2269
  365MOL    H9744505   2.569   3.230   3.767 -2.3440 -0.1146  0.5747
  365MOL    C9844506   2.706   3.061   3.788  0.2532 -0.8979 -0.1301
  365MOL    C9944507   2.658   2.971   3.669 -0.0735 -1.0038  0.6326
  365MOL   H10044508   2.793   3.120   3.761  1.9521 -2.6342  1.3941
  365MOL   H10144509   2.746   3.002   3.870  0.1814 -0.2728  0.3564
  365MOL   H10244510   2.608   3.042   3.603 -0.0345 -1.8378 -0.2993
  365MOL   H10344511   2.754   2.944   3.626 -1.2555 -1.8189 -1.5476
  365MOL   C10444512   2.580   2.849   3.706 -0.1173 -0.5627  0.2497
  365MOL   C10544513   2.507   2.803   3.578 -0.2956  0.2969  0.1570
  365MOL   H10644514   2.646   2.767   3.734 -0.7709 -0.8217  1.0651
  365MOL   H10744515   2.507   2.861   3.786 -1.5051 -2.7762 -0.6599
  365MOL   H10844516   2.580   2.788   3.498  1.0216  0.8063  1.2473
  365MOL   H10944517   2.482   2.700   3.600  0.0838 -0.3740 -2.3517
  365MOL   C11044518   2.378   2.872   3.533 -0.2825 -0.4304 -0.8220
  365MOL   C11144519   2.293   2.792   3.438  0.4061  0.0444 -0.0294
  365MOL   H11244520   2.327   2.892   3.627  1.8382  0.4938  0.1630
  365MOL   H11344521   2.408   2.966   3.486  0.2890  0.4613  1.2584
  365MOL   H11444522   2.365   2.752   3.366 -1.1002  0.1139 -1.6012
  365MOL   H11544523   2.239   2.713   3.490  1.8788  0.8054  2.7866
  365MOL   C11644524   2.184   2.881   3.383  0.1026 -1.0109  0.4167
  365MOL   C11744525   2.109   2.806   3.269  0.0393 -0.3282  0.3463
  365MOL   H11844526   2.113   2.905   3.462  0.7029  2.4839 -0.0268
  365MOL   H11944527   2.218   2.980   3.353  0.6055 -1.4126 -0.3924
  365MOL   H12044528   2.026   2.868   3.234  0.5510  1.7141  2.6403
  365MOL   H12144529   2.183   2.796   3.190 -0.1001 -1.9394  0.4038
  365MOL   H12244530   2.072   2.704   3.284 -0.4193  0.0981  2.3437
  366MOL     C144531   4.248   0.971   3.764  0.6969 -0.0695 -0.9766
  366MOL     C244532   4.267   0.988   3.618 -0.6564  0.0552 -0.9910
  366MOL     H344533   4.227   1.062   3.819  1.3004 -0.4266 -0.1327
  366MOL     H444534   4.330   0.909   3.801  0.0866  0.5055  1.4318
  366MOL     H544535   4.333   1.071   3.595 -1.2957  0.0867 -2.7513
  366MOL     H644536   4.326   0.901   3.590 -2.3746 -1.9923  1.4920
  366MOL     H744537   4.157   0.911   3.771  0.6333  0.2191  0.7775
  366MOL     C844538   4.138   1.008   3.536 -1.0186 -0.2781 -0.2828
  366MOL     C944539   4.070   1.142   3.570  0.0230  0.0217  0.3417
  366MOL    H1044540   4.172   1.006   3.433 -0.8047 -1.2140 -0.2038
  366MOL    H1144541   4.070   0.923   3.545  0.1608 -1.3955 -1.7235
  366MOL    H1244542   4.054   1.149   3.677  1.2863 -1.1009  0.6171
  366MOL    H1344543   4.138   1.224   3.547 -1.5233  1.8998  2.2309
  366MOL    C1444544   3.930   1.151   3.509  0.4730 -0.0943  0.3908
  366MOL    C1544545   3.873   1.287   3.543 -0.6245  0.1803  0.1795
  366MOL    H1644546   3.931   1.135   3.401 -0.0223 -0.7329  0.4798
  366MOL    H1744547   3.876   1.067   3.551 -0.5798  0.7512  0.7576
  366MOL    H1844548   3.889   1.312   3.648  2.1095 -0.6800 -0.0088
  366MOL    H1944549   3.910   1.365   3.477 -0.8928  1.7241  1.8280
  366MOL    C2044550   3.717   1.294   3.516  0.3502  0.1951 -0.6277
  366MOL    C2144551   3.642   1.411   3.585  0.2225 -0.4703  0.0412
  366MOL    H2244552   3.702   1.298   3.408  1.5230 -1.2172 -0.8583
  366MOL    H2344553   3.671   1.205   3.560  0.4194 -0.0709 -1.0902
  366MOL    H2444554   3.663   1.419   3.692 -0.9700 -2.0640  0.4126
  366MOL    H2544555   3.680   1.504   3.543 -1.9598  0.4828  0.0483
  366MOL    C2644556   3.486   1.420   3.571 -0.4681  0.0762 -0.9202
  366MOL    C2744557   3.428   1.540   3.636  0.0892 -0.5731 -0.0893
  366MOL    H2844558   3.464   1.429   3.464 -0.8752 -1.6019 -0.9888
  366MOL    H2944559   3.440   1.326   3.600  0.5803  0.1354  0.9718
  366MOL    H3044560   3.448   1.536   3.743 -0.1903 -0.1341 -0.0199
  366MOL    H3144561   3.491   1.622   3.604  1.5980 -1.9017 -0.6192
  366MOL    C3244562   3.283   1.587   3.614  0.4194 -1.0466 -0.1216
  366MOL    C3344563   3.266   1.736   3.632 -0.6444 -0.3768 -0.2004
  366MOL    H3444564   3.246   1.565   3.514 -0.7227  1.5095 -0.2886
  366MOL    H3544565   3.215   1.534   3.681 -0.9416  0.0656 -0.5843
  366MOL    H3644566   3.312   1.776   3.723 -0.1343  0.7382 -0.9363
  366MOL    H3744567   3.322   1.777   3.548  3.9016 -1.5753  2.0785
  366MOL    C3844568   3.128   1.801   3.616  0.4531 -0.1907  0.7850
  366MOL    C3944569   3.133   1.959   3.616  0.1020  0.2268  0.1250
  366MOL    H4044570   3.095   1.772   3.516 -1.1524 -1.3851  1.6397
  366MOL    H4144571   3.048   1.758   3.677 -1.4253  2.4004  0.1797
  366MOL    H4244572   3.145   1.999   3.717 -0.7554  1.4432 -0.2452
  366MOL    H4344573   3.223   1.977   3.558 -0.7756 -0.7988 -1.6100
  366MOL    C4444574   3.016   2.024   3.542  0.7685  0.1185  0.0381
  366MOL    C4544575   3.019   2.181   3.560 -0.2114  0.3560  0.4763
  366MOL    H4644576   3.025   1.999   3.436  2.1347  1.0627 -0.0914
  366MOL    H4744577   2.918   1.990   3.573  0.9264 -2.1324 -1.8307
  366MOL    H4844578   2.953   2.206   3.643  0.0176  0.2731  0.6826
  366MOL    H4944579   3.122   2.196   3.591  0.6213 -1.2999 -1.3895
  366MOL    C5044580   2.974   2.257   3.431 -0.6868 -0.1772  1.1021
  366MOL    C5144581   2.976   2.411   3.447 -0.2951  0.1687  0.5402
  366MOL    H5244582   3.047   2.233   3.353 -0.2943 -0.4080  1.5397
  366MOL    H5344583   2.876   2.228   3.393  0.1562 -0.7941 -0.6580
  366MOL    H5444584   2.926   2.449   3.536 -0.7481  2.9984 -0.8993
  366MOL    H5544585   3.082   2.437   3.458  0.2053 -1.3484 -0.5185
  366MOL    C5644586   2.938   2.488   3.316  0.4583 -0.0720 -0.0760
  366MOL    C5744587   2.936   2.640   3.334  0.3461  0.1388  0.0423
  366MOL    H5844588   3.020   2.449   3.255  1.4872 -0.2030  1.3765
  366MOL    H5944589   2.846   2.455   3.268  0.3731  1.7564 -1.2171
  366MOL    H6044590   2.860   2.655   3.411  0.7878  0.8823  0.3338
  366MOL    H6144591   3.034   2.662   3.376  0.3734  0.3720 -0.1392
  366MOL    C6244592   2.906   2.720   3.207 -0.1876 -0.0215 -0.2207
  366MOL    C6344593   2.944   2.870   3.213 -0.0782  0.0340 -0.2861
  366MOL    H6444594   2.954   2.669   3.124 -2.8503  1.5844 -2.8554
  366MOL    H6544595   2.799   2.705   3.193 -0.6046  0.7046  1.8619
  366MOL    H6644596   3.053   2.879   3.220  0.3149 -1.7351 -3.1382
  366MOL    H6744597   2.913   2.915   3.119  0.1212  1.9060  0.5371
  366MOL    C6844598   2.871   2.960   3.320  0.4576 -0.5473  0.4315
  366MOL    C6944599   2.958   3.086   3.345  0.2338 -0.0862 -0.0721
  366MOL    H7044600   2.774   2.994   3.284  2.1058  2.8260 -0.9708
  366MOL    H7144601   2.851   2.906   3.413  0.7850 -0.1745  0.7196
  366MOL    H7244602   3.061   3.058   3.368  0.9669  2.8043  0.2887
  366MOL    H7344603   2.958   3.141   3.251 -1.6637 -0.5148 -0.3430
  366MOL    C7444604   2.910   3.161   3.462  0.1379 -1.0079  0.4465
  366MOL    C7544605   2.961   3.303   3.474  0.2834 -0.3044  0.3076
  366MOL    H7644606   2.802   3.168   3.476  0.1026 -0.3898 -0.1368
  366MOL    H7744607   2.959   3.109   3.545 -0.5077  1.9244  2.7388
  366MOL    H7844608   2.926   3.353   3.384 -0.5573 -0.8050  0.3502
  366MOL    H7944609   2.911   3.358   3.554  1.4928 -0.7276  1.3748
  366MOL    C8044610   3.114   3.318   3.494  0.1168 -0.2045 -0.0201
  366MOL    C8144611   3.162   3.452   3.556  0.5190  0.2293  0.5739
  366MOL    H8244612   3.149   3.238   3.559 -0.7325 -1.2907 -0.8880
  366MOL    H8344613   3.161   3.305   3.397 -1.9089 -0.1880 -1.0315
  366MOL    H8444614   3.139   3.531   3.484 -1.4492 -0.4667  0.4181
  366MOL    H8544615   3.098   3.483   3.638  0.5883  2.4034 -0.1427
  366MOL    C8644616   3.312   3.441   3.588 -0.6387  0.4023  0.2325
  366MOL    C8744617   3.361   3.560   3.666  0.4483  0.0724 -0.5120
  366MOL    H8844618   3.330   3.350   3.645  0.7840  1.2959  1.2533
  366MOL    H8944619   3.355   3.436   3.488 -1.7733 -0.6693 -0.2007
  366MOL    H9044620   3.354   3.650   3.606 -1.1982  0.1299 -0.2353
  366MOL    H9144621   3.291   3.574   3.748  0.1655  1.2720 -0.9498
  366MOL    C9244622   3.499   3.543   3.725  0.5551 -0.9267  0.4263
  366MOL    C9344623   3.523   3.637   3.839  0.9112 -0.1383  0.1340
  366MOL    H9444624   3.500   3.442   3.765 -1.1162  0.0182  3.0000
  366MOL    H9544625   3.579   3.560   3.653  0.1482  0.1984  0.2322
  366MOL    H9644626   3.515   3.737   3.797  2.7334  0.4270  1.0839
  366MOL    H9744627   3.451   3.618   3.919  0.2428  1.2569 -0.1112
  366MOL    C9844628   3.667   3.628   3.901 -0.1034 -0.3333 -0.3839
  366MOL    C9944629   3.699   3.497   3.977  0.1048  0.1160  0.1865
  366MOL   H10044630   3.750   3.642   3.831  0.5726  2.1395  0.8550
  366MOL   H10144631   3.682   3.709   3.972  0.9688 -0.3443 -0.5932
  366MOL   H10244632   3.650   3.496   4.075 -0.5979  2.3531 -0.1237
  366MOL   H10344633   3.654   3.408   3.934 -1.3132  0.5790  0.6905
  366MOL   C10444634   3.849   3.472   3.995 -0.9111  0.0670 -0.1817
  366MOL   C10544635   3.887   3.342   4.068 -0.0158  0.4348  0.1414
  366MOL   H10644636   3.901   3.467   3.898 -1.6438 -1.6071 -0.5113
  366MOL   H10744637   3.890   3.556   4.051  1.3801 -0.6544 -0.6928
  366MOL   H10844638   3.837   3.331   4.164 -0.8298 -0.1128 -0.3474
  366MOL   H10944639   3.846   3.253   4.022  1.7873 -0.9397  1.1138
  366MOL   C11044640   4.038   3.310   4.082  0.1742 -0.1012  0.1376
  366MOL   C11144641   4.084   3.171   4.132  0.6239  0.7808  0.1740
  366MOL   H11244642   4.093   3.340   3.993 -0.2926 -0.2929 -0.2186
  366MOL   H11344643   4.069   3.378   4.162  3.1868 -1.3819  0.1284
  366MOL   H11444644   4.021   3.131   4.211 -2.0064  2.6835 -0.8905
  366MOL   H11544645   4.078   3.092   4.057  0.5745  0.6845  0.2794
  366MOL   C11644646   4.229   3.170   4.178  0.3811 -0.3135 -0.6454
  366MOL   C11744647   4.299   3.032   4.168 -0.1127 -0.1303 -0.2305
  366MOL   H11844648   4.282   3.245   4.121 -1.3703  0.4649 -1.2825
  366MOL   H11944649   4.229   3.196   4.284  0.7688 -0.3066 -0.6467
  366MOL   H12044650   4.283   2.981   4.073  0.9263  0.6451 -0.8198
  366MOL   H12144651   4.403   3.045   4.196 -0.6053  1.4690  0.9300
  366MOL   H12244652   4.266   2.961   4.244 -1.4389  1.1111  0.3625
  367MOL     C144653   0.009   0.126   0.297  0.4634 -0.0067  0.0562
  367MOL     C244654   0.009   0.240   0.196  0.4925 -0.7387  0.4901
  367MOL     H344655   7.612   0.136   0.359 -0.3221  2.6685 -1.4526
  367MOL     H444656   0.092   0.138   0.367  0.9376 -0.4080 -0.4246
  367MOL     H544657   7.646   0.320   0.247  0.8826 -0.7302  0.9005
  367MOL     H644658   0.109   0.273   0.167 -0.0577  2.3815  1.8657
  367MOL     H744659   0.011   0.024   0.259 -0.4521  0.5625 -1.5441
  367MOL     C844660   7.617   0.202   0.069  0.3631 -0.0745  0.2993
  367MOL     C944661   7.690   0.111   7.656  0.0627 -0.9237  0.5284
  367MOL    H1044662   7.519   0.161   0.095 -0.5469  2.0791  0.3336
  367MOL    H1144663   7.589   0.297   0.024 -1.6834 -0.4478  0.6846
  367MOL    H1244664   0.084   0.169   7.623  0.8945 -1.1127  2.3038
  367MOL    H1344665   0.023   0.015   0.010  1.3564 -0.6266  0.4576
  367MOL    C1444666   7.616   0.095   7.515 -0.0877 -0.0774  0.0223
  367MOL    C1544667   0.006   7.683   7.429  0.3692  0.6700  0.3805
  367MOL    H1644668   7.516   0.053   7.525 -0.0183 -0.2397  0.0301
  367MOL    H1744669   7.584   0.188   7.469 -1.5687 -1.3440 -1.5662
  367MOL    H1844670   0.104   0.033   7.405 -0.1653  1.2540 -0.8086
  367MOL    H1944671   0.026   7.586   7.475  3.1948  0.9577 -0.1053
  367MOL    C2044672   7.625   7.669   7.293  0.3118  0.4999 -0.2181
  367MOL    C2144673   0.015   7.589   7.193  0.0385  0.1994 -0.0752
  367MOL    H2244674   7.530   7.616   7.301  1.5724 -1.9279 -0.9002
  367MOL    H2344675   7.598   0.074   7.252  0.4248  1.2227  1.3944
  367MOL    H2444676   0.112   7.638   7.182  0.0838 -0.2803 -1.9279
  367MOL    H2544677   0.033   7.488   7.230 -0.8642 -0.2382 -0.8086
  367MOL    C2644678   7.642   7.574   7.057  0.8138  0.2351 -0.5252
  367MOL    C2744679   0.031   7.520   6.942 -0.5473  0.1152  0.8144
  367MOL    H2844680   7.557   7.509   7.077  0.4697  0.2723 -1.8352
  367MOL    H2944681   7.605   7.672   7.025 -0.7165 -0.2198 -0.2016
  367MOL    H3044682   0.103   7.591   6.900  0.4265 -1.4181 -0.1793
  367MOL    H3144683   0.086   7.434   6.979 -0.1261 -0.8316 -1.8588
  367MOL    C3244684   7.628   7.478   6.829  0.1018  0.3754  0.0845
  367MOL    C3344685   0.011   7.435   6.701  0.3695  0.0691  0.5413
  367MOL    H3444686   7.579   7.386   6.862 -0.4621  0.3105 -0.9463
  367MOL    H3544687   7.550   7.554   6.826 -2.6820 -2.2922  1.7490
  367MOL    H3644688   0.090   7.508   6.683  1.3164 -0.3525  2.8068
  367MOL    H3744689   0.053   7.339   6.731  0.7535 -0.0622 -0.3879
  367MOL    C3844690   7.618   7.401   6.581 -0.2165 -0.4286  0.8567
  367MOL    C3944691   0.018   7.360   6.469  0.4343  0.5511  0.8448
  367MOL    H4044692   7.551   7.322   6.615  0.1776 -1.2718 -0.2808
  367MOL    H4144693   7.548   7.479   6.551 -0.4791 -2.0190 -2.9547
  367MOL    H4244694   0.073   7.450   6.442  3.8468 -1.2180  1.6353
  367MOL    H4344695   0.104   7.297   6.491  0.8999 -0.3276 -3.2041
  367MOL    C4444696   7.637   7.309   6.346  0.3545  0.0257  0.6166
  367MOL    C4544697   0.032   7.322   6.222 -0.2565 -0.0567  0.3671
  367MOL    H4644698   7.615   7.206   6.374  0.5220 -0.4666 -1.0006
  367MOL    H4744699   7.540   7.355   6.326  1.1373  1.3779 -0.1876
  367MOL    H4844700   0.048   7.425   6.192 -0.7917 -0.5990 -1.9045
  367MOL    H4944701   0.121   7.259   6.229 -1.0499 -1.3432 -0.6058
  367MOL    C5044702   7.644   7.254   6.107  0.3647  0.7315  0.2347
  367MOL    C5144703   0.022   7.213   5.982 -0.3541 -0.1750  0.1941
  367MOL    H5244704   7.587   7.165   6.135  1.9104 -0.5179 -0.4705
  367MOL    H5344705   7.577   7.331   6.069  0.6229  0.6289 -0.4314
  367MOL    H5444706   0.065   7.308   5.948 -0.6220  0.2004  0.9085
  367MOL    H5544707   0.113   7.157   6.005 -1.4512 -2.0521 -0.0148
  367MOL    C5644708   7.626   7.161   5.868  0.3311  0.1338  0.2596
  367MOL    C5744709   0.026   7.110   5.753  0.4045 -0.4483  0.0218
  367MOL    H5844710   7.556   7.082   5.897 -0.4138  0.1574 -1.4056
  367MOL    H5944711   7.560   7.240   5.833 -0.9578 -0.4250  1.4039
  367MOL    H6044712   0.077   7.197   5.712  2.7980  0.1922  4.1422
  367MOL    H6144713   0.111   7.049   5.784  3.1054  2.0034 -2.2492
  367MOL    C6244714   7.638   7.057   5.628  0.4647 -0.4086 -0.2647
  367MOL    C6344715   0.039   7.035   5.499  1.0163  0.2347 -0.2666
  367MOL    H6444716   7.590   6.966   5.664  3.3974 -2.1517 -0.6181
  367MOL    H6544717   7.554   7.120   5.601 -0.2182 -0.0620  2.5262
  367MOL    H6644718   0.082   7.133   5.481 -1.7192  1.7344  1.0569
  367MOL    H6744719   0.123   6.973   5.531 -0.1800 -0.6405  1.2385
  367MOL    C6844720   7.643   6.975   5.385 -0.1915  0.3263 -0.9169
  367MOL    C6944721   0.033   6.952   5.265  0.4603  0.3579 -0.9417
  367MOL    H7044722   7.590   6.886   5.421  1.4794 -0.1964  0.3010
  367MOL    H7144723   7.565   7.047   5.360 -0.3511  0.0464 -1.2210
  367MOL    H7244724   0.073   7.049   5.234  3.1500  0.0742  1.3875
  367MOL    H7344725   0.125   6.901   5.293  0.1929  0.6903  0.5675
  367MOL    C7444726   7.647   6.872   5.157 -0.0221  0.8276  0.9047
  367MOL    C7544727   0.048   6.837   5.040  0.0741 -0.3885  0.4579
  367MOL    H7644728   7.597   6.785   5.199 -1.0253  0.5781 -0.7527
  367MOL    H7744729   7.562   6.924   5.114  0.4677  0.8462 -0.0608
  367MOL    H7844730   0.096   6.923   4.994  1.3747 -0.5475  1.4695
  367MOL    H7944731   0.130   6.772   5.071  1.5332  2.3286  2.6070
  367MOL    C8044732   7.653   6.753   4.939  0.0887  0.2133  0.2933
  367MOL    C8144733   0.039   6.720   4.809  0.2599 -0.2530  0.0561
  367MOL    H8244734   7.613   6.664   4.987  0.0868  0.6770  1.1771
  367MOL    H8344735   7.563   6.810   4.914 -0.4240 -1.6829 -2.4179
  367MOL    H8444736   0.063   6.815   4.761 -0.7348 -0.0321 -0.0035
  367MOL    H8544737   0.133   6.672   4.836 -0.0633 -0.9589 -0.0558
  367MOL    C8644738   7.651   6.637   4.710 -0.6519  0.2124  0.3814
  367MOL    C8744739   0.047   6.587   4.595 -0.5995  0.5515  0.0326
  367MOL    H8844740   7.606   6.551   4.758  0.2865 -0.7541 -0.4563
  367MOL    H8944741   7.576   6.706   4.671 -0.1284  1.2098  1.0934
  367MOL    H9044742   0.106   6.672   4.560 -1.7087  0.7716 -1.3499
  367MOL    H9144743   0.117   6.515   4.636 -1.1148 -0.3097 -0.5900
  367MOL    C9244744   7.652   6.536   4.487  0.1815  0.1069 -0.3921
  367MOL    C9344745   0.045   6.462   4.377  0.4881 -0.3155  0.5828
  367MOL    H9444746   7.596   6.461   4.543  4.5528 -3.1644 -0.1806
  367MOL    H9544747   7.596   6.622   4.449  1.2860  1.0690  0.1068
  367MOL    H9644748   0.123   6.534   4.353  0.6155  0.1720  2.4271
  367MOL    H9744749   0.085   6.368   4.414 -2.6636 -2.2327 -0.5873
  367MOL    C9844750   7.652   6.440   4.252 -0.6436  0.1869 -0.2662
  367MOL    C9944751   0.026   6.349   4.146 -0.8168 -0.4338 -0.1189
  367MOL   H10044752   7.556   6.399   4.284 -0.3215 -0.8464 -0.6205
  367MOL   H10144753   7.623   6.535   4.207 -0.0379  1.0574  1.1361
  367MOL   H10244754   0.113   6.407   4.117 -1.5442  2.4715  3.2357
  367MOL   H10344755   0.062   6.259   4.197 -0.5908 -0.8786 -1.0468
  367MOL   C10444756   7.631   6.307   4.022 -0.0254  0.3211 -0.1679
  367MOL   C10544757   0.021   6.210   3.927  0.3324 -0.4964 -0.1616
  367MOL   H10644758   7.535   6.258   4.040 -1.6584  2.9657 -1.4875
  367MOL   H10744759   7.600   6.395   3.966 -3.8745 -0.7404  0.1334
  367MOL   H10844760   0.119   6.246   3.897  0.8187 -1.1556  0.6092
  367MOL   H10944761   0.044   6.117   3.979  0.8379 -0.2627  0.0332
  367MOL   C11044762   7.637   6.168   3.798 -0.5599  0.5037  0.8267
  367MOL   C11144763   0.018   6.095   3.691  0.0330  0.7518  0.3822
  367MOL   H11244764   7.540   6.124   3.820 -0.3110 -0.7986 -0.6417
  367MOL   H11344765   7.606   6.267   3.763  1.3866  0.9937  0.4413
  367MOL   H11444766   7.631   6.076   3.618 -0.2980 -1.6817  1.3179
  367MOL   H11544767   0.087   6.166   3.646 -0.5028  0.7305 -0.4965
  367MOL   C11644768   0.080   5.957   3.737 -0.3203  0.2188  0.3869
  367MOL   C11744769   0.143   5.881   3.623 -0.4266 -0.1346 -0.4292
  367MOL   H11844770   0.172   5.970   3.794  1.6032 -0.2183 -2.4726
  367MOL   H11944771   0.023   5.887   3.798  1.6321 -0.3788  1.5687
  367MOL   H12044772   0.109   5.905   3.522 -0.6701  0.5517 -0.1829
  367MOL   H12144773   0.249   5.899   3.603 -0.7139  0.1263 -1.7818
  367MOL   H12244774   0.137   5.772   3.634  1.8138 -0.0011  2.6861
  368MOL     C144775   2.041   5.564   3.125  0.2784 -0.1885 -0.3969
  368MOL     C244776   2.004   5.580   2.977  0.2670 -0.4062 -0.0361
  368MOL     H344777   1.980   5.596   3.209  2.9843  0.5517  1.3335
  368MOL     H444778   2.141   5.607   3.130  0.2303 -0.1689  0.4533
  368MOL     H544779   1.915   5.518   2.965  1.2193 -1.9901  0.9018
  368MOL     H644780   1.970   5.682   2.961  0.8114 -0.3792 -1.0360
  368MOL     H744781   2.047   5.456   3.141  0.9794  0.2227  2.3983
  368MOL     C844782   2.102   5.538   2.871  0.9630  0.1508  0.2707
  368MOL     C944783   2.057   5.588   2.735 -0.6689 -0.3048 -0.0588
  368MOL    H1044784   2.196   5.582   2.903  0.0449  1.0623  1.7809
  368MOL    H1144785   2.111   5.429   2.876  0.1911  0.1988  3.8447
  368MOL    H1244786   1.954   5.561   2.713 -0.5905 -1.7815  1.2880
  368MOL    H1344787   2.059   5.697   2.725 -3.9089 -0.3361 -1.8192
  368MOL    C1444788   2.149   5.530   2.631  0.2824 -0.0022  0.5631
  368MOL    C1544789   2.100   5.395   2.594 -0.7274 -0.4874  0.0802
  368MOL    H1644790   2.160   5.582   2.536  0.5992  0.6908  0.9765
  368MOL    H1744791   2.249   5.521   2.675 -0.2926 -1.5681  1.6004
  368MOL    H1844792   2.062   5.336   2.677 -1.1323 -0.4702 -0.0925
  368MOL    H1944793   2.023   5.425   2.523  0.6068 -1.2591 -1.7422
  368MOL    C2044794   2.209   5.326   2.512 -0.2050 -0.0061 -0.4603
  368MOL    C2144795   2.300   5.257   2.600  0.0509  0.3674  0.1581
  368MOL    H2244796   2.159   5.258   2.444 -0.1640  0.0469 -0.5436
  368MOL    H2344797   2.262   5.394   2.446  2.2487 -1.1054  0.3006
  368MOL    H2444798   2.392   5.259   2.542  0.8133 -0.1299  1.3402
  368MOL    H2544799   2.320   5.308   2.695  2.0577 -2.5157  1.3527
  368MOL    C2644800   2.264   5.103   2.628  0.1975 -0.4734 -0.1399
  368MOL    C2744801   2.314   5.001   2.527  0.4022 -0.5395 -0.5557
  368MOL    H2844802   2.312   5.081   2.724 -0.2568  0.9576  0.4289
  368MOL    H2944803   2.156   5.094   2.623  0.2489 -0.9820 -0.3227
  368MOL    H3044804   2.267   5.015   2.429 -1.2191 -0.7574  0.1703
  368MOL    H3144805   2.422   4.999   2.514  0.6245  0.1635  1.0460
  368MOL    C3244806   2.268   4.863   2.576 -0.3578  0.7783 -0.3963
  368MOL    C3344807   2.314   4.747   2.480 -0.0016  0.0540 -0.0420
  368MOL    H3444808   2.310   4.834   2.673  0.2248  0.3516 -0.7701
  368MOL    H3544809   2.160   4.859   2.585 -0.3769 -0.0167 -0.9559
  368MOL    H3644810   2.285   4.755   2.376 -1.0125 -0.9657  0.1548
  368MOL    H3744811   2.423   4.746   2.473 -0.1196  1.4087 -2.3020
  368MOL    C3844812   2.274   4.611   2.531  0.2693  0.4145 -0.5732
  368MOL    C3944813   2.125   4.574   2.521  0.4816 -1.0739  0.8731
  368MOL    H4044814   2.328   4.532   2.478  3.1071  2.4522 -0.8278
  368MOL    H4144815   2.305   4.603   2.635 -1.0471  0.0814 -0.2068
  368MOL    H4244816   2.066   4.640   2.584  2.2881 -0.7321  2.2496
  368MOL    H4344817   2.094   4.593   2.419 -2.7874  0.4972  2.1125
  368MOL    C4444818   2.089   4.433   2.562 -0.0180 -0.2303  0.2039
  368MOL    C4544819   1.943   4.395   2.539 -0.0220 -0.9331 -0.3512
  368MOL    H4644820   2.150   4.373   2.494 -1.6386  0.7783 -2.2252
  368MOL    H4744821   2.122   4.412   2.664  1.1386  1.9315  0.2986
  368MOL    H4844822   1.921   4.294   2.573  1.4730 -1.9967 -2.3792
  368MOL    H4944823   1.881   4.472   2.586  0.5343  0.7983 -2.3394
  368MOL    C5044824   1.890   4.399   2.395 -0.0535  0.0928  0.0603
  368MOL    C5144825   1.735   4.369   2.390 -0.7371  0.1554  0.1199
  368MOL    H5244826   1.903   4.496   2.346 -1.9688  0.1158 -0.4701
  368MOL    H5344827   1.945   4.328   2.333 -0.3581  1.9225 -2.3944
  368MOL    H5444828   1.722   4.270   2.433 -2.4252  0.6859  0.8738
  368MOL    H5544829   1.670   4.441   2.441 -3.8250 -0.3162 -2.9494
  368MOL    C5644830   1.680   4.343   2.245  0.1759  0.7531  1.1766
  368MOL    C5744831   1.730   4.201   2.192 -0.1119 -0.0874 -0.5576
  368MOL    H5844832   1.571   4.334   2.245  0.1993  0.5127  2.3885
  368MOL    H5944833   1.722   4.421   2.181  0.2451 -1.0770 -1.0666
  368MOL    H6044834   1.835   4.174   2.204 -0.2233 -0.1115  0.4324
  368MOL    H6144835   1.678   4.121   2.243 -0.1397 -0.0261 -0.4889
  368MOL    C6244836   1.704   4.199   2.043  0.1663  0.2980  0.0993
  368MOL    C6344837   1.745   4.068   1.982 -0.2378 -0.3714  0.8171
  368MOL    H6444838   1.597   4.199   2.025  0.1764 -1.6975 -0.0439
  368MOL    H6544839   1.730   4.292   1.991  0.6014 -0.9233 -1.9581
  368MOL    H6644840   1.762   4.080   1.875 -0.7009 -2.5703  0.4798
  368MOL    H6744841   1.844   4.039   2.017  0.4330 -1.1615 -1.5748
  368MOL    C6844842   1.647   3.954   2.013  0.2003  0.5901 -0.2749
  368MOL    C6944843   1.699   3.829   1.946 -0.5694 -0.4148 -0.2180
  368MOL    H7044844   1.635   3.938   2.120  0.7690  1.7193 -0.0341
  368MOL    H7144845   1.555   3.985   1.964  0.0940  0.5033 -0.1288
  368MOL    H7244846   1.721   3.856   1.842 -0.7389  1.5010  0.2175
  368MOL    H7344847   1.801   3.802   1.975  0.6416  3.5898 -0.4280
  368MOL    C7444848   1.615   3.704   1.967  0.3948 -0.4030 -0.3308
  368MOL    C7544849   1.640   3.641   2.106  0.8915  0.4437  0.9128
  368MOL    H7644850   1.507   3.716   1.955  0.2193  0.2660  1.7256
  368MOL    H7744851   1.640   3.628   1.893  1.4314  1.7949 -2.2964
  368MOL    H7844852   1.747   3.642   2.124  0.9303  1.1485  0.6717
  368MOL    H7944853   1.601   3.706   2.185  2.1759  0.9709  1.1267
  368MOL    C8044854   1.584   3.500   2.125  0.0324 -0.1678 -0.2201
  368MOL    C8144855   1.616   3.453   2.266  0.5567  0.5159 -0.4442
  368MOL    H8244856   1.475   3.501   2.118 -0.0584  1.1625  1.0220
  368MOL    H8344857   1.618   3.430   2.049 -1.8504  0.8185 -2.0019
  368MOL    H8444858   1.724   3.445   2.282 -0.0727 -3.0616  2.6710
  368MOL    H8544859   1.573   3.525   2.336 -0.2428 -0.7100  0.3433
  368MOL    C8644860   1.562   3.310   2.303 -0.4136 -0.8177  0.2230
  368MOL    C8744861   1.410   3.289   2.292 -0.8081 -0.0471 -0.6993
  368MOL    H8844862   1.610   3.237   2.237  2.2511 -0.8821  2.1830
  368MOL    H8944863   1.596   3.275   2.400  1.7150  0.7516  0.0773
  368MOL    H9044864   1.362   3.351   2.369  0.0119  0.7262 -0.7989
  368MOL    H9144865   1.367   3.331   2.201 -0.8201  1.0861 -0.1892
  368MOL    C9244866   1.369   3.143   2.317  0.3306 -0.1789 -0.4210
  368MOL    C9344867   1.223   3.111   2.274  0.3017  0.2179  0.3232
  368MOL    H9444868   1.442   3.078   2.269  0.9355 -0.2980  0.6364
  368MOL    H9544869   1.386   3.113   2.420 -2.5317 -0.6794 -0.0732
  368MOL    H9644870   1.148   3.166   2.331  0.0912  1.1928 -0.8765
  368MOL    H9744871   1.211   3.148   2.173 -2.1736  1.7992  1.1657
  368MOL    C9844872   1.199   2.962   2.281  0.4783 -0.2385 -0.0825
  368MOL    C9944873   1.173   2.909   2.426 -0.0693 -0.4282  0.4592
  368MOL   H10044874   1.113   2.932   2.220 -0.7890  0.9714  1.0709
  368MOL   H10144875   1.281   2.912   2.231  0.2095 -0.6300 -0.1387
  368MOL   H10244876   1.230   2.966   2.499 -1.0046 -0.5901  1.3301
  368MOL   H10344877   1.069   2.915   2.457 -0.8023 -0.6084 -1.8530
  368MOL   C10444878   1.224   2.766   2.441 -0.5261  0.4045  0.5190
  368MOL   C10544879   1.184   2.695   2.576 -0.2635  0.0203  0.0255
  368MOL   H10644880   1.197   2.704   2.356  2.7927  0.4751 -0.6771
  368MOL   H10744881   1.333   2.774   2.435 -0.4837 -0.6802 -0.3130
  368MOL   H10844882   1.235   2.749   2.656  1.3134  0.3311 -1.1697
  368MOL   H10944883   1.080   2.711   2.603 -0.1132  1.0997 -0.0103
  368MOL   C11044884   1.219   2.542   2.570  0.4289  0.8245  0.6360
  368MOL   C11144885   1.237   2.470   2.705  0.4184 -0.8962 -0.3924
  368MOL   H11244886   1.128   2.493   2.534 -0.2541  0.1900  3.1511
  368MOL   H11344887   1.302   2.514   2.506  1.1908  3.5922  0.3537
  368MOL   H11444888   1.316   2.522   2.759 -1.0254  1.8601 -0.8083
  368MOL   H11544889   1.150   2.482   2.769 -0.3118 -1.2877 -1.2921
  368MOL   C11644890   1.285   2.328   2.687 -0.1684 -0.5186  0.7158
  368MOL   C11744891   1.303   2.257   2.820 -0.2699  0.0129 -0.6052
  368MOL   H11844892   1.228   2.267   2.617  1.4496  0.1695 -1.2584
  368MOL   H11944893   1.382   2.332   2.637 -1.3116  2.8638 -1.3473
  368MOL   H12044894   1.359   2.164   2.808 -3.1448 -2.3131  2.8550
  368MOL   H12144895   1.361   2.314   2.893 -0.7810 -0.9719  0.6050
  368MOL   H12244896   1.205   2.239   2.865 -0.4136  2.8418  0.2772
  369MOL     C144897   5.049   3.890   5.973 -0.1432  0.0451  0.1084
  369MOL     C244898   5.205   3.898   5.984 -0.0997 -0.3125 -0.4514
  369MOL     H344899   4.993   3.823   6.039 -1.5446 -0.6190 -1.7234
  369MOL     H444900   5.016   3.869   5.871  0.7436  1.9961 -0.6053
  369MOL     H544901   5.253   3.811   5.940 -2.3526 -1.1582 -1.3054
  369MOL     H644902   5.240   3.980   5.921  1.4528 -0.8593 -0.3235
  369MOL     H744903   5.006   3.985   6.003 -0.8528 -0.5051  0.8677
  369MOL     C844904   5.258   3.939   6.125 -0.5384  0.1047 -0.0858
  369MOL     C944905   5.409   3.899   6.145  0.7878 -0.0860  0.7232
  369MOL    H1044906   5.260   4.047   6.129 -1.1463  0.2084 -1.8454
  369MOL    H1144907   5.198   3.915   6.213 -0.5251  1.5587  0.3278
  369MOL    H1244908   5.420   3.790   6.146  1.8375  0.0224  1.6019
  369MOL    H1344909   5.480   3.937   6.071 -0.6553  0.4279 -0.4259
  369MOL    C1444910   5.466   3.932   6.285  0.3943  0.4512  0.7208
  369MOL    C1544911   5.606   3.878   6.299 -0.3499 -0.0490 -0.9047
  369MOL    H1644912   5.457   4.039   6.304 -0.8971  0.4441  0.1740
  369MOL    H1744913   5.394   3.881   6.350 -0.5960  1.5502  0.4869
  369MOL    H1844914   5.615   3.774   6.271  1.2303 -0.6128  1.5595
  369MOL    H1944915   5.673   3.919   6.223  0.8155 -0.3303 -0.0367
  369MOL    C2044916   5.657   3.895   6.451  0.5905 -0.1727  0.3467
  369MOL    C2144917   5.810   3.861   6.465  0.3255  0.4591  0.0944
  369MOL    H2244918   5.644   3.997   6.487 -0.4312  0.3081 -1.3199
  369MOL    H2344919   5.594   3.834   6.517 -0.2474 -0.7090 -0.9354
  369MOL    H2444920   5.826   3.758   6.435 -0.5028  0.2879  0.2406
  369MOL    H2544921   5.876   3.920   6.400  0.2882 -0.5565 -0.8655
  369MOL    C2644922   5.843   3.879   6.615  0.4176  0.0187 -0.6552
  369MOL    C2744923   5.989   3.847   6.649  0.0165  0.2168  0.4087
  369MOL    H2844924   5.817   3.979   6.647 -0.2237  0.0416 -1.2360
  369MOL    H2944925   5.786   3.818   6.685  1.8292 -1.2892 -0.6148
  369MOL    H3044926   5.994   3.739   6.642  0.6401  0.2702  0.0203
  369MOL    H3144927   6.052   3.895   6.574 -0.6697  1.9913  0.9405
  369MOL    C3244928   6.029   3.908   6.786  0.6043 -0.2636  0.2390
  369MOL    C3344929   6.164   3.858   6.833  0.2705  0.8398 -0.7944
  369MOL    H3444930   6.043   4.016   6.776 -2.3668  0.0932 -0.4440
  369MOL    H3544931   5.949   3.897   6.859 -0.4786  2.9085 -0.3746
  369MOL    H3644932   6.143   3.754   6.856 -2.5133  0.3125 -5.1446
  369MOL    H3744933   6.241   3.854   6.755 -0.0538 -2.7842 -1.0092
  369MOL    C3844934   6.221   3.924   6.956  0.0485 -0.1461  0.0133
  369MOL    C3944935   6.366   3.885   6.991 -0.0479  0.5934 -0.3024
  369MOL    H4044936   6.217   4.032   6.947  1.6735  0.0137  0.9267
  369MOL    H4144937   6.154   3.902   7.039  1.0177 -2.2175  0.2753
  369MOL    H4244938   6.369   3.776   6.997  0.3422  0.7161  2.1917
  369MOL    H4344939   6.434   3.918   6.912  2.2149 -0.1656  1.2862
  369MOL    C4444940   6.411   3.938   7.120 -0.6455  0.1392  0.7415
  369MOL    C4544941   6.548   3.900   7.163 -0.1841 -0.0231 -0.1473
  369MOL    H4644942   6.389   4.043   7.101 -0.7947 -0.2912 -1.5898
  369MOL    H4744943   6.348   3.910   7.205 -1.6979  1.4793  0.4054
  369MOL    H4844944   6.607   3.907   7.072 -1.7380 -0.6770 -1.2329
  369MOL    H4944945   6.583   3.968   7.241 -2.5618  1.7342 -0.5245
  369MOL    C5044946   6.548   3.757   7.201 -0.1887 -0.4564  0.5483
  369MOL    C5144947   6.694   3.701   7.185  0.8361 -0.6823  0.5044
  369MOL    H5244948   6.507   3.726   7.297  0.4115 -3.6950 -0.1539
  369MOL    H5344949   6.489   3.690   7.138 -0.3221 -0.2202  0.4225
  369MOL    H5444950   6.727   3.711   7.082 -0.5420 -0.7081  0.0486
  369MOL    H5544951   6.764   3.765   7.240  2.9709 -1.2121 -1.5193
  369MOL    C5644952   6.718   3.559   7.224  0.3371  0.3611 -0.7553
  369MOL    C5744953   6.853   3.501   7.210 -0.0156 -0.0536 -0.1028
  369MOL    H5844954   6.701   3.553   7.331 -0.4036  3.6255 -0.6615
  369MOL    H5944955   6.643   3.504   7.168  0.6088  0.0367 -0.8044
  369MOL    H6044956   6.883   3.488   7.105 -1.9219 -1.5957 -0.4846
  369MOL    H6144957   6.927   3.577   7.232  0.5291 -0.9049  1.0150
  369MOL    C6244958   6.877   3.367   7.272 -0.2130  0.0233 -0.1179
  369MOL    C6344959   6.961   3.372   7.408  0.1646 -0.3133  0.5354
  369MOL    H6444960   6.781   3.333   7.312  0.0763 -0.5248  0.1348
  369MOL    H6544961   6.914   3.297   7.197 -0.9332 -2.2774  1.5926
  369MOL    H6644962   7.067   3.360   7.384 -1.1511 -2.3794 -4.7534
  369MOL    H6744963   6.951   3.464   7.466  0.4568 -0.9075  1.5407
  369MOL    C6844964   6.944   3.254   7.507  0.6365 -0.0949 -0.2138
  369MOL    C6944965   7.017   3.273   7.637 -0.1935 -0.3393 -0.2048
  369MOL    H7044966   6.841   3.227   7.530  0.7713  2.2222  3.4120
  369MOL    H7144967   6.992   3.168   7.458  0.2577 -0.1131 -0.5571
  369MOL    H7244968   7.121   3.299   7.616 -0.2490 -1.4950 -2.0363
  369MOL    H7344969   6.983   3.359   0.002 -0.4131  1.4100 -2.8467
  369MOL    C7444970   7.017   3.144   0.030 -1.0266 -0.5944 -0.4984
  369MOL    C7544971   7.077   3.166   0.166 -0.7642  0.0800 -0.1623
  369MOL    H7644972   6.910   3.119   0.030 -0.9083 -1.1132 -0.1876
  369MOL    H7744973   7.070   3.068   7.665  0.6435 -0.7315  1.1884
  369MOL    H7844974   7.174   3.214   0.155 -1.0437  0.6534 -0.1606
  369MOL    H7944975   7.019   3.244   0.215  1.5461  2.4221 -1.0695
  369MOL    C8044976   7.077   3.047   0.267 -0.1943 -0.1781 -0.0505
  369MOL    C8144977   7.101   3.080   0.416 -0.1664 -0.3586 -0.1777
  369MOL    H8244978   6.984   2.991   0.262 -0.3883  0.0005  1.3072
  369MOL    H8344979   7.151   2.977   0.229  0.2812  0.4338 -0.2615
  369MOL    H8444980   7.017   3.142   0.447 -1.3428 -2.7074  1.5661
  369MOL    H8544981   7.094   2.986   0.472  0.6762 -0.0421  0.4666
  369MOL    C8644982   7.243   3.148   0.439  0.0480 -0.0382 -0.6425
  369MOL    C8744983   7.254   3.212   0.582  0.1617 -0.3630  0.4846
  369MOL    H8844984   7.325   3.080   0.418  0.1302 -0.2609  0.3682
  369MOL    H8944985   7.250   3.223   0.360 -0.4837 -0.7629 -1.3824
  369MOL    H9044986   7.351   3.261   0.583  0.5355 -1.0818  0.0975
  369MOL    H9144987   7.181   3.291   0.598 -1.1620 -1.0530 -1.9226
  369MOL    C9244988   7.260   3.105   0.692  0.2464 -0.0891  0.1551
  369MOL    C9344989   7.167   3.137   0.814 -0.0650 -0.9120 -0.1701
  369MOL    H9444990   7.233   3.005   0.659  0.0952 -0.0662  0.2089
  369MOL    H9544991   7.360   3.098   0.734  0.3825 -3.1968 -0.5941
  369MOL    H9644992   7.063   3.115   0.789 -0.6288  2.2145 -0.7876
  369MOL    H9744993   7.200   3.068   0.892  0.4028 -0.6239 -0.1064
  369MOL    C9844994   7.167   3.280   0.863 -0.2125 -0.8545  0.5212
  369MOL    C9944995   7.094   3.288   0.993  0.0694 -0.0223 -0.5009
  369MOL   H10044996   7.268   3.321   0.869 -1.2726  1.9156  0.5029
  369MOL   H10144997   7.103   3.333   0.792 -0.7376 -1.9055  0.2067
  369MOL   H10244998   6.991   3.260   0.969 -0.3959  0.9895  0.2900
  369MOL   H10344999   7.140   3.216   1.061  2.3557  1.9541  0.1046
  369MOL   C10445000   7.092   3.436   1.050  0.3210 -0.1443 -0.6095
  369MOL   C10545001   7.061   3.447   1.193 -0.3130 -0.5526  0.6169
  369MOL   H10645002   7.188   3.487   1.052  0.2227  0.0008  1.8675
  369MOL   H10745003   7.033   3.502   0.986  1.3774 -0.4812 -1.9413
  369MOL   H10845004   6.966   3.396   1.206 -0.9335  0.7894  1.5397
  369MOL   H10945005   7.137   3.392   1.249 -0.6639 -1.0892  0.5723
  369MOL   C11045006   7.046   3.593   1.245 -0.2682  0.5246  0.3755
  369MOL   C11145007   7.019   3.593   1.397  0.0477 -0.0058 -0.5849
  369MOL   H11245008   7.139   3.645   1.226 -0.0700 -0.4623 -1.4990
  369MOL   H11345009   6.962   3.642   1.196 -0.7605 -0.1814  0.5007
  369MOL   H11445010   6.932   3.529   1.411 -1.2845  2.1318  1.1239
  369MOL   H11545011   7.103   3.548   1.449  0.6723 -0.0098 -1.5707
  369MOL   C11645012   6.992   3.735   1.450 -0.5748 -0.1073 -0.5097
  369MOL   C11745013   6.979   3.735   1.608  0.5788 -1.0245  0.0982
  369MOL   H11845014   7.079   3.798   1.433  0.8544 -1.1139  2.5688
  369MOL   H11945015   6.910   3.784   1.398 -0.4147 -0.0205 -0.6809
  369MOL   H12045016   6.955   3.834   1.647 -1.3404 -0.4949 -2.2643
  369MOL   H12145017   6.910   3.662   1.650  0.7922 -2.6683 -2.2914
  369MOL   H12245018   7.079   3.708   1.642  0.0891 -1.4757  1.2210
  370MOL     C145019   1.368   0.096   0.587  0.7982 -0.1159  0.4477
  370MOL     C245020   1.367   7.636   0.553 -0.7451 -0.4423 -0.4313
  370MOL     H345021   1.339   0.134   0.684  0.9255 -0.6760  0.7068
  370MOL     H445022   1.308   0.152   0.515  1.0187 -0.6826 -0.1799
  370MOL     H545023   1.425   7.625   0.461  0.1073  2.2217 -0.2640
  370MOL     H645024   1.427   7.583   0.627  1.8633 -0.2347 -2.3053
  370MOL     H745025   1.471   0.131   0.574  0.5176  0.8379  0.7232
  370MOL     C845026   1.233   7.570   0.544  0.0923 -0.6079 -0.3838
  370MOL     C945027   1.246   7.415   0.532  1.0320  0.0942 -0.1888
  370MOL    H1045028   1.172   7.594   0.631 -2.0970 -0.1820 -1.9865
  370MOL    H1145029   1.177   7.606   0.457 -1.9431 -1.9750  0.3137
  370MOL    H1245030   1.316   7.400   0.449  1.7694  0.7859  0.2946
  370MOL    H1345031   1.296   7.367   0.616 -0.5970  1.5987  1.6849
  370MOL    C1445032   1.114   7.334   0.513  1.0782  1.1016 -0.2058
  370MOL    C1545033   1.118   7.178   0.525 -0.0302 -0.1434  0.5570
  370MOL    H1645034   1.027   7.365   0.572 -0.8383 -1.5327 -1.5429
  370MOL    H1745035   1.077   7.370   0.417  0.8975  0.2812 -0.4458
  370MOL    H1845036   1.167   7.127   0.442 -0.8034  2.4874 -1.6058
  370MOL    H1945037   1.169   7.155   0.618 -0.3215 -1.0926  0.4827
  370MOL    C2045038   0.973   7.126   0.532  0.0194 -0.7027 -0.3723
  370MOL    C2145039   0.962   6.974   0.550  0.5896  0.0523  1.0857
  370MOL    H2245040   0.931   7.174   0.620  1.7382 -0.4035  0.3014
  370MOL    H2345041   0.909   7.161   0.451  0.8684 -0.5360 -0.9903
  370MOL    H2445042   1.009   6.933   0.461  1.2440  0.6654  1.1421
  370MOL    H2545043   1.013   6.941   0.641  0.5945  0.4590  1.2316
  370MOL    C2645044   0.820   6.927   0.563 -0.8211  0.3228  0.1158
  370MOL    C2745045   0.811   6.776   0.592  0.3113  0.0256  0.1518
  370MOL    H2845046   0.782   6.981   0.649  0.2970 -1.5600  1.8477
  370MOL    H2945047   0.769   6.960   0.473  0.3197  1.9551  0.0448
  370MOL    H3045048   0.854   6.735   0.500  1.0355  0.4707  0.2812
  370MOL    H3145049   0.874   6.750   0.677 -0.9755  2.3123  1.8405
  370MOL    C3245050   0.665   6.728   0.628  0.2329  0.1423  0.5398
  370MOL    C3345051   0.665   6.575   0.661  0.0094  0.1105 -0.8466
  370MOL    H3445052   0.634   6.785   0.716  2.5083  4.0864 -1.1203
  370MOL    H3545053   0.591   6.750   0.551  0.8705  1.7430  0.3774
  370MOL    H3645054   0.705   6.513   0.581  2.5956  0.7949 -0.1399
  370MOL    H3745055   0.728   6.566   0.750 -0.3882 -2.8696 -0.8185
  370MOL    C3845056   0.524   6.534   0.710  0.1465 -0.6413  0.1649
  370MOL    C3945057   0.516   6.400   0.783 -0.0129  0.2032  0.1257
  370MOL    H4045058   0.484   6.619   0.766  4.9566  0.4881  2.1453
  370MOL    H4145059   0.463   6.535   0.620 -0.3397 -1.9891  0.4716
  370MOL    H4245060   0.561   6.326   0.717 -0.2630 -0.8878  1.1700
  370MOL    H4345061   0.568   6.401   0.879 -2.0424 -2.1762  1.3084
  370MOL    C4445062   0.379   6.354   0.817 -0.4433 -0.1565  0.2343
  370MOL    C4545063   0.372   6.205   0.868  0.3013  0.4778  0.2542
  370MOL    H4645064   0.333   6.423   0.887  2.7940  2.0058  0.3366
  370MOL    H4745065   0.315   6.367   0.729 -0.8025 -3.7704 -0.1075
  370MOL    H4845066   0.267   6.183   0.848 -0.5065  3.5630  0.7988
  370MOL    H4945067   0.424   6.150   0.790 -2.2204  1.6958 -2.3989
  370MOL    C5045068   0.421   6.172   1.013  0.1704  0.5071  0.5808
  370MOL    C5145069   0.352   6.045   1.067  0.5273 -0.1769  0.0957
  370MOL    H5245070   0.529   6.162   1.026 -0.1078 -2.8341  0.5403
  370MOL    H5345071   0.389   6.262   1.067  0.8053 -0.4200  2.5685
  370MOL    H5445072   0.245   6.065   1.072  1.0867  2.8476  0.4045
  370MOL    H5545073   0.380   5.955   1.011 -2.0767 -0.5651 -0.6352
  370MOL    C5645074   0.411   6.026   1.201 -0.1863  0.5318  0.0760
  370MOL    C5745075   0.367   5.894   1.270 -0.3483  0.5922 -0.2344
  370MOL    H5845076   0.515   6.006   1.174 -0.5396 -2.9621  1.0605
  370MOL    H5945077   0.395   6.120   1.254  0.3374  0.4538  0.3703
  370MOL    H6045078   0.263   5.900   1.302 -0.0804 -0.2893  0.8533
  370MOL    H6145079   0.368   5.817   1.193 -2.0674  0.9539 -0.6545
  370MOL    C6245080   0.449   5.847   1.392  0.5100 -0.6019 -0.0247
  370MOL    C6345081   0.602   5.826   1.369  0.0563 -0.1586  0.1857
  370MOL    H6445082   0.434   5.925   1.467 -0.0851 -0.5904 -0.1535
  370MOL    H6545083   0.403   5.760   1.437  0.1588  1.1370  3.1916
  370MOL    H6645084   0.616   5.753   1.288  1.7379  0.7483 -0.3627
  370MOL    H6745085   0.657   5.913   1.334 -0.4836  0.0941 -0.0506
  370MOL    C6845086   0.682   5.782   1.493 -0.2969  0.2644 -0.1009
  370MOL    C6945087   0.835   5.784   1.475 -0.1871  0.2816 -0.4833
  370MOL    H7045088   0.662   5.854   1.572 -0.9421  0.0151 -0.0359
  370MOL    H7145089   0.654   5.683   1.531 -0.0535  0.7690  1.4222
  370MOL    H7245090   0.866   5.702   1.409 -0.1962 -0.3970  0.3436
  370MOL    H7345091   0.860   5.879   1.429 -0.4347  0.2257 -0.7404
  370MOL    C7445092   0.907   5.784   1.611 -0.2401 -1.0133  0.0056
  370MOL    C7545093   1.059   5.764   1.604  0.3827  0.2881  0.1227
  370MOL    H7645094   0.895   5.880   1.661 -0.3245 -0.3771 -1.2164
  370MOL    H7745095   0.868   5.716   1.686  0.1350  0.5457  1.6332
  370MOL    H7845096   1.085   5.659   1.591 -0.5916  0.0216  0.2457
  370MOL    H7945097   1.088   5.806   1.508 -0.1613 -1.1619 -0.6907
  370MOL    C8045098   1.142   5.829   1.713  0.1797  0.4405  0.0800
  370MOL    C8145099   1.298   5.812   1.693  0.0472 -0.1039 -0.5328
  370MOL    H8245100   1.118   5.934   1.726  0.8420  0.5225  0.6439
  370MOL    H8345101   1.108   5.788   1.808  3.5090 -1.2611  0.6174
  370MOL    H8445102   1.333   5.711   1.674  3.3613  0.9167 -0.1641
  370MOL    H8545103   1.327   5.878   1.611 -2.2507  1.6086 -0.0374
  370MOL    C8645104   1.376   5.864   1.812  0.4396  0.2126 -0.2883
  370MOL    C8745105   1.436   5.767   1.912 -0.0975 -0.1669 -1.0346
  370MOL    H8845106   1.452   5.937   1.785 -0.8873  1.9774  0.6429
  370MOL    H8945107   1.310   5.927   1.872  1.4522  1.7191 -0.7171
  370MOL    H9045108   1.346   5.729   1.961  0.7582 -0.2670  0.5004
  370MOL    H9145109   1.491   5.691   1.857 -0.2178 -1.3297  0.4209
  370MOL    C9245110   1.539   5.832   2.008  0.3928 -0.8154  0.1254
  370MOL    C9345111   1.617   5.742   2.102 -0.2367 -0.3990  0.4455
  370MOL    H9445112   1.613   5.890   1.955 -0.4091  0.8366  0.7653
  370MOL    H9545113   1.483   5.905   2.067  0.6483  0.0277 -0.6591
  370MOL    H9645114   1.669   5.660   2.052 -0.3343  0.0998 -0.4903
  370MOL    H9745115   1.701   5.803   2.136  0.8028 -0.4760 -1.8770
  370MOL    C9845116   1.535   5.702   2.223  0.3321  0.1907 -0.0768
  370MOL    C9945117   1.613   5.655   2.346 -0.4550 -0.4519 -0.3702
  370MOL   H10045118   1.468   5.780   2.259  0.4391  0.7189 -1.0146
  370MOL   H10145119   1.469   5.618   2.199  0.8671  0.6502 -3.4712
  370MOL   H10245120   1.564   5.572   2.397  1.0011  0.2799  2.3283
  370MOL   H10345121   1.705   5.602   2.321 -0.2828 -0.0145 -0.6690
  370MOL   C10445122   1.639   5.767   2.449 -0.0250  0.4837 -1.3074
  370MOL   C10545123   1.696   5.719   2.578  0.0701 -1.1101 -1.2258
  370MOL   H10645124   1.708   5.839   2.405 -0.3836  0.9648 -1.0832
  370MOL   H10745125   1.546   5.824   2.450 -1.3943 -1.7037 -1.3128
  370MOL   H10845126   1.632   5.643   2.622  0.4379  0.1973  1.6447
  370MOL   H10945127   1.802   5.693   2.566 -0.1076 -1.8474 -1.2137
  370MOL   C11045128   1.696   5.850   2.661 -0.7432 -0.1768  0.3358
  370MOL   C11145129   1.747   5.827   2.808  0.0624  0.5894  0.2646
  370MOL   H11245130   1.767   5.921   2.620 -0.8679  1.6554  3.1538
  370MOL   H11345131   1.597   5.894   2.670 -0.6948 -0.0775  0.3783
  370MOL   H11445132   1.702   5.735   2.844 -2.4230  0.3775 -3.1450
  370MOL   H11545133   1.854   5.812   2.794 -0.3878 -0.8691 -1.9763
  370MOL   C11645134   1.726   5.943   2.907 -0.1986  0.0760  1.3455
  370MOL   C11745135   1.782   5.924   3.044 -0.0800  0.1644  0.6414
  370MOL   H11845136   1.764   6.036   2.864  0.8643 -0.7481  0.4412
  370MOL   H11945137   1.621   5.968   2.915  0.1084  0.9729  2.7239
  370MOL   H12045138   1.735   5.989   3.118  1.3555  0.2879  1.4782
  370MOL   H12145139   1.757   5.821   3.071  0.7910 -0.8970 -2.4336
  370MOL   H12245140   1.887   5.951   3.052  0.1370 -0.9693  1.7336
  371MOL     C145141   4.895   7.242   6.013  0.4057  0.3551  0.0507
  371MOL     C245142   4.917   7.201   5.867  0.2441  0.0620 -0.4813
  371MOL     H345143   4.893   7.350   6.023  2.3373  0.5697 -1.6442
  371MOL     H445144   4.976   7.201   6.073 -0.2415  0.4231  0.9902
  371MOL     H545145   4.846   7.248   5.799 -0.4429  0.3740  0.4439
  371MOL     H645146   5.020   7.214   5.833  1.6563 -1.2690  3.0948
  371MOL     H745147   4.796   7.214   6.050  1.5713 -1.9401  1.5979
  371MOL     C845148   4.894   7.053   5.843  0.4527  0.2960 -0.5083
  371MOL     C945149   4.882   7.006   5.696 -0.4238 -0.3592 -0.3820
  371MOL    H1045150   4.973   6.998   5.895  0.6308  0.7968 -0.2454
  371MOL    H1145151   4.801   7.025   5.892  1.2484  1.0919  1.5068
  371MOL    H1245152   4.793   7.057   5.660  0.0235  1.3415  0.8710
  371MOL    H1345153   4.947   7.057   5.625  0.5319  1.0801  1.4809
  371MOL    C1445154   4.873   6.854   5.677  0.1926  0.2369  0.1906
  371MOL    C1545155   4.876   6.826   5.530  0.0317 -0.1753  0.3721
  371MOL    H1645156   4.952   6.796   5.725  0.0919 -1.7630 -1.9455
  371MOL    H1745157   4.777   6.824   5.720 -0.2844  2.9498  1.0879
  371MOL    H1845158   4.815   6.897   5.473  0.9239  1.1606  1.0437
  371MOL    H1945159   4.979   6.847   5.499 -0.4667  1.2004 -0.4102
  371MOL    C2045160   4.837   6.685   5.494  0.5788  0.1798 -0.1071
  371MOL    C2145161   4.819   6.648   5.349 -0.5910 -0.2019  1.3701
  371MOL    H2245162   4.907   6.613   5.536 -1.8420 -2.1285  0.1053
  371MOL    H2345163   4.744   6.669   5.548  0.0454  0.6110 -0.8843
  371MOL    H2445164   4.742   6.710   5.304  1.5531  1.5815  0.0791
  371MOL    H2545165   4.918   6.657   5.304 -0.8671  2.8570  1.2482
  371MOL    C2645166   4.767   6.500   5.336 -0.2314 -0.3236  0.3235
  371MOL    C2745167   4.780   6.446   5.189 -0.9845 -0.3678  0.3071
  371MOL    H2845168   4.816   6.434   5.407  2.0903 -2.2940 -2.9850
  371MOL    H2945169   4.664   6.496   5.371 -0.5556  2.8398 -0.0879
  371MOL    H3045170   4.724   6.508   5.119  0.1553  1.0252  0.5948
  371MOL    H3145171   4.884   6.447   5.157  0.0232 -1.9470  3.2745
  371MOL    C3245172   4.721   6.307   5.170 -0.2227  0.4375  0.0572
  371MOL    C3345173   4.743   6.255   5.026  0.3210 -0.2724 -0.0978
  371MOL    H3445174   4.775   6.243   5.240 -1.2561  0.2686  0.7098
  371MOL    H3545175   4.616   6.307   5.197 -0.5130 -2.1598 -0.9568
  371MOL    H3645176   4.687   6.324   4.963  0.5187 -0.7522 -0.8103
  371MOL    H3745177   4.846   6.276   4.996  0.8118  1.5715  2.6917
  371MOL    C3845178   4.709   6.105   5.025 -0.5078  0.7596  0.1584
  371MOL    C3945179   4.736   6.037   4.887 -0.1513 -0.1138  0.2174
  371MOL    H4045180   4.764   6.054   5.104  2.9619  1.3003 -1.8433
  371MOL    H4145181   4.604   6.095   5.053 -0.3087  2.4861  1.5985
  371MOL    H4245182   4.712   6.101   4.803  0.3249 -2.8002 -2.0588
  371MOL    H4345183   4.843   6.016   4.886 -0.0062  0.6671 -0.3011
  371MOL    C4445184   4.650   5.912   4.875 -0.2350  0.5870  0.1665
  371MOL    C4545185   4.690   5.832   4.749  0.3842  0.8494 -0.2993
  371MOL    H4645186   4.659   5.844   4.960 -0.7892 -1.5126 -1.4195
  371MOL    H4745187   4.546   5.946   4.878  0.0648  1.4396  1.2454
  371MOL    H4845188   4.685   5.907   4.669  0.3276  0.0289 -1.0721
  371MOL    H4945189   4.785   5.780   4.754  0.5914  0.9661 -2.6992
  371MOL    C5045190   4.583   5.728   4.714 -0.0577 -0.3673 -0.3565
  371MOL    C5145191   4.635   5.636   4.608 -0.3680 -0.3005 -0.2204
  371MOL    H5245192   4.574   5.658   4.797 -1.5843 -2.1526 -1.9857
  371MOL    H5345193   4.486   5.770   4.688 -0.8247 -2.3446 -0.7513
  371MOL    H5445194   4.678   5.689   4.524  1.5990  0.5488  1.2821
  371MOL    H5545195   4.731   5.589   4.627 -0.0744  0.2454 -0.3351
  371MOL    C5645196   4.525   5.535   4.579  0.3780  0.6388  0.8405
  371MOL    C5745197   4.560   5.421   4.475  0.5277  0.1360  0.2878
  371MOL    H5845198   4.497   5.489   4.673 -0.1062  1.2512  0.9980
  371MOL    H5945199   4.439   5.593   4.544 -0.9098 -1.2048  0.8968
  371MOL    H6045200   4.659   5.386   4.503 -0.6649 -3.8993 -0.3373
  371MOL    H6145201   4.501   5.332   4.494 -0.2300  0.4278 -0.6617
  371MOL    C6245202   4.549   5.450   4.325  0.7483 -0.1979  0.9227
  371MOL    C6345203   4.657   5.539   4.257  0.4614 -0.2022  0.4346
  371MOL    H6445204   4.573   5.357   4.274  1.1479  0.3095  0.1961
  371MOL    H6545205   4.448   5.479   4.294  0.5890  0.4163  2.0012
  371MOL    H6645206   4.654   5.634   4.311 -1.0221  0.7118 -1.2173
  371MOL    H6745207   4.760   5.507   4.272  0.8726  1.1288  0.5473
  371MOL    C6845208   4.625   5.573   4.110  0.3731 -0.0580 -0.7888
  371MOL    C6945209   4.705   5.696   4.070 -0.5166  0.3351  0.5755
  371MOL    H7045210   4.671   5.497   4.047 -0.2859 -1.3646  0.2836
  371MOL    H7145211   4.517   5.576   4.099  0.2984  1.4334  0.2497
  371MOL    H7245212   4.686   5.770   4.147 -0.7620  0.3607  0.4904
  371MOL    H7345213   4.812   5.675   4.077 -0.7220 -0.6735  0.7606
  371MOL    C7445214   4.650   5.746   3.931 -0.5243 -0.9849  0.2822
  371MOL    C7545215   4.731   5.874   3.896  0.4321 -0.8195 -0.0724
  371MOL    H7645216   4.656   5.677   3.847 -0.8237 -0.2369 -0.3664
  371MOL    H7745217   4.545   5.771   3.947 -0.0668  0.2795  1.4224
  371MOL    H7845218   4.707   5.942   3.977  2.6653 -0.7316  0.5554
  371MOL    H7945219   4.838   5.853   3.896  1.5153  4.0095  0.6622
  371MOL    C8045220   4.706   5.922   3.753 -0.8418 -0.0378 -0.0360
  371MOL    C8145221   4.579   6.007   3.732 -0.2595 -0.1703  1.0087
  371MOL    H8245222   4.791   5.981   3.722 -0.5904 -0.6538 -0.5493
  371MOL    H8345223   4.718   5.834   3.689  0.6404  1.8795 -2.4631
  371MOL    H8445224   4.577   6.030   3.626  0.7967  1.1721  1.2747
  371MOL    H8545225   4.491   5.945   3.751 -2.2591  2.2346 -0.2407
  371MOL    C8645226   4.574   6.133   3.809 -0.6167 -0.2699 -0.2818
  371MOL    C8745227   4.451   6.220   3.782  0.0435  0.3453 -0.9028
  371MOL    H8845228   4.593   6.119   3.915 -0.2630 -0.0099 -0.3106
  371MOL    H8945229   4.660   6.191   3.774 -0.5218 -1.9300 -2.9471
  371MOL    H9045230   4.425   6.211   3.677  0.9359 -0.7459 -1.0378
  371MOL    H9145231   4.371   6.169   3.837  0.5953 -1.5627 -1.8099
  371MOL    C9245232   4.477   6.358   3.839  0.5104  0.0086  0.4447
  371MOL    C9345233   4.350   6.446   3.846 -0.2649 -0.5475  0.3134
  371MOL    H9445234   4.501   6.358   3.946  0.3160  1.9496  0.5006
  371MOL    H9545235   4.561   6.410   3.793  0.4683 -1.8946 -1.8672
  371MOL    H9645236   4.284   6.429   3.761 -1.1191  0.0137  0.8518
  371MOL    H9745237   4.287   6.420   3.931  1.3571  0.1312  1.7662
  371MOL    C9845238   4.393   6.592   3.869  0.3102 -1.1653 -0.8308
  371MOL    C9945239   4.269   6.690   3.889  0.0659  0.3132 -0.6133
  371MOL   H10045240   4.445   6.594   3.964  2.2590  1.2982 -1.8634
  371MOL   H10145241   4.474   6.624   3.803  1.0839  1.7137  1.4209
  371MOL   H10245242   4.194   6.670   3.812 -0.6765 -0.8182  0.3810
  371MOL   H10345243   4.224   6.668   3.986 -1.7588 -2.4995 -2.0401
  371MOL   C10445244   4.303   6.846   3.903 -0.2876  0.0834 -0.0768
  371MOL   C10545245   4.181   6.937   3.936 -0.4189  0.6514 -0.8655
  371MOL   H10645246   4.370   6.863   3.988  0.0117  2.5292 -0.7664
  371MOL   H10745247   4.340   6.882   3.807  2.0865  0.3078  0.8779
  371MOL   H10845248   4.105   6.931   3.859  1.3752  2.5575 -2.8503
  371MOL   H10945249   4.133   6.898   4.026  1.0615 -3.4982 -1.7974
  371MOL   C11045250   4.237   7.079   3.943 -1.0638  0.1465  0.0992
  371MOL   C11145251   4.137   7.170   4.003 -0.0775 -0.0156 -0.2985
  371MOL   H11245252   4.322   7.094   4.009  0.4647 -0.2062 -1.7424
  371MOL   H11345253   4.265   7.117   3.845 -0.1512  1.4256  0.8422
  371MOL   H11445254   4.041   7.151   3.955 -0.2058  0.9286 -0.4202
  371MOL   H11545255   4.116   7.145   4.107  1.1494 -0.5199 -0.1643
  371MOL   C11645256   4.171   7.320   4.000  0.6579 -0.7453 -0.0463
  371MOL   C11745257   4.072   7.399   4.080 -0.5069  0.3250 -0.3667
  371MOL   H11845258   4.272   7.322   4.041  2.1271 -3.9092 -3.2623
  371MOL   H11945259   4.176   7.362   3.900 -1.8627  1.5745  0.7358
  371MOL   H12045260   3.975   7.392   4.031 -0.2638 -0.3731 -0.7495
  371MOL   H12145261   4.066   7.383   4.188  2.4197  2.0105  0.1134
  371MOL   H12245262   4.111   7.500   4.065 -0.5383  0.6570  1.6740
  372MOL     C145263   7.343   0.957   5.065  0.3415  0.1502 -0.7002
  372MOL     C245264   7.244   0.930   5.182  0.1107  0.5011  0.1264
  372MOL     H345265   7.418   0.879   5.077 -0.7989 -1.1575 -1.8711
  372MOL     H445266   7.384   1.057   5.077 -0.0504  0.0649  1.5523
  372MOL     H545267   7.204   0.830   5.164 -1.2002  0.8963  0.7983
  372MOL     H645268   7.308   0.917   5.269  0.1883 -1.3611 -0.1926
  372MOL     H745269   7.300   0.944   4.965 -2.7007 -0.2939  0.6172
  372MOL     C845270   7.131   1.035   5.189  0.1467 -0.2456  0.2168
  372MOL     C945271   7.013   0.982   5.271  0.3045 -0.2640 -0.0449
  372MOL    H1045272   7.163   1.130   5.231  0.3324  1.0556 -2.7204
  372MOL    H1145273   7.104   1.062   5.087 -0.0006 -0.4335  0.2044
  372MOL    H1245274   6.993   0.877   5.252  2.5179 -0.6198 -0.5655
  372MOL    H1345275   7.021   1.000   5.379  0.7000  2.7671 -0.5497
  372MOL    C1445276   6.880   1.044   5.227 -0.2015 -0.6118  0.1250
  372MOL    C1545277   6.756   0.998   5.307  0.1064 -0.5846  0.2132
  372MOL    H1645278   6.896   1.152   5.233  1.1672 -0.6682 -2.3071
  372MOL    H1745279   6.863   1.011   5.125 -0.6982  0.7760 -0.2508
  372MOL    H1845280   6.667   1.035   5.257 -0.3780 -3.0323 -0.7732
  372MOL    H1945281   6.755   0.889   5.309 -0.3721 -0.5885 -0.2643
  372MOL    C2045282   6.754   1.041   5.455  0.0747 -0.1923 -0.2162
  372MOL    C2145283   6.630   1.001   5.530 -0.0931  0.0722 -0.6992
  372MOL    H2245284   6.838   1.002   5.513  2.0554  3.0632 -0.7598
  372MOL    H2345285   6.765   1.149   5.463 -1.6726  0.1963 -2.4289
  372MOL    H2445286   6.539   1.018   5.473 -0.4747 -1.3577 -0.5518
  372MOL    H2545287   6.637   0.895   5.556 -0.9058  0.7651  2.5631
  372MOL    C2645288   6.606   1.055   5.672  0.2488  0.7862 -0.6382
  372MOL    C2745289   6.473   0.992   5.723 -0.3313 -0.0862 -0.1182
  372MOL    H2845290   6.696   1.014   5.717  0.1382  0.5974 -0.5900
  372MOL    H2945291   6.614   1.163   5.675 -1.0220  0.8563  1.0640
  372MOL    H3045292   6.392   1.044   5.671 -2.2559 -3.0619 -0.2244
  372MOL    H3145293   6.458   0.892   5.684 -0.2137  0.5223 -1.7686
  372MOL    C3245294   6.458   0.999   5.873  0.8066 -0.0399  0.7223
  372MOL    C3345295   6.311   1.009   5.915  0.1559  0.0048  0.1026
  372MOL    H3445296   6.490   0.904   5.917 -2.7040 -2.2322 -1.2012
  372MOL    H3545297   6.513   1.083   5.916  1.5322 -0.0105 -0.2605
  372MOL    H3645298   6.300   1.028   6.022 -0.8036 -2.2022  0.4180
  372MOL    H3745299   6.262   1.099   5.877 -0.2741  0.3495  1.4572
  372MOL    C3845300   6.225   0.883   5.878  0.7489 -0.4748  0.1619
  372MOL    C3945301   6.075   0.892   5.913  0.3817 -0.2880  0.0576
  372MOL    H4045302   6.230   0.866   5.770 -0.2283  0.4893 -0.0510
  372MOL    H4145303   6.280   0.798   5.917 -1.0611 -0.8869  1.8665
  372MOL    H4245304   6.056   0.883   6.020  1.7790 -3.8950  0.0723
  372MOL    H4345305   6.047   0.994   5.883 -0.9196 -0.4701  0.6013
  372MOL    C4445306   5.985   0.790   5.830  0.1961  0.1071 -0.4378
  372MOL    C4545307   5.841   0.766   5.873 -0.3530  0.1583  0.0813
  372MOL    H4645308   5.969   0.820   5.726 -0.8344  1.1259  0.0041
  372MOL    H4745309   6.032   0.693   5.845  3.9552  2.1537  1.6519
  372MOL    H4845310   5.827   0.749   5.979 -1.0305  0.6466  0.0718
  372MOL    H4945311   5.791   0.861   5.853  1.8491  1.4220  0.3476
  372MOL    C5045312   5.776   0.647   5.797  0.4301  0.3083 -0.2205
  372MOL    C5145313   5.626   0.637   5.812 -0.0603 -0.3556  0.2552
  372MOL    H5245314   5.797   0.670   5.693  1.6660 -0.7652 -0.2187
  372MOL    H5345315   5.824   0.555   5.831  0.4369  0.6139  0.6217
  372MOL    H5445316   5.602   0.593   5.909  3.2629 -0.8062  0.9326
  372MOL    H5545317   5.586   0.738   5.813  0.3366 -0.1895 -0.5075
  372MOL    C5645318   5.557   0.558   5.706 -0.3573 -0.0491  0.6484
  372MOL    C5745319   5.565   0.409   5.715  1.3994 -0.4694 -0.4734
  372MOL    H5845320   5.452   0.587   5.709 -0.3645  0.0579 -0.3215
  372MOL    H5945321   5.605   0.593   5.614 -0.7325 -0.1365  0.4175
  372MOL    H6045322   5.670   0.392   5.693  2.4078  1.3256  2.5366
  372MOL    H6145323   5.550   0.371   5.816 -0.5182  1.5882  0.0570
  372MOL    C6245324   5.462   0.345   5.613 -0.6555  0.2892 -0.3522
  372MOL    C6345325   5.483   0.191   5.606 -0.4224 -1.0014 -0.2870
  372MOL    H6445326   5.360   0.372   5.638 -0.5208  1.8092 -1.3430
  372MOL    H6545327   5.479   0.374   5.509  0.2133  0.6156 -0.1243
  372MOL    H6645328   5.582   0.162   5.571 -0.7565 -2.8768  0.2890
  372MOL    H6745329   5.464   0.160   5.709 -0.3014  0.2993  0.1460
  372MOL    C6845330   5.383   0.123   5.500  1.0223 -0.0282 -0.1134
  372MOL    C6945331   5.372   7.665   5.489 -0.2169 -0.1259  0.3609
  372MOL    H7045332   5.290   0.164   5.539  0.4507  0.3052 -1.8275
  372MOL    H7145333   5.400   0.163   5.400  1.8074 -0.1810 -0.0469
  372MOL    H7245334   5.365   7.617   5.587 -1.1356 -3.2625 -1.1974
  372MOL    H7345335   5.281   7.629   5.442 -0.3605  0.8881 -0.1396
  372MOL    C7445336   5.491   7.602   5.410 -0.4392  0.0094 -0.5743
  372MOL    C7545337   5.479   7.447   5.402 -0.7800 -0.5058 -0.2037
  372MOL    H7645338   5.501   7.647   5.311  1.8214 -0.3885 -0.5568
  372MOL    H7745339   5.582   7.618   5.468 -0.9589 -1.6352  0.7367
  372MOL    H7845340   5.465   7.404   5.501 -0.5030  0.8186  0.4249
  372MOL    H7945341   5.388   7.415   5.352 -0.9039  1.6674 -1.4513
  372MOL    C8045342   5.599   7.379   5.346  0.3342 -0.0972  0.3287
  372MOL    C8145343   5.734   7.409   5.416 -0.3700 -0.0061  0.1307
  372MOL    H8245344   5.591   7.270   5.344 -0.8680 -0.0039 -0.3856
  372MOL    H8345345   5.606   7.394   5.238  0.5692  0.7799  0.4610
  372MOL    H8445346   5.746   7.517   5.417 -1.6227  0.1470  1.3947
  372MOL    H8545347   5.737   7.360   5.513 -0.1521 -0.7317 -0.2414
  372MOL    C8645348   5.851   7.350   5.332  0.1394  0.2755  0.4802
  372MOL    C8745349   5.988   7.379   5.400 -0.0227 -0.2235  0.5277
  372MOL    H8845350   5.833   7.242   5.341 -0.7503  0.4896  1.4610
  372MOL    H8945351   5.835   7.382   5.229 -0.9364  1.8851  1.1258
  372MOL    H9045352   6.018   7.484   5.403 -2.5348  0.5665 -0.6558
  372MOL    H9145353   5.988   7.346   5.504  2.0892  1.5873  1.1552
  372MOL    C9245354   6.088   7.288   5.335  0.4476  0.2849  0.1506
  372MOL    C9345355   6.124   7.345   5.196  0.0928  0.1966 -0.6406
  372MOL    H9445356   6.175   7.283   5.400  0.5514 -0.0962 -0.0139
  372MOL    H9545357   6.050   7.186   5.324  2.3478 -0.2262 -2.2228
  372MOL    H9645358   6.035   7.376   5.141 -0.3022 -1.4454 -0.9727
  372MOL    H9745359   6.187   7.433   5.204 -0.1284  0.3486 -0.5599
  372MOL    C9845360   6.200   7.247   5.106  0.8536  0.1724 -0.7760
  372MOL    C9945361   6.211   7.303   4.968 -0.2688  0.2700  0.0592
  372MOL   H10045362   6.299   7.231   5.148  0.2393 -0.5142  0.4422
  372MOL   H10145363   6.147   7.152   5.098  0.3416  0.3499  0.3384
  372MOL   H10245364   6.120   7.349   4.929  0.5218  2.8008  1.0818
  372MOL   H10345365   6.284   7.384   4.966 -0.7995  0.7441 -0.4602
  372MOL   C10445366   6.249   7.188   4.872 -0.3903 -0.0104 -0.0969
  372MOL   C10545367   6.258   7.224   4.725 -0.2496 -0.3445 -0.2541
  372MOL   H10645368   6.337   7.134   4.907 -1.3163 -1.4492  0.0500
  372MOL   H10745369   6.170   7.114   4.869 -0.8743  0.5521 -1.8053
  372MOL   H10845370   6.153   7.248   4.705 -0.7045 -0.6809  1.5840
  372MOL   H10945371   6.322   7.312   4.714 -1.1717  0.3367 -0.2626
  372MOL   C11045372   6.302   7.119   4.620  0.0760 -0.5800 -0.2538
  372MOL   C11145373   6.444   7.071   4.636  0.0707 -0.2796 -0.4407
  372MOL   H11245374   6.235   7.034   4.622  0.4059 -0.8528 -0.9608
  372MOL   H11345375   6.291   7.164   4.521 -0.5792 -1.8873 -0.7780
  372MOL   H11445376   6.470   7.057   4.741 -0.1216  0.4539 -0.2939
  372MOL   H11545377   6.458   6.978   4.582 -0.4835 -0.5284 -0.1540
  372MOL   C11645378   6.548   7.167   4.574  0.6723  0.3117  0.0681
  372MOL   C11745379   6.696   7.132   4.605  0.2248 -0.4760  0.7682
  372MOL   H11845380   6.529   7.148   4.469  1.4810  0.4991 -0.1133
  372MOL   H11945381   6.521   7.270   4.599  1.0146 -0.5458  4.4559
  372MOL   H12045382   6.713   7.154   4.710 -0.2127  2.5005  0.2680
  372MOL   H12145383   6.714   7.027   4.584  0.1677 -0.4996  0.8396
  372MOL   H12245384   6.769   7.191   4.550  0.6908 -1.2093  0.6012
  373MOL     C145385   7.530   1.280   7.547  0.2598 -0.7855 -0.2951
  373MOL     C245386   7.430   1.235   7.447  0.4544 -0.2160 -0.5708
  373MOL     H345387   7.586   1.194   7.583 -1.2660 -1.1386  1.3167
  373MOL     H445388   7.484   1.322   7.637  0.8411 -0.0717 -0.3260
  373MOL     H545389   7.373   1.152   7.490 -0.3971  0.7048  0.1138
  373MOL     H645390   7.349   1.307   7.432  2.0751  1.7048 -0.2047
  373MOL     H745391   7.599   1.352   7.502  1.0132  0.0028  2.0516
  373MOL     C845392   7.478   1.203   7.301  0.2142 -0.1664 -0.4182
  373MOL     C945393   7.519   1.334   7.220  0.8711  0.3983  0.3705
  373MOL    H1045394   7.554   1.124   7.303 -0.6145 -0.9647 -0.2953
  373MOL    H1145395   7.398   1.156   7.245  0.1339 -0.5923  0.0504
  373MOL    H1245396   7.451   1.419   7.227  0.7349  0.4735 -1.7052
  373MOL    H1345397   7.604   1.372   7.277  0.8087  0.4098  0.4559
  373MOL    C1445398   7.552   1.307   7.072 -1.2743 -0.1171 -0.1005
  373MOL    C1545399   7.681   1.385   7.035  0.2086  0.2471 -0.8685
  373MOL    H1645400   7.587   1.204   7.074  0.0623  0.3712  2.2202
  373MOL    H1745401   7.476   1.319   6.994 -0.1630 -0.3239 -1.2456
  373MOL    H1845402   7.686   1.483   7.081  0.0217 -0.6815  1.2024
  373MOL    H1945403   0.069   1.328   7.084 -0.2245  0.6212  0.2776
  373MOL    C2045404   0.026   1.394   6.889  0.2063  0.3643  0.2439
  373MOL    C2145405   0.154   1.479   6.855  0.2677  0.9634  0.4087
  373MOL    H2245406   0.024   1.294   6.845 -2.4836  1.4143 -2.1952
  373MOL    H2345407   7.630   1.442   6.845  0.8525  2.2779  1.0052
  373MOL    H2445408   0.157   1.569   6.917 -0.2718  1.3142 -0.0702
  373MOL    H2545409   0.244   1.421   6.876  0.2852  1.0471  0.5676
  373MOL    C2645410   0.163   1.525   6.704 -0.8690 -0.3641 -0.8409
  373MOL    C2745411   0.287   1.601   6.687 -0.1807 -0.7197  0.6693
  373MOL    H2845412   0.157   1.443   6.633  0.9565 -0.1851 -1.2189
  373MOL    H2945413   0.081   1.590   6.674 -0.5078 -0.2566 -1.6117
  373MOL    H3045414   0.283   1.696   6.740 -0.9892 -0.5472  0.2969
  373MOL    H3145415   0.365   1.546   6.740  1.3984 -1.9258 -2.7690
  373MOL    C3245416   0.316   1.625   6.539  0.0574 -0.6121  0.1895
  373MOL    C3345417   0.424   1.736   6.522 -0.2321 -0.1594  1.0304
  373MOL    H3445418   0.343   1.533   6.487  0.2003 -0.9611  0.8800
  373MOL    H3545419   0.219   1.649   6.496 -0.4692 -1.3492  0.9537
  373MOL    H3645420   0.373   1.832   6.514  0.2436  0.0168 -0.0134
  373MOL    H3745421   0.477   1.738   6.616 -0.2655  1.9062  1.0233
  373MOL    C3845422   0.503   1.719   6.396  1.0109 -0.4008 -0.2364
  373MOL    C3945423   0.630   1.802   6.396 -0.2289  0.0730  0.4899
  373MOL    H4045424   0.527   1.612   6.389 -0.9515 -0.7627 -1.9854
  373MOL    H4145425   0.440   1.742   6.310 -0.0549 -0.5657  0.4873
  373MOL    H4245426   0.608   1.901   6.437  2.4347  0.8222  0.2160
  373MOL    H4345427   0.710   1.767   6.461  0.7830  1.1009 -0.1767
  373MOL    C4445428   0.702   1.804   6.262  0.2900 -0.2728 -0.0602
  373MOL    C4545429   0.836   1.881   6.266 -0.0938  0.4790 -0.2262
  373MOL    H4645430   0.716   1.705   6.219  0.2262  0.3783 -1.6052
  373MOL    H4745431   0.633   1.855   6.195  3.1183  1.3237 -1.8360
  373MOL    H4845432   0.805   1.969   6.322 -1.7953 -0.9461  1.1214
  373MOL    H4945433   0.908   1.822   6.323  1.3000  3.0714  0.7640
  373MOL    C5045434   0.896   1.915   6.133  0.8311 -0.6467 -0.2270
  373MOL    C5145435   1.038   1.974   6.149  0.1703  0.0415 -0.5878
  373MOL    H5245436   0.903   1.833   6.061  3.4880 -0.9754  0.3699
  373MOL    H5345437   0.835   1.993   6.087  2.3199  1.8068  1.8384
  373MOL    H5445438   1.021   2.074   6.187  0.4996  0.0084 -0.3515
  373MOL    H5545439   1.099   1.913   6.215  3.7312  1.9649 -1.9736
  373MOL    C5645440   1.111   2.008   6.019  0.1506  0.4811  0.8069
  373MOL    C5745441   1.248   2.068   6.040  0.0965  0.0968  0.6734
  373MOL    H5845442   1.123   1.919   5.957 -0.1019 -0.0724  1.5480
  373MOL    H5945443   1.047   2.068   5.955 -1.1531 -1.0153  0.6963
  373MOL    H6045444   1.253   2.169   6.082 -2.5541 -0.3951  2.2794
  373MOL    H6145445   1.305   2.004   6.107  0.5866  0.9654  1.1003
  373MOL    C6245446   1.320   2.079   5.899 -1.0105  0.0826  0.4146
  373MOL    C6345447   1.454   2.145   5.906 -0.1374 -0.6129  0.3744
  373MOL    H6445448   1.329   1.976   5.865 -1.6911 -0.0058  0.4868
  373MOL    H6545449   1.258   2.132   5.827  0.8469 -0.7079 -1.8093
  373MOL    H6645450   1.448   2.246   5.947 -1.0905  0.0562 -1.3683
  373MOL    H6745451   1.519   2.092   5.975  1.0551  0.6287  0.2348
  373MOL    C6845452   1.511   2.166   5.761  0.2289 -0.3033  0.4808
  373MOL    C6945453   1.657   2.213   5.764 -0.4736 -0.5560  1.0205
  373MOL    H7045454   1.516   2.071   5.708 -0.3165  1.1927 -2.4071
  373MOL    H7145455   1.451   2.248   5.720  0.9981 -0.1091 -0.2732
  373MOL    H7245456   1.659   2.305   5.824 -2.7835  0.5527 -0.5259
  373MOL    H7345457   1.717   2.134   5.808  3.1044  1.4176 -0.1182
  373MOL    C7445458   1.710   2.251   5.622 -0.8645 -0.2445 -0.4819
  373MOL    C7545459   1.853   2.294   5.619 -0.1061 -0.0403 -0.1901
  373MOL    H7645460   1.705   2.167   5.553  2.0369 -2.3803  1.8028
  373MOL    H7745461   1.642   2.326   5.581 -0.6680 -0.0771 -0.5045
  373MOL    H7845462   1.874   2.370   5.694 -0.2501 -0.0332 -0.1558
  373MOL    H7945463   1.907   2.208   5.660 -2.9118 -1.5915  0.4416
  373MOL    C8045464   1.903   2.337   5.481  0.2186 -0.0706 -0.0381
  373MOL    C8145465   2.059   2.351   5.473 -0.4744  0.0795 -0.2039
  373MOL    H8245466   1.882   2.260   5.406  0.0832 -2.0197  1.9364
  373MOL    H8345467   1.848   2.423   5.443 -1.2591 -1.0117 -0.0852
  373MOL    H8445468   2.083   2.414   5.559 -2.5610 -1.3532  1.4743
  373MOL    H8545469   2.097   2.255   5.507  0.0767  1.0558  2.0417
  373MOL    C8645470   2.106   2.415   5.340  0.3797  0.5568 -0.3151
  373MOL    C8745471   2.256   2.442   5.346  0.4988 -0.7909 -0.3095
  373MOL    H8845472   2.074   2.358   5.253 -2.4837  1.6595 -0.0396
  373MOL    H8945473   2.054   2.511   5.336 -2.5473 -0.8877  1.3273
  373MOL    H9045474   2.254   2.515   5.427  1.7150  0.0342 -1.0151
  373MOL    H9145475   2.300   2.354   5.394 -1.8007 -1.3619  0.8459
  373MOL    C9245476   2.320   2.497   5.209 -0.1297  0.8722 -0.2249
  373MOL    C9345477   2.455   2.563   5.223  0.3139  0.2884  0.3081
  373MOL    H9445478   2.341   2.424   5.131 -2.5652 -0.8911  0.6933
  373MOL    H9545479   2.242   2.558   5.162 -0.2008  1.6964  0.9396
  373MOL    H9645480   2.462   2.637   5.303  0.1367 -0.8457  1.3793
  373MOL    H9745481   2.512   2.482   5.269 -0.4369 -1.0848 -1.1251
  373MOL    C9845482   2.525   2.626   5.095  0.0536 -0.7913 -0.5428
  373MOL    C9945483   2.673   2.669   5.121 -0.3181 -0.5973 -0.3776
  373MOL   H10045484   2.519   2.558   5.009  0.4354 -0.9058 -0.4792
  373MOL   H10145485   2.463   2.711   5.069  0.5910  1.0099  3.7165
  373MOL   H10245486   2.676   2.743   5.201 -1.7048 -0.6386 -0.2812
  373MOL   H10345487   2.728   2.580   5.153 -1.7041 -1.2974  0.0980
  373MOL   C10445488   2.744   2.720   4.996 -0.9949 -0.0624  0.7496
  373MOL   C10545489   2.885   2.754   5.026 -0.6271  0.5909 -0.0263
  373MOL   H10645490   2.738   2.640   4.921  1.0432  1.9176 -1.6319
  373MOL   H10745491   2.707   2.811   4.949 -0.3222 -0.1113  0.1086
  373MOL   H10845492   2.897   2.816   5.115 -0.0675 -2.5964  2.2131
  373MOL   H10945493   2.928   2.659   5.059 -0.4008  1.0277  0.9521
  373MOL   C11045494   2.962   2.799   4.903 -0.1293  0.0744  0.0881
  373MOL   C11145495   3.107   2.831   4.926  0.1296  0.1239 -0.7145
  373MOL   H11245496   2.956   2.730   4.818  2.5761 -1.1505  0.8420
  373MOL   H11345497   2.918   2.892   4.866  0.7310 -0.6267 -2.8887
  373MOL   H11445498   3.131   2.915   4.990  0.2140  0.3150 -0.9957
  373MOL   H11545499   3.154   2.738   4.958  2.0208  0.5632 -2.1644
  373MOL   C11645500   3.171   2.870   4.794  0.1196 -0.3681  0.6903
  373MOL   C11745501   3.330   2.890   4.798 -0.1242  0.2191 -0.1177
  373MOL   H11845502   3.146   2.799   4.715  0.5320 -0.6814  0.8379
  373MOL   H11945503   3.134   2.968   4.765  0.0954 -0.2234  1.2147
  373MOL   H12045504   3.369   2.799   4.842  1.9445  0.7256 -0.8323
  373MOL   H12145505   3.378   2.912   4.703 -1.4882 -0.0659 -0.8953
  373MOL   H12245506   3.373   2.969   4.860  0.6821 -1.3298  1.3145
  374MOL     C145507   5.656   4.933   0.164 -0.5882 -0.3873 -0.0837
  374MOL     C245508   5.557   5.042   0.184  0.2193 -0.0902  0.0629
  374MOL     H345509   5.684   4.885   0.258  0.8320 -0.4829 -0.5322
  374MOL     H445510   5.748   4.976   0.125  0.5822  0.4746  3.4229
  374MOL     H545511   5.462   4.990   0.190  2.1551 -3.6640  1.5090
  374MOL     H645512   5.590   5.084   0.279  0.2330 -0.4662  0.2257
  374MOL     H745513   5.630   4.852   0.096 -0.6209 -1.3325  1.0377
  374MOL     C845514   5.551   5.158   0.075 -0.1772 -0.4555 -0.3749
  374MOL     C945515   5.452   5.267   0.118  0.1511 -0.4889  0.8597
  374MOL    H1045516   5.649   5.197   0.048  0.3031 -0.0244  1.9273
  374MOL    H1145517   5.513   5.108   7.677 -1.2984 -1.7761  0.8055
  374MOL    H1245518   5.365   5.212   0.155 -1.0746  2.4447  2.5309
  374MOL    H1345519   5.500   5.316   0.202  1.2580  1.4364 -0.8591
  374MOL    C1445520   5.428   5.371   0.010 -0.3795 -0.1756 -0.0037
  374MOL    C1545521   5.329   5.478   0.048  0.3392 -0.0054  0.3674
  374MOL    H1645522   5.525   5.413   7.675 -0.2452  1.1906  2.4401
  374MOL    H1745523   5.397   5.313   7.616 -2.4800  0.6868  0.1535
  374MOL    H1845524   5.240   5.442   0.099  1.4335 -0.0738  2.2960
  374MOL    H1945525   5.375   5.544   0.122 -2.3247  0.7168  1.4322
  374MOL    C2045526   5.289   5.571   7.625 -0.3602  0.3279  0.2356
  374MOL    C2145527   5.166   5.665   7.632  0.2487 -0.4355 -0.3527
  374MOL    H2245528   5.374   5.638   7.617 -0.3569  0.2496 -0.3729
  374MOL    H2345529   5.282   5.517   7.531  1.9895  1.0209 -0.3699
  374MOL    H2445530   5.078   5.602   7.639  0.5309 -0.7395  0.5527
  374MOL    H2545531   5.166   5.715   0.037 -0.9628  3.0164 -2.0432
  374MOL    C2645532   5.168   5.772   7.524 -0.0977  0.2372  0.8175
  374MOL    C2745533   5.030   5.852   7.519 -0.2929  0.6487  0.1395
  374MOL    H2845534   5.256   5.832   7.547 -0.2139 -0.4148  3.0469
  374MOL    H2945535   5.188   5.722   7.429 -2.5990  0.9436 -0.1262
  374MOL    H3045536   4.958   5.789   7.570 -1.8008  1.3849 -1.0435
  374MOL    H3145537   5.029   5.942   7.580 -0.2152  0.9345 -0.2783
  374MOL    C3245538   4.982   5.874   7.368 -0.8063  0.6463 -0.4888
  374MOL    C3345539   5.014   6.004   7.302 -0.1133  0.5772 -0.8734
  374MOL    H3445540   5.019   5.793   7.305 -0.3963  0.1361  0.3893
  374MOL    H3545541   4.873   5.870   7.374 -0.6916 -0.3742  1.5854
  374MOL    H3645542   4.967   6.082   7.363 -1.0045 -1.3422  0.9459
  374MOL    H3745543   5.119   6.031   7.291  0.0091  0.5931  0.2691
  374MOL    C3845544   4.956   6.025   7.171  0.0085  0.3427 -0.6402
  374MOL    C3945545   4.807   6.065   7.165 -0.0803 -0.2572 -0.6022
  374MOL    H4045546   5.021   6.081   7.104  0.6720  1.8040  1.1712
  374MOL    H4145547   4.955   5.926   7.126 -1.5744  0.4315 -0.8522
  374MOL    H4245548   4.753   6.034   7.255 -0.0124 -1.6338 -1.0138
  374MOL    H4345549   4.809   6.173   7.157  0.6556 -0.0120  2.3433
  374MOL    C4445550   4.734   6.017   7.045  0.5445  0.6505 -0.2164
  374MOL    C4545551   4.709   5.859   7.043  0.3652  0.1238  0.5032
  374MOL    H4645552   4.638   6.069   7.041  0.0303 -0.2794 -0.1559
  374MOL    H4745553   4.796   6.042   6.959  0.4496 -1.8341 -1.0410
  374MOL    H4845554   4.809   5.820   7.025 -0.4429 -0.9433 -1.9458
  374MOL    H4945555   4.682   5.817   7.140 -0.9768  1.8935  0.9131
  374MOL    C5045556   4.625   5.816   6.924  0.1313 -0.6349  0.8864
  374MOL    C5145557   4.630   5.656   6.901  0.0612 -0.0254 -0.8996
  374MOL    H5245558   4.519   5.839   6.929 -0.7965 -4.3902  0.0295
  374MOL    H5345559   4.654   5.881   6.842 -0.4570  1.4710  2.3135
  374MOL    H5445560   4.735   5.631   6.886  0.1424  0.5211 -1.2592
  374MOL    H5545561   4.594   5.601   6.988  1.0749  0.6352 -0.0542
  374MOL    C5645562   4.544   5.602   6.776  0.0106  0.1722 -0.7382
  374MOL    C5745563   4.577   5.456   6.745  0.4029 -0.0011 -0.2465
  374MOL    H5845564   4.439   5.615   6.803  0.0140  0.6789 -0.9667
  374MOL    H5945565   4.570   5.673   6.697  0.1741  1.3086  0.3356
  374MOL    H6045566   4.686   5.450   6.746  0.4101  0.2331  0.6104
  374MOL    H6145567   4.546   5.387   6.823  1.1967  0.2577  0.3041
  374MOL    C6245568   4.510   5.415   6.615 -0.1078  0.0915 -0.3855
  374MOL    C6345569   4.511   5.263   6.585  0.0291  0.2126 -0.0998
  374MOL    H6445570   4.409   5.451   6.594 -0.5020 -2.3555 -3.1145
  374MOL    H6545571   4.565   5.455   6.530 -0.1036 -2.4506 -1.6500
  374MOL    H6645572   4.601   5.220   6.629 -0.2785 -1.6573 -1.2325
  374MOL    H6745573   4.426   5.216   6.635 -0.5972  0.7895 -0.6009
  374MOL    C6845574   4.496   5.216   6.438  1.2822 -0.3410  0.2821
  374MOL    C6945575   4.514   5.064   6.413 -0.1427  0.8023 -0.4109
  374MOL    H7045576   4.394   5.242   6.410  0.7976 -1.9858  0.4855
  374MOL    H7145577   4.560   5.279   6.376 -0.0636  0.5459 -0.2338
  374MOL    H7245578   4.614   5.038   6.448 -0.9863 -0.8263  0.8654
  374MOL    H7345579   4.444   4.994   6.457 -0.9181  0.2693 -2.4395
  374MOL    C7445580   4.499   5.028   6.264  0.3840 -0.1163  0.2553
  374MOL    C7545581   4.498   4.874   6.236  0.6788 -0.1913 -0.4020
  374MOL    H7645582   4.403   5.060   6.225  0.5230  0.3010  0.2507
  374MOL    H7745583   4.586   5.081   6.225  1.1141 -1.2536  0.2869
  374MOL    H7845584   4.586   4.828   6.281  1.5423 -2.2128 -3.9837
  374MOL    H7945585   4.402   4.842   6.277 -0.9230  2.4459 -1.9260
  374MOL    C8045586   4.488   4.847   6.085 -0.7793 -0.1536 -0.4663
  374MOL    C8145587   4.471   4.700   6.048  0.0233 -0.3114  0.4562
  374MOL    H8245588   4.412   4.913   6.044  0.7959  2.2325  0.3458
  374MOL    H8345589   4.575   4.888   6.034  0.0683 -0.3172  0.8376
  374MOL    H8445590   4.555   4.632   6.062  0.0156 -0.1270  1.4395
  374MOL    H8545591   4.388   4.654   6.102 -1.1775 -0.1562 -1.2169
  374MOL    C8645592   4.437   4.689   5.900 -0.3983  0.5497 -0.2397
  374MOL    C8745593   4.444   4.540   5.867  0.2366  0.2368 -0.0888
  374MOL    H8845594   4.337   4.731   5.887  0.0953  1.6133 -0.5865
  374MOL    H8945595   4.501   4.749   5.835  0.9057 -0.1906  0.3422
  374MOL    H9045596   4.540   4.495   5.895  0.3721  0.4405 -0.2308
  374MOL    H9145597   4.373   4.486   5.931 -0.7583  1.5952 -0.0350
  374MOL    C9245598   4.417   4.505   5.722 -0.3709  0.2224 -0.5007
  374MOL    C9345599   4.388   4.354   5.704  0.3328 -0.8542  0.0839
  374MOL    H9445600   4.338   4.568   5.680  0.4254  0.6498 -1.3746
  374MOL    H9545601   4.496   4.540   5.655  0.7386  0.1753  0.7644
  374MOL    H9645602   4.479   4.294   5.716  1.6938  1.2841  0.6810
  374MOL    H9745603   4.321   4.320   5.783  1.4561  0.0407  1.4471
  374MOL    C9845604   4.329   4.313   5.566  1.0660 -0.1587  0.4389
  374MOL    C9945605   4.410   4.351   5.447  0.0483  0.0774  1.0282
  374MOL   H10045606   4.290   4.212   5.569 -0.6851  0.4903  0.1964
  374MOL   H10145607   4.242   4.379   5.573 -0.9525 -2.5789 -1.2269
  374MOL   H10245608   4.400   4.459   5.436  0.6339  0.0474  0.1434
  374MOL   H10345609   4.513   4.318   5.460  0.2263 -1.1701 -2.9368
  374MOL   C10445610   4.364   4.284   5.311 -0.3619 -0.2610  0.0759
  374MOL   C10545611   4.390   4.372   5.183 -0.5736 -0.8829 -0.7554
  374MOL   H10645612   4.422   4.192   5.300  1.7104  1.1309 -0.8652
  374MOL   H10745613   4.260   4.256   5.328  0.1084 -1.0740  1.6200
  374MOL   H10845614   4.348   4.472   5.186 -0.3096 -0.7942  0.1642
  374MOL   H10945615   4.497   4.377   5.164 -0.5562  2.0274 -0.1488
  374MOL   C11045616   4.339   4.308   5.056 -0.9488 -0.4713  0.2113
  374MOL   C11145617   4.331   4.407   4.934  0.6655  0.2710  0.3513
  374MOL   H11245618   4.414   4.232   5.034 -1.6958 -0.6796 -1.7475
  374MOL   H11345619   4.240   4.265   5.070 -1.5086 -0.5900 -3.5676
  374MOL   H11445620   4.322   4.339   4.850 -0.2867  1.2164 -0.3251
  374MOL   H11545621   4.236   4.461   4.944  0.3584 -0.2179  0.1165
  374MOL   C11645622   4.452   4.494   4.910  0.1324  0.0459 -0.8530
  374MOL   C11745623   4.428   4.574   4.775 -0.2907  0.7816 -0.1502
  374MOL   H11845624   4.467   4.563   4.992 -0.8991 -0.5262 -0.1662
  374MOL   H11945625   4.538   4.427   4.907 -0.1173 -0.5447  2.7071
  374MOL   H12045626   4.359   4.659   4.780 -0.9574  0.1157  4.3134
  374MOL   H12145627   4.520   4.621   4.738 -0.8079  0.7777 -1.4379
  374MOL   H12245628   4.394   4.517   4.689 -1.4921 -2.3560  2.3317
  375MOL     C145629   7.131   4.556   1.996  0.1582  1.1780 -0.0006
  375MOL     C245630   7.248   4.659   1.995  0.4449 -0.6075  0.4497
  375MOL     H345631   7.133   4.497   1.904 -0.2605  1.8664 -0.4508
  375MOL     H445632   7.036   4.609   1.994  0.1256  1.1617  0.8701
  375MOL     H545633   7.344   4.606   1.993 -0.4681 -2.3013  0.8399
  375MOL     H645634   7.247   4.706   1.897  1.1038 -1.6398 -0.0635
  375MOL     H745635   7.136   4.485   2.079  1.1740 -1.4772 -2.2736
  375MOL     C845636   7.258   4.768   2.104 -0.0657  0.1719 -0.1905
  375MOL     C945637   7.386   4.854   2.097 -0.0857  0.4723  0.2743
  375MOL    H1045638   7.170   4.832   2.105  0.3802  0.7873  0.8568
  375MOL    H1145639   7.247   4.723   2.203  2.0695 -2.0442 -0.9222
  375MOL    H1245640   7.471   4.786   2.098 -0.3518  0.0867 -1.7527
  375MOL    H1345641   7.393   4.913   2.005  0.3715 -2.1920 -1.4518
  375MOL    C1445642   7.399   4.950   2.216 -0.3632  0.9261 -0.5840
  375MOL    C1545643   7.517   5.043   2.209 -0.3333  0.4615  0.3658
  375MOL    H1645644   7.308   5.005   2.188 -0.6975 -0.3407 -2.0357
  375MOL    H1745645   7.394   4.894   2.309 -2.1584 -0.7264 -1.6444
  375MOL    H1845646   7.612   4.993   2.220 -0.9031 -0.5461  0.7209
  375MOL    H1945647   7.524   5.101   2.116  0.1601  0.1515  0.2104
  375MOL    C2045648   7.512   5.143   2.319 -0.3416  0.3739 -0.6617
  375MOL    C2145649   7.643   5.228   2.325  0.1408 -0.0780 -0.1250
  375MOL    H2245650   7.430   5.212   2.301 -1.2823 -0.5223  0.1229
  375MOL    H2345651   7.484   5.092   2.411 -2.4733  1.6294 -0.5990
  375MOL    H2445652   0.036   5.162   2.340  1.0724  0.4333 -2.8908
  375MOL    H2545653   7.660   5.272   2.227 -1.2971  1.6118  0.3518
  375MOL    C2645654   7.645   5.322   2.436  0.3637  0.2815  0.1804
  375MOL    C2745655   0.079   5.411   2.436 -0.8613 -0.0261  0.8082
  375MOL    H2845656   7.552   5.378   2.437 -0.6556 -1.3904  2.1799
  375MOL    H2945657   7.656   5.257   2.522 -0.8831 -2.3465 -1.5831
  375MOL    H3045658   0.174   5.358   2.435 -1.6721 -1.4921  0.4036
  375MOL    H3145659   0.083   5.472   2.346 -0.4703 -0.7518  0.3305
  375MOL    C3245660   0.072   5.499   2.560 -0.6616 -0.2455  0.0206
  375MOL    C3345661   0.197   5.576   2.578  0.0315 -0.1738  0.0292
  375MOL    H3445662   7.680   5.566   2.543  0.2663  1.1136  0.7259
  375MOL    H3545663   0.050   5.430   2.641 -5.2967 -0.2243 -1.0743
  375MOL    H3645664   0.286   5.515   2.597 -1.2098 -2.2839 -0.8098
  375MOL    H3745665   0.214   5.630   2.485 -0.5401  2.2386  1.2980
  375MOL    C3845666   0.175   5.692   2.686 -0.1376  0.1071 -0.8009
  375MOL    C3945667   0.310   5.777   2.706  0.2003  0.9446  0.4003
  375MOL    H4045668   0.098   5.765   2.660  0.0836  0.9620  0.8449
  375MOL    H4145669   0.148   5.640   2.777  3.8758 -0.0061  0.4241
  375MOL    H4245670   0.395   5.713   2.730  0.4564  1.4029  0.7044
  375MOL    H4345671   0.341   5.818   2.610  0.0624  0.3277  0.0823
  375MOL    C4445672   0.306   5.884   2.809  0.5022 -0.1856 -0.2200
  375MOL    C4545673   0.439   5.955   2.803 -0.0615  0.3606 -0.1049
  375MOL    H4645674   0.228   5.959   2.796  0.8436  0.2239  0.0958
  375MOL    H4745675   0.281   5.834   2.903 -1.1019 -0.0937 -0.5844
  375MOL    H4845676   0.520   5.883   2.800 -0.4825 -0.0595 -1.9208
  375MOL    H4945677   0.443   5.999   2.703  0.7571  0.3552 -0.0743
  375MOL    C5045678   0.474   6.055   2.920  0.4066  0.5289  0.1986
  375MOL    C5145679   0.484   5.983   3.061  0.4716 -0.0189  0.6614
  375MOL    H5245680   0.569   6.104   2.899  0.1312  0.7762 -0.5041
  375MOL    H5345681   0.397   6.132   2.920 -0.9156 -0.7692 -0.0633
  375MOL    H5445682   0.385   5.942   3.085  0.0185  0.9708  0.5282
  375MOL    H5545683   0.557   5.902   3.065  0.8421  0.3009  0.2686
  375MOL    C5645684   0.506   6.098   3.165 -0.5104  1.2337  0.1311
  375MOL    C5745685   0.511   6.033   3.306  0.2495  0.1700  0.1789
  375MOL    H5845686   0.599   6.152   3.147  1.4620 -2.5177 -1.6104
  375MOL    H5945687   0.419   6.163   3.159 -1.7503 -0.4050 -0.0752
  375MOL    H6045688   0.414   5.984   3.311 -0.4717  1.2482 -2.2134
  375MOL    H6145689   0.592   5.961   3.314 -1.5243 -2.2802 -2.7112
  375MOL    C6245690   0.520   6.133   3.418 -0.1862  0.5660 -0.8572
  375MOL    C6345691   0.513   6.072   3.560 -0.2949  0.6457 -0.0171
  375MOL    H6445692   0.623   6.169   3.410  0.0029  1.1768  2.9996
  375MOL    H6545693   0.439   6.204   3.405 -1.5972 -0.9947 -0.7922
  375MOL    H6645694   0.430   6.002   3.559 -1.3876  1.9468 -1.0750
  375MOL    H6745695   0.608   6.019   3.574 -2.3005 -2.9696  0.5395
  375MOL    C6845696   0.488   6.177   3.669  0.1776  0.1405 -0.3506
  375MOL    C6945697   0.474   6.125   3.808 -0.6266 -0.4628 -0.1290
  375MOL    H7045698   0.564   6.255   3.676  0.1281  0.1555  0.0437
  375MOL    H7145699   0.401   6.239   3.644 -1.0475 -1.0332  0.9469
  375MOL    H7245700   0.387   6.060   3.812 -1.0620  0.2361  3.5148
  375MOL    H7345701   0.564   6.066   3.824 -0.5996 -0.2169  0.6600
  375MOL    C7445702   0.462   6.233   3.921 -0.2939 -0.1668  0.0762
  375MOL    C7545703   0.593   6.299   3.965 -0.6084 -0.2278  0.4326
  375MOL    H7645704   0.387   6.299   3.879  0.5322  0.1341 -0.9457
  375MOL    H7745705   0.407   6.188   4.004  1.1404  0.8840  1.6176
  375MOL    H7845706   0.662   6.221   3.997  1.3699  1.3788  0.1650
  375MOL    H7945707   0.632   6.354   3.880 -1.4664 -1.5575 -0.8562
  375MOL    C8045708   0.579   6.393   4.082 -0.6397 -0.9034  0.4938
  375MOL    C8145709   0.699   6.487   4.082  0.7862  0.4721 -0.2833
  375MOL    H8245710   0.484   6.444   4.067 -0.2183  0.4004  2.0523
  375MOL    H8345711   0.577   6.336   4.175  1.3103 -1.0843  0.4338
  375MOL    H8445712   0.787   6.424   4.090  0.5179  0.3021  1.6910
  375MOL    H8545713   0.708   6.543   3.989  0.7297  0.5983 -0.2128
  375MOL    C8645714   0.721   6.580   4.204  0.6616 -0.1333 -0.2729
  375MOL    C8745715   0.867   6.606   4.231 -0.3488 -0.3493 -0.2334
  375MOL    H8845716   0.684   6.679   4.175  0.4547 -0.4232 -1.0062
  375MOL    H8945717   0.663   6.556   4.293 -0.9674  1.2025 -0.9380
  375MOL    H9045718   0.916   6.510   4.244  0.3535  0.0854  0.3552
  375MOL    H9145719   0.915   6.647   4.142  0.4482  2.9206  1.5985
  375MOL    C9245720   0.896   6.693   4.349 -0.4713  0.1687 -0.3716
  375MOL    C9345721   1.037   6.719   4.375 -0.0886 -0.4841 -0.2993
  375MOL    H9445722   0.846   6.789   4.336 -0.4335  0.3777  1.0305
  375MOL    H9545723   0.848   6.658   4.440  0.8485  1.5870  0.8915
  375MOL    H9645724   1.080   6.623   4.402 -0.4339 -1.3047 -2.5771
  375MOL    H9745725   1.090   6.744   4.283 -0.9004  1.6057 -0.2236
  375MOL    C9845726   1.049   6.827   4.494 -0.1345 -0.2551 -0.2918
  375MOL    C9945727   1.187   6.823   4.570  0.6797  0.5624  0.2087
  375MOL   H10045728   1.045   6.926   4.448 -2.6066  0.2810  0.9755
  375MOL   H10145729   0.967   6.806   4.562 -0.4483  0.6733 -0.3808
  375MOL   H10245730   1.256   6.818   4.486  0.7494  1.4219  0.2112
  375MOL   H10345731   1.215   6.921   4.606  1.5882  1.5201 -2.9526
  375MOL   C10445732   1.208   6.699   4.661  0.4756  0.5667  0.0394
  375MOL   C10545733   1.348   6.672   4.716  0.3890  0.4864 -0.0531
  375MOL   H10645734   1.144   6.713   4.748 -0.2551 -0.9645 -0.2237
  375MOL   H10745735   1.178   6.603   4.618 -0.0396  1.1367 -0.8782
  375MOL   H10845736   1.334   6.586   4.782 -0.6897 -0.1487 -1.0882
  375MOL   H10945737   1.420   6.642   4.640 -1.7591  0.1435 -2.0105
  375MOL   C11045738   1.399   6.798   4.801  0.7381  0.8817  0.3347
  375MOL   C11145739   1.535   6.780   4.870 -0.4989 -0.0545 -0.3148
  375MOL   H11245740   1.407   6.881   4.730  1.7707  0.0865 -0.4945
  375MOL   H11345741   1.318   6.819   4.870 -0.0506 -0.4780 -0.1651
  375MOL   H11445742   1.543   6.861   4.941 -3.0579 -1.0312  1.1423
  375MOL   H11545743   1.536   6.686   4.925  1.6345 -0.3804 -0.8357
  375MOL   C11645744   1.651   6.796   4.766  0.2634  0.4822  1.1610
  375MOL   C11745745   1.786   6.828   4.828 -0.7649  0.6447  0.4408
  375MOL   H11845746   1.661   6.707   4.704  1.8079  3.3887 -2.9653
  375MOL   H11945747   1.623   6.872   4.693  0.9180  0.1993  0.6166
  375MOL   H12045748   1.864   6.847   4.754 -0.0301  1.2269  1.3688
  375MOL   H12145749   1.774   6.917   4.890 -0.4579  2.2740 -1.7518
  375MOL   H12245750   1.814   6.736   4.879  0.1431 -0.0408 -1.2438
  376MOL     C145751   5.492   2.410   3.422  0.1810  0.2812 -0.0293
  376MOL     C245752   5.376   2.332   3.357  0.0959 -0.8762 -0.0729
  376MOL     H345753   5.523   2.493   3.359  0.1042  0.4143  0.1069
  376MOL     H445754   5.581   2.350   3.441 -1.6578 -3.1028 -1.6298
  376MOL     H545755   5.295   2.405   3.347 -0.2159 -0.8041  2.7982
  376MOL     H645756   5.408   2.305   3.256  1.5543 -0.4789  0.2728
  376MOL     H745757   5.452   2.461   3.509 -0.2558 -2.1283  1.2300
  376MOL     C845758   5.319   2.211   3.438  0.3441  0.0355 -0.3798
  376MOL     C945759   5.181   2.172   3.387  0.3688  0.1702 -0.2309
  376MOL    H1045760   5.393   2.132   3.424 -0.9701 -1.1770 -0.6482
  376MOL    H1145761   5.312   2.233   3.544  1.7550  2.6984 -0.8050
  376MOL    H1245762   5.110   2.247   3.425  1.7221  2.5937 -2.3543
  376MOL    H1345763   5.178   2.195   3.281  0.8639 -1.0527 -0.5139
  376MOL    C1445764   5.154   2.027   3.432  0.6989 -0.2380 -0.1508
  376MOL    C1545765   5.017   1.984   3.371  0.5551 -0.7194 -0.2719
  376MOL    H1645766   5.231   1.959   3.395  0.8239 -0.7944  1.1172
  376MOL    H1745767   5.153   2.024   3.541  0.5008 -0.5349 -0.1603
  376MOL    H1845768   4.972   1.911   3.439  1.3402 -3.1421 -2.2852
  376MOL    H1945769   4.943   2.065   3.371  0.7905 -0.4949 -1.2812
  376MOL    C2045770   5.026   1.930   3.229  0.4640  0.2945 -0.3036
  376MOL    C2145771   4.900   1.848   3.189  0.7239  0.5675  0.3668
  376MOL    H2245772   5.051   2.010   3.159 -1.0549  2.5939  1.6974
  376MOL    H2345773   5.110   1.861   3.224  1.9905  2.0587  0.4134
  376MOL    H2445774   4.887   1.764   3.258 -0.1148  0.5305  0.1670
  376MOL    H2545775   4.815   1.912   3.210 -0.3634 -0.9217  0.6047
  376MOL    C2645776   4.903   1.797   3.043  0.0945  0.2852  0.4053
  376MOL    C2745777   4.781   1.701   3.006 -0.3841 -0.9081  0.0543
  376MOL    H2845778   4.906   1.885   2.979 -0.6182  1.6259  2.1613
  376MOL    H2945779   5.000   1.754   3.017 -0.4093 -0.7481  0.1916
  376MOL    H3045780   4.757   1.610   3.061 -0.5906 -0.7001  0.3102
  376MOL    H3145781   4.689   1.756   3.026 -0.7503  0.7289 -5.3781
  376MOL    C3245782   4.774   1.669   2.857  0.0849  0.6028 -0.0254
  376MOL    C3345783   4.650   1.593   2.814 -0.3379  0.0172 -0.3530
  376MOL    H3445784   4.792   1.762   2.803  0.0966  1.5780  1.6153
  376MOL    H3545785   4.861   1.609   2.831 -0.8728 -0.3202 -1.1928
  376MOL    H3645786   4.652   1.491   2.853 -0.0751  0.9141  2.0451
  376MOL    H3745787   4.556   1.630   2.855 -0.0881 -3.0275  3.2575
  376MOL    C3845788   4.641   1.596   2.661 -0.4085 -0.4562 -0.1092
  376MOL    C3945789   4.502   1.539   2.614 -0.2384 -0.0538 -0.0190
  376MOL    H4045790   4.640   1.700   2.628 -2.7998 -0.8311 -1.2799
  376MOL    H4145791   4.718   1.547   2.601  0.1525  1.1164 -0.7004
  376MOL    H4245792   4.493   1.431   2.625  2.0298  0.0128  3.3232
  376MOL    H4345793   4.428   1.582   2.682  0.5898  1.0834  0.1802
  376MOL    C4445794   4.459   1.572   2.470 -0.0567  0.0283 -0.1553
  376MOL    C4545795   4.310   1.562   2.438  0.1172  0.1958 -0.3398
  376MOL    H4645796   4.469   1.680   2.463 -1.5399  0.0944 -1.4473
  376MOL    H4745797   4.528   1.526   2.399  1.3544  4.2119 -1.6635
  376MOL    H4845798   4.243   1.602   2.515  0.1485 -0.3732 -0.0156
  376MOL    H4945799   4.293   1.612   2.343  0.6798 -1.2854 -1.2409
  376MOL    C5045800   4.271   1.413   2.418  0.0790  0.4585  0.3702
  376MOL    C5145801   4.120   1.382   2.384 -0.1371 -0.0217  0.3088
  376MOL    H5245802   4.329   1.379   2.333 -2.4016 -1.9348 -0.4531
  376MOL    H5345803   4.307   1.358   2.505  1.6072  0.8223 -0.0175
  376MOL    H5445804   4.081   1.457   2.315 -1.9534 -0.3673  0.9145
  376MOL    H5545805   4.110   1.283   2.339 -1.3181 -0.1274  0.7909
  376MOL    C5645806   4.021   1.390   2.496  0.4962 -0.1414  0.4885
  376MOL    C5745807   3.879   1.367   2.462  0.2869 -0.9027  0.5728
  376MOL    H5845808   4.059   1.319   2.570  4.1128 -1.6831 -2.6414
  376MOL    H5945809   4.037   1.492   2.531 -1.5735  0.2013  0.4652
  376MOL    H6045810   3.865   1.405   2.361  1.1971 -2.5763 -0.2147
  376MOL    H6145811   3.882   1.262   2.434 -3.7006 -1.0842  0.4738
  376MOL    C6245812   3.770   1.406   2.562 -0.4407  1.1159 -0.4946
  376MOL    C6345813   3.631   1.330   2.536  0.0941 -0.1967 -0.6974
  376MOL    H6445814   3.805   1.374   2.660 -1.4372  0.6885 -0.2839
  376MOL    H6545815   3.754   1.514   2.557 -0.9268  1.1281  1.0811
  376MOL    H6645816   3.588   1.383   2.451 -2.4694 -0.5220  0.3441
  376MOL    H6745817   3.654   1.225   2.521  0.2371 -0.3095  0.2945
  376MOL    C6845818   3.535   1.354   2.652 -0.2947  0.5907  0.1426
  376MOL    C6945819   3.393   1.302   2.625  0.4528 -0.2339  0.0800
  376MOL    H7045820   3.583   1.323   2.745  0.3784 -0.4977 -0.5442
  376MOL    H7145821   3.525   1.461   2.668  1.7395  0.6096  1.3957
  376MOL    H7245822   3.364   1.368   2.543  2.3589  1.2063  0.5156
  376MOL    H7345823   3.390   1.197   2.597  0.3301 -0.8436  2.3261
  376MOL    C7445824   3.298   1.306   2.742 -1.1853 -0.3879 -0.7508
  376MOL    C7545825   3.153   1.265   2.712 -0.7707 -0.1823  0.0140
  376MOL    H7645826   3.330   1.259   2.835  2.0802  0.2412 -1.4749
  376MOL    H7745827   3.289   1.406   2.783  0.8646  0.0649 -1.3113
  376MOL    H7845828   3.126   1.321   2.622  1.0461  2.2139  0.9014
  376MOL    H7945829   3.137   1.162   2.679  3.7979 -1.3812  1.2323
  376MOL    C8045830   3.042   1.298   2.807 -0.7724  0.1212  0.4790
  376MOL    C8145831   3.022   1.200   2.914  0.3248  0.5022  0.5220
  376MOL    H8245832   3.071   1.399   2.836  2.9891 -0.8767  0.4335
  376MOL    H8345833   2.944   1.308   2.760 -0.8710  0.5239  0.7646
  376MOL    H8445834   3.001   1.105   2.866  0.5573  1.4691 -1.5448
  376MOL    H8545835   3.114   1.188   2.971  0.4306  0.2694  0.3028
  376MOL    C8645836   2.902   1.235   2.998  0.2382  0.0371  0.3043
  376MOL    C8745837   2.871   1.122   3.097  0.1281  0.3637  0.2250
  376MOL    H8845838   2.915   1.330   3.050  1.2599  0.1652 -0.1733
  376MOL    H8945839   2.824   1.244   2.923 -0.5747  1.1667  1.2596
  376MOL    H9045840   2.868   1.020   3.058 -1.6216  1.1108 -1.6619
  376MOL    H9145841   2.957   1.105   3.163 -0.0692  0.3314  0.4730
  376MOL    C9245842   2.747   1.154   3.185 -0.0004 -0.1350  0.3788
  376MOL    C9345843   2.747   1.064   3.308  0.2858 -0.3708 -0.1629
  376MOL    H9445844   2.749   1.254   3.227 -1.9369  0.1153 -0.0688
  376MOL    H9545845   2.653   1.144   3.130 -0.3902  0.6257  0.9082
  376MOL    H9645846   2.720   0.963   3.278  0.3828 -0.9800  1.7420
  376MOL    H9745847   2.843   1.053   3.360  0.9728  0.9117 -1.1319
  376MOL    C9845848   2.643   1.111   3.408 -0.1655  0.2853 -0.3505
  376MOL    C9945849   2.671   1.060   3.552  0.2058  0.5377  0.2969
  376MOL   H10045850   2.632   1.219   3.396  0.1298  0.4450  0.8305
  376MOL   H10145851   2.542   1.087   3.374 -0.3167  0.2158  0.1492
  376MOL   H10245852   2.645   0.954   3.553  2.4644 -0.0788 -2.0012
  376MOL   H10345853   2.777   1.064   3.576  0.6688 -1.8615 -1.1475
  376MOL   C10445854   2.590   1.135   3.660 -0.1209 -0.1286  0.3944
  376MOL   C10545855   2.609   1.082   3.808 -0.5248  0.0317  0.0215
  376MOL   H10645856   2.621   1.239   3.660  1.1832 -0.5116 -0.1653
  376MOL   H10745857   2.484   1.134   3.636  0.0466  0.2348 -0.3650
  376MOL   H10845858   2.546   1.145   3.872  2.1580  2.6707  0.1804
  376MOL   H10945859   2.574   0.979   3.816 -1.6421  0.5994  3.0655
  376MOL   C11045860   2.753   1.085   3.862  0.7548  0.1574 -0.3399
  376MOL   C11145861   2.834   1.215   3.846 -1.2444 -0.4471 -0.5298
  376MOL   H11245862   2.748   1.062   3.968 -1.0675  2.3909  0.0761
  376MOL   H11345863   2.813   1.003   3.821  0.3257 -0.4660  0.2773
  376MOL   H11445864   2.840   1.233   3.739  0.1823  0.9833 -0.2361
  376MOL   H11545865   2.768   1.294   3.881 -1.3807 -1.3880  1.4421
  376MOL   C11645866   2.973   1.215   3.918 -0.9377 -0.7044  0.1713
  376MOL   C11745867   3.072   1.115   3.849  0.0838  0.2917  0.7205
  376MOL   H11845868   3.023   1.310   3.899 -0.8644 -0.5713  1.0395
  376MOL   H11945869   2.966   1.185   4.022  2.9233 -1.0367  0.4369
  376MOL   H12045870   3.083   1.145   3.745 -0.3772 -1.2488  0.2130
  376MOL   H12145871   3.169   1.114   3.898  0.5879 -0.1537 -0.2849
  376MOL   H12245872   3.035   1.012   3.846  0.1734  0.2158  1.8481
  377MOL     C145873   0.780   0.809   4.060  0.0168 -0.4960 -0.4852
  377MOL     C245874   0.915   0.763   4.115 -0.3572  0.0898 -0.5862
  377MOL     H345875   0.793   0.900   4.000  0.9322  2.6170  4.1198
  377MOL     H445876   0.706   0.825   4.138  1.4297 -0.1006  0.8108
  377MOL     H545877   0.914   0.666   4.164 -1.1551  0.2479 -0.2754
  377MOL     H645878   0.990   0.749   4.037 -1.5658 -1.2515 -1.5273
  377MOL     H745879   0.732   0.732   4.001  1.7879 -1.9764 -0.0263
  377MOL     C845880   0.987   0.851   4.217  0.7302  0.1209  0.4873
  377MOL     C945881   0.917   0.822   4.355 -0.8598 -0.1744 -0.3120
  377MOL    H1045882   1.094   0.831   4.230  1.5657  2.6125 -1.9536
  377MOL    H1145883   0.973   0.954   4.184 -0.3440 -0.3576 -0.5598
  377MOL    H1245884   0.820   0.872   4.344 -0.5155 -0.1461 -3.6469
  377MOL    H1345885   0.881   0.721   4.375 -1.6031  0.3075  0.8868
  377MOL    C1445886   0.984   0.868   4.484 -0.5476 -0.3094  0.2698
  377MOL    C1545887   1.131   0.829   4.503  0.1987 -0.4308 -0.3558
  377MOL    H1645888   0.981   0.977   4.483 -2.1655 -0.3488 -2.9808
  377MOL    H1745889   0.928   0.846   4.575 -0.4427 -0.7733  0.2243
  377MOL    H1845890   1.158   0.741   4.444  1.6094  0.1508 -0.6013
  377MOL    H1945891   1.200   0.903   4.463  0.2991 -1.0400 -1.3328
  377MOL    C2045892   1.179   0.800   4.646 -0.1490  0.2947 -0.5066
  377MOL    C2145893   1.210   0.921   4.728 -0.5299 -0.6527 -0.2954
  377MOL    H2245894   1.116   0.726   4.694  1.2128  0.0971  1.0148
  377MOL    H2345895   1.276   0.752   4.632 -0.2352  0.3448 -1.3076
  377MOL    H2445896   1.269   0.889   4.814 -2.5905 -1.9752  0.6827
  377MOL    H2545897   1.276   0.984   4.669  0.0711  1.0142  2.0620
  377MOL    C2645898   1.098   1.008   4.775 -0.2791 -0.4922  0.1304
  377MOL    C2745899   0.996   0.944   4.867 -0.2331 -0.1959  0.4552
  377MOL    H2845900   1.133   1.095   4.831 -1.8419  0.5852 -0.5024
  377MOL    H2945901   1.038   1.045   4.692  0.4341 -2.0656 -1.1017
  377MOL    H3045902   0.954   0.862   4.808  0.0424  0.1853 -0.2791
  377MOL    H3145903   1.054   0.900   4.949 -2.1479 -2.2807  0.7351
  377MOL    C3245904   0.879   1.040   4.909  0.6046 -0.1666  0.2375
  377MOL    C3345905   0.760   0.969   4.971 -0.7443 -0.4010  0.6430
  377MOL    H3445906   0.908   1.119   4.978 -0.1093  1.0271 -0.8274
  377MOL    H3545907   0.847   1.099   4.823  0.7847  0.8971  0.8978
  377MOL    H3645908   0.714   0.906   4.895  2.7152 -0.6758 -1.3416
  377MOL    H3745909   0.797   0.896   5.042  1.1136 -0.7232 -0.6218
  377MOL    C3845910   0.658   1.067   5.030  0.7310  0.2015  0.6204
  377MOL    C3945911   0.540   1.002   5.100 -0.2345  0.5463 -0.4981
  377MOL    H4045912   0.715   1.138   5.091  1.7700  0.5935 -0.7715
  377MOL    H4145913   0.615   1.131   4.953  2.1164 -0.2825 -0.5909
  377MOL    H4245914   0.498   0.916   5.048 -0.5399 -0.8388  1.9329
  377MOL    H4345915   0.588   0.962   5.189 -0.9772 -1.7957 -1.1249
  377MOL    C4445916   0.429   1.096   5.138  0.3531 -0.2841 -0.2201
  377MOL    C4545917   0.305   1.026   5.191 -0.1984  0.2712 -0.7722
  377MOL    H4645918   0.465   1.172   5.208  0.4908 -0.8347  0.3159
  377MOL    H4745919   0.399   1.154   5.051  1.5370  0.0222 -0.4370
  377MOL    H4845920   0.270   0.948   5.123 -0.2589 -0.1607 -0.2440
  377MOL    H4945921   0.334   0.978   5.284  0.5426  0.5958 -0.8315
  377MOL    C5045922   0.204   1.135   5.238  0.4185 -0.0276 -0.1775
  377MOL    C5145923   0.080   1.073   5.316  0.2012 -0.4993  0.7288
  377MOL    H5245924   0.256   1.209   5.298 -0.1917  1.8705 -1.9189
  377MOL    H5345925   0.163   1.196   5.157  1.3896 -0.8020 -1.2757
  377MOL    H5445926   0.027   0.997   5.259  0.4476 -0.4529  0.4394
  377MOL    H5545927   0.109   1.028   5.411 -0.1956  0.4288  1.2969
  377MOL    C5645928   7.655   1.173   5.351 -0.7668 -0.2217 -0.3453
  377MOL    C5745929   7.534   1.104   5.414  0.7240 -0.4244  0.4506
  377MOL    H5845930   0.013   1.246   5.416  0.7994 -1.2236 -0.3891
  377MOL    H5945931   7.624   1.226   5.262  1.5917  2.0747  0.1205
  377MOL    H6045932   7.494   1.042   5.335  0.0724  0.0888  0.3721
  377MOL    H6145933   7.564   1.036   5.494  1.0964 -0.5230  0.2262
  377MOL    C6245934   7.432   1.207   5.457 -0.5326 -0.1976 -0.4803
  377MOL    C6345935   7.317   1.142   5.520  0.1202  0.5382  0.5811
  377MOL    H6445936   7.481   1.272   5.530  0.3462 -0.7399 -0.5912
  377MOL    H6545937   7.402   1.260   5.366 -0.7609 -1.3692 -1.0893
  377MOL    H6645938   7.269   1.079   5.445  0.4680  2.5772 -1.3889
  377MOL    H6745939   7.341   1.085   5.610 -1.0634  0.7454  1.0387
  377MOL    C6845940   7.210   1.244   5.560  0.3883  0.0457 -0.0689
  377MOL    C6945941   7.099   1.186   5.641 -0.3824 -0.6072  0.4400
  377MOL    H7045942   7.261   1.327   5.609  1.2859  1.4980 -3.3302
  377MOL    H7145943   7.165   1.297   5.476 -1.0679 -1.1993 -0.0802
  377MOL    H7245944   7.051   1.095   5.608 -1.2761 -0.1543  0.4727
  377MOL    H7345945   7.145   1.158   5.736 -0.5435 -0.8240  0.4531
  377MOL    C7445946   6.995   1.294   5.694 -0.5146 -0.1015  0.0228
  377MOL    C7545947   6.908   1.242   5.812  0.0856  0.3967  0.1541
  377MOL    H7645948   7.032   1.394   5.719 -1.2647 -0.4960  2.9470
  377MOL    H7745949   6.935   1.313   5.605  0.3166 -2.3124 -1.0608
  377MOL    H7845950   6.855   1.155   5.774  0.7752  0.5282 -1.1540
  377MOL    H7945951   6.977   1.200   5.885 -0.5329 -2.2192 -0.7082
  377MOL    C8045952   6.819   1.348   5.873 -0.6092 -0.8441  0.5115
  377MOL    C8145953   6.733   1.289   5.984 -0.8481  0.8579  0.5153
  377MOL    H8245954   6.881   1.427   5.916 -2.7912 -0.0273  2.1948
  377MOL    H8345955   6.748   1.400   5.809  0.1813 -0.3836 -0.0056
  377MOL    H8445956   6.687   1.203   5.934  3.6093 -2.0996  1.1604
  377MOL    H8545957   6.792   1.241   6.061 -0.5382 -0.9511 -0.8051
  377MOL    C8645958   6.637   1.389   6.052 -0.1683  0.1492 -0.5167
  377MOL    C8745959   6.677   1.427   6.194 -0.2300  0.4315 -0.0246
  377MOL    H8845960   6.633   1.478   5.989  1.2272 -1.8103 -3.4977
  377MOL    H8945961   6.542   1.336   6.048 -0.9276  1.5078 -0.9348
  377MOL    H9045962   6.583   1.438   6.248 -1.4230  1.9804 -2.2971
  377MOL    H9145963   6.732   1.345   6.239  0.9607  0.1257 -1.9506
  377MOL    C9245964   6.758   1.563   6.207 -0.2947 -0.6333  0.2143
  377MOL    C9345965   6.823   1.568   6.344  0.1823 -0.4399  0.6330
  377MOL    H9445966   6.832   1.577   6.129  2.8533  0.6998  3.3460
  377MOL    H9545967   6.689   1.646   6.192 -0.3803 -1.0238 -1.6402
  377MOL    H9645968   6.754   1.537   6.422  1.9926 -0.5691  2.2141
  377MOL    H9745969   6.902   1.493   6.353  1.2746  0.6353  0.2509
  377MOL    C9845970   6.883   1.697   6.381  0.4439  0.4384 -0.1333
  377MOL    C9945971   6.957   1.698   6.513 -0.6089 -0.0863  0.7676
  377MOL   H10045972   6.953   1.712   6.299 -0.9355 -1.7629 -1.7495
  377MOL   H10145973   6.804   1.772   6.375 -0.6376 -0.6089  0.6983
  377MOL   H10245974   6.884   1.678   6.592 -1.9201  0.9200 -0.1674
  377MOL   H10345975   7.014   1.605   6.510  1.9791  1.4931 -0.3072
  377MOL   C10445976   7.041   1.827   6.523  0.7391  0.3605  0.3068
  377MOL   C10545977   7.094   1.841   6.668  0.3412 -0.8755  0.0917
  377MOL   H10645978   7.123   1.844   6.453  0.9612  0.2264  0.5362
  377MOL   H10745979   6.967   1.907   6.511 -0.5326 -0.9180 -0.5408
  377MOL   H10845980   7.019   1.826   6.746 -1.6976 -1.3590 -1.8850
  377MOL   H10945981   7.174   1.770   6.690  0.8649 -0.5949 -0.8981
  377MOL   C11045982   7.147   1.983   6.694  0.5332 -0.1562  0.1637
  377MOL   C11145983   7.130   2.015   6.849 -0.9552  0.6339  0.2623
  377MOL   H11245984   7.244   2.008   6.652 -1.1322  2.8700 -2.0801
  377MOL   H11345985   7.079   2.053   6.646  0.3078 -0.0352  0.6521
  377MOL   H11445986   7.026   2.000   6.881 -0.6214 -0.3881  0.9017
  377MOL   H11545987   7.191   1.945   6.906  0.7808  0.2760 -1.9760
  377MOL   C11645988   7.184   2.154   6.880 -0.0313  0.0116 -0.3726
  377MOL   C11745989   7.171   2.180   7.041 -0.3837 -0.2211 -0.6008
  377MOL   H11845990   7.290   2.171   6.858 -0.5864  1.6267 -1.8933
  377MOL   H11945991   7.133   2.233   6.827  1.2253  0.2842 -1.2042
  377MOL   H12045992   7.184   2.092   7.104  3.5111  1.7717  1.5997
  377MOL   H12145993   7.235   2.259   7.080 -1.0738 -1.5685  3.5118
  377MOL   H12245994   7.073   2.225   7.052 -0.3640 -0.0692 -1.0280
  378MOL     C145995   3.177   1.142   6.357  0.2728  0.4155 -0.7900
  378MOL     C245996   3.056   1.147   6.456 -0.5604 -0.1204 -0.8040
  378MOL     H345997   3.259   1.094   6.411 -0.3622 -0.0284 -0.2017
  378MOL     H445998   3.208   1.245   6.340 -1.1503  0.9589 -0.2223
  378MOL     H545999   3.083   1.221   6.531 -1.5089  0.8681 -1.4305
  378MOL     H646000   2.968   1.171   6.396  0.0259  1.3917 -1.0716
  378MOL     H746001   3.152   1.088   6.266 -0.5541 -2.0134  0.8224
  378MOL     C846002   3.031   1.018   6.540  0.2580  0.3881  0.1210
  378MOL     C946003   2.911   1.028   6.632  0.8882  0.2198  0.2760
  378MOL    H1046004   3.022   0.933   6.472  1.6216  1.8769 -1.9593
  378MOL    H1146005   3.117   0.995   6.603 -0.5620 -2.9292  0.1248
  378MOL    H1246006   2.927   1.116   6.693 -1.7776  1.1484 -0.2997
  378MOL    H1346007   2.835   1.048   6.556  0.7683  0.1443  0.3763
  378MOL    C1446008   2.892   0.897   6.714 -0.2217 -0.1832 -0.0987
  378MOL    C1546009   2.775   0.916   6.823 -0.5532 -0.2083 -0.4480
  378MOL    H1646010   2.859   0.812   6.655 -0.1317  1.2701 -2.2898
  378MOL    H1746011   2.985   0.871   6.765  0.1135 -0.7948 -1.0105
  378MOL    H1846012   2.680   0.921   6.769 -0.5007  1.4727 -0.4229
  378MOL    H1946013   2.761   0.827   6.884  2.0302 -1.9258 -2.2205
  378MOL    C2046014   2.779   1.038   6.915  0.5220 -0.0577 -0.5953
  378MOL    C2146015   2.666   1.040   7.020 -0.0118  0.4825  0.4836
  378MOL    H2246016   2.876   1.052   6.963 -1.1149 -2.2772  3.5701
  378MOL    H2346017   2.771   1.129   6.855 -0.5587  0.5138  0.4026
  378MOL    H2446018   2.632   1.136   7.059 -1.5379 -0.1495  0.6995
  378MOL    H2546019   2.571   1.012   6.977 -0.8202  2.3201  1.0045
  378MOL    C2646020   2.706   0.958   7.140 -0.1651 -0.4038 -0.4200
  378MOL    C2746021   2.607   0.987   7.264  0.5964  0.2083 -0.1878
  378MOL    H2846022   2.689   0.853   7.117 -2.1061 -0.2772  0.2474
  378MOL    H2946023   2.810   0.977   7.167 -1.0370  0.5321  2.5919
  378MOL    H3046024   2.660   0.948   7.351 -0.4603  1.0028  0.8175
  378MOL    H3146025   2.595   1.094   7.281  2.1881  0.1706  1.2449
  378MOL    C3246026   2.468   0.926   7.246 -0.5013  0.6629  0.4523
  378MOL    C3346027   2.357   0.952   7.352  0.1697  0.2622  0.2575
  378MOL    H3446028   2.417   0.945   7.151 -1.3777  0.4870  0.8817
  378MOL    H3546029   2.482   0.818   7.246  1.9997  0.9755  0.2102
  378MOL    H3646030   2.397   0.978   7.450  0.3586  3.9216 -0.7369
  378MOL    H3746031   2.326   1.054   7.331 -1.6585  0.0097  1.5855
  378MOL    C3846032   2.244   0.856   7.341  0.3029  0.1394  0.4541
  378MOL    C3946033   2.122   0.891   7.428 -0.5916  0.3206 -0.0218
  378MOL    H4046034   2.221   0.833   7.237  0.2351  0.2153  0.4525
  378MOL    H4146035   2.282   0.757   7.367 -0.1836 -0.2071 -0.1643
  378MOL    H4246036   2.141   0.883   7.535  1.7869  1.3594 -0.3284
  378MOL    H4346037   2.092   0.995   7.417  1.0388  1.0534  1.9766
  378MOL    C4446038   2.005   0.805   7.400  0.1237  0.0963  0.1543
  378MOL    C4546039   1.883   0.838   7.477  0.2744 -0.6420  0.4183
  378MOL    H4646040   1.966   0.811   7.298 -1.3962 -0.8316  0.6610
  378MOL    H4746041   2.035   0.700   7.394 -1.6288 -0.3384 -1.3644
  378MOL    H4846042   1.907   0.858   7.581  1.6713  2.0967 -0.4042
  378MOL    H4946043   1.844   0.935   7.448 -2.0807 -2.6076 -3.3429
  378MOL    C5046044   1.768   0.739   7.462 -0.0179  0.3825  0.5270
  378MOL    C5146045   1.699   0.741   7.320  0.2302  0.2496 -0.1503
  378MOL    H5246046   1.799   0.636   7.480 -1.0929  0.3860  2.5000
  378MOL    H5346047   1.690   0.778   7.528 -0.8957 -1.8739  0.8938
  378MOL    H5446048   1.694   0.843   7.283  0.4141  0.5728  0.7170
  378MOL    H5546049   1.749   0.679   7.245  1.7994 -1.1825  1.9892
  378MOL    C5646050   1.560   0.691   7.334  0.1774  0.3471  0.0093
  378MOL    C5746051   1.479   0.736   7.207 -0.0267 -0.7408  0.3267
  378MOL    H5846052   1.558   0.582   7.340 -0.5046  0.1456 -3.0793
  378MOL    H5946053   1.511   0.723   7.426  0.4323  1.4243 -0.2208
  378MOL    H6046054   1.521   0.702   7.113  3.6739  1.2504  1.1401
  378MOL    H6146055   1.390   0.673   7.208  0.0175 -0.7930  1.2174
  378MOL    C6246056   1.423   0.877   7.212 -0.0726  0.4458 -0.2828
  378MOL    C6346057   1.363   0.927   7.084 -0.7205 -0.0404 -0.7000
  378MOL    H6446058   1.351   0.890   7.293  0.5988 -3.4462  1.0233
  378MOL    H6546059   1.492   0.948   7.257 -1.4597  0.9164  1.1575
  378MOL    H6646060   1.430   0.920   6.998 -0.7025 -2.6612 -0.5071
  378MOL    H6746061   1.279   0.859   7.070  0.0043 -0.8630 -1.0726
  378MOL    C6846062   1.303   1.072   7.095  0.8761 -0.1137  0.7147
  378MOL    C6946063   1.395   1.181   7.130 -0.3809 -0.5363  0.0415
  378MOL    H7046064   1.255   1.096   7.000  0.9930 -0.7333  0.5000
  378MOL    H7146065   1.229   1.074   7.175  2.1050  0.5683  1.8620
  378MOL    H7246066   1.337   1.271   7.150 -1.2658 -0.7347 -1.5176
  378MOL    H7346067   1.436   1.160   7.229  1.5551  2.6038 -0.0060
  378MOL    C7446068   1.511   1.202   7.035  0.2016  0.3438 -0.3485
  378MOL    C7546069   1.644   1.126   7.079 -0.3182  0.4542 -0.2508
  378MOL    H7646070   1.497   1.150   6.940  0.9264 -2.8793  1.2156
  378MOL    H7746071   1.525   1.303   6.999  1.0653  0.0864 -0.7375
  378MOL    H7846072   1.632   1.021   7.108 -0.6814  0.6676  0.3853
  378MOL    H7946073   1.702   1.116   6.987 -0.8670  0.6543 -0.6209
  378MOL    C8046074   1.725   1.203   7.190 -0.0200 -0.0805  0.4167
  378MOL    C8146075   1.875   1.156   7.196 -0.2989 -0.1728  0.6369
  378MOL    H8246076   1.707   1.310   7.182 -1.4622 -0.4781 -2.0724
  378MOL    H8346077   1.692   1.173   7.290 -0.6448  0.0283  0.2469
  378MOL    H8446078   1.924   1.207   7.279  0.4716 -0.2570  0.2391
  378MOL    H8546079   1.881   1.049   7.215  1.4885 -0.5783 -1.8700
  378MOL    C8646080   1.958   1.180   7.069  0.3138 -0.3549 -0.3989
  378MOL    C8746081   2.119   1.198   7.095 -0.1410  0.0221  0.3058
  378MOL    H8846082   1.932   1.091   7.012  1.5191 -1.4957  0.7949
  378MOL    H8946083   1.916   1.263   7.013 -1.0121  2.5960  4.6231
  378MOL    H9046084   2.135   1.288   7.155  0.8512 -0.6756  1.1015
  378MOL    H9146085   2.158   1.110   7.146  0.2662  0.2175  0.3361
  378MOL    C9246086   2.212   1.217   6.976 -0.3404  0.4725  0.3953
  378MOL    C9346087   2.200   1.129   6.845  0.1841  0.1675 -0.1586
  378MOL    H9446088   2.185   1.318   6.946  1.8263  0.5851 -1.3405
  378MOL    H9546089   2.315   1.211   7.013  0.2743 -1.6000 -1.5403
  378MOL    H9646090   2.104   1.146   6.795 -0.6131  0.0330  1.2989
  378MOL    H9746091   2.277   1.161   6.775  2.0183 -2.7387  0.4664
  378MOL    C9846092   2.217   0.971   6.872 -0.7009  0.7450 -0.2237
  378MOL    C9946093   2.233   0.897   6.737  0.5479 -0.3684 -1.2298
  378MOL   H10046094   2.317   0.963   6.915  0.3433  1.7676 -2.3694
  378MOL   H10146095   2.133   0.934   6.931 -0.2106  0.2186  0.1348
  378MOL   H10246096   2.141   0.878   6.682  0.0337  1.7011 -1.1284
  378MOL   H10346097   2.298   0.947   6.665  0.4724 -1.3933 -2.0203
  378MOL   C10446098   2.308   0.759   6.743  0.8641 -0.8343 -0.6472
  378MOL   C10546099   2.331   0.696   6.603 -0.8377  0.2034 -1.1231
  378MOL   H10646100   2.399   0.773   6.800 -0.2907 -1.7245  1.4480
  378MOL   H10746101   2.258   0.685   6.805 -1.3693  0.8899 -0.3536
  378MOL   H10846102   2.231   0.673   6.565 -0.9961  1.1872 -1.3101
  378MOL   H10946103   2.370   0.777   6.541  0.2144 -0.2479 -1.0464
  378MOL   C11046104   2.419   0.575   6.608 -0.0516 -0.8143  0.6213
  378MOL   C11146105   2.461   0.537   6.471  0.0121 -0.9009  0.5685
  378MOL   H11246106   2.513   0.597   6.659  0.7068 -1.7160 -0.3614
  378MOL   H11346107   2.371   0.496   6.666 -1.5368 -0.9565 -0.7475
  378MOL   H11446108   2.379   0.510   6.405  1.6832 -0.5724 -1.7066
  378MOL   H11546109   2.506   0.629   6.434 -1.7978 -0.2306 -0.0389
  378MOL   C11646110   2.557   0.423   6.477 -0.4520  0.2003 -0.3179
  378MOL   C11746111   2.588   0.376   6.335  0.5853 -0.5059 -0.1131
  378MOL   H11846112   2.655   0.464   6.503 -1.4388  3.1870 -1.0883
  378MOL   H11946113   2.519   0.344   6.541  0.7569  1.2606  1.8070
  378MOL   H12046114   2.672   0.307   6.326  0.3701 -0.7833 -0.0092
  378MOL   H12146115   2.498   0.329   6.294 -0.7082  2.3175 -0.6644
  378MOL   H12246116   2.615   0.463   6.276  2.1437 -1.3429 -0.6625
  379MOL     C146117   6.622   2.704   7.180  0.7772 -0.7914  0.0002
  379MOL     C246118   6.590   2.588   7.275 -0.1598 -0.4915 -0.3631
  379MOL     H346119   6.537   2.737   7.120  0.4732 -1.9831 -0.2322
  379MOL     H446120   6.709   2.671   7.123  2.6457  0.1421  2.2352
  379MOL     H546121   6.681   2.560   7.329  2.0391  0.6563 -3.3320
  379MOL     H646122   6.522   2.623   7.353 -0.8011 -0.6605 -0.8447
  379MOL     H746123   6.674   2.785   7.231 -0.3807 -0.3551  0.5062
  379MOL     C846124   6.527   2.460   7.208  0.3696 -0.0470  0.6677
  379MOL     C946125   6.494   2.344   7.318 -0.1925  0.4808  0.1470
  379MOL    H1046126   6.431   2.491   7.167 -0.5926  0.6017  3.2531
  379MOL    H1146127   6.578   2.410   7.126 -1.4196 -1.5423  0.4408
  379MOL    H1246128   6.581   2.279   7.317 -1.1465 -0.7937 -1.3981
  379MOL    H1346129   6.489   2.381   7.421 -0.6782  0.2329  0.2107
  379MOL    C1446130   6.368   2.267   7.289 -0.2409  0.0156 -0.6157
  379MOL    C1546131   6.360   2.148   7.396 -0.5609  0.2341 -0.1007
  379MOL    H1646132   6.277   2.323   7.310  0.0178 -0.4691  2.0367
  379MOL    H1746133   6.367   2.234   7.186 -0.3571  0.4968 -0.7681
  379MOL    H1846134   6.433   2.069   7.377 -1.0777  0.3641 -2.9350
  379MOL    H1946135   6.379   2.177   7.499  1.1909  0.3060 -0.4343
  379MOL    C2046136   6.219   2.087   7.390 -0.0765  1.1255  0.3630
  379MOL    C2146137   6.203   1.956   7.469  0.3502 -0.7790 -0.1069
  379MOL    H2246138   6.141   2.160   7.410 -3.5835 -2.0223 -1.1114
  379MOL    H2346139   6.196   2.060   7.287 -0.0049 -0.8413  0.8494
  379MOL    H2446140   6.109   1.903   7.451  0.5300 -0.6213 -1.5512
  379MOL    H2546141   6.280   1.883   7.443  2.4692  1.2447  0.2932
  379MOL    C2646142   6.227   1.984   7.620  0.5467  0.4269 -0.4787
  379MOL    C2746143   6.214   1.851   0.003  0.2820  0.6405  0.1813
  379MOL    H2846144   6.318   2.038   7.645  0.2973  0.0738  1.2035
  379MOL    H2946145   6.146   2.045   7.659  0.4164  0.1098 -0.2505
  379MOL    H3046146   6.132   1.788   7.660 -0.0770 -0.1309  2.3605
  379MOL    H3146147   6.311   1.800   7.686  0.5419  1.0950  0.4223
  379MOL    C3246148   6.197   1.875   0.151  0.0793 -0.2012  0.2634
  379MOL    C3346149   6.176   1.749   0.238  0.5721  0.3940 -0.6899
  379MOL    H3446150   6.277   1.929   0.201  0.7538 -1.5032  0.6176
  379MOL    H3546151   6.098   1.920   0.148  0.5505  0.6989 -2.4326
  379MOL    H3646152   6.104   1.778   0.314 -0.0949  0.0133 -1.1736
  379MOL    H3746153   6.114   1.675   0.188 -0.6881  0.8685  0.1500
  379MOL    C3846154   6.304   1.689   0.297  0.1268 -0.0899  0.2362
  379MOL    C3946155   6.281   1.551   0.352 -0.2617 -0.2623  0.0539
  379MOL    H4046156   6.376   1.682   0.216 -0.5683 -1.2845 -0.2872
  379MOL    H4146157   6.358   1.754   0.367 -1.2480 -0.0750  1.3057
  379MOL    H4246158   6.204   1.550   0.429 -0.4499 -3.4888 -0.0826
  379MOL    H4346159   6.237   1.494   0.270  1.1769  0.8290 -1.5082
  379MOL    C4446160   6.404   1.473   0.393  1.3734  0.1198  0.1071
  379MOL    C4546161   6.376   1.364   0.491  0.3260 -0.3894  0.0541
  379MOL    H4646162   6.453   1.426   0.308  1.4624  0.8486 -0.2482
  379MOL    H4746163   6.474   1.543   0.439  1.2520 -0.4429  1.1627
  379MOL    H4846164   6.327   1.404   0.580 -0.6258 -0.1606 -0.5748
  379MOL    H4946165   6.308   1.290   0.450 -0.9342  0.0913  1.2545
  379MOL    C5046166   6.507   1.292   0.540 -0.3845  0.1212 -0.4846
  379MOL    C5146167   6.477   1.200   0.669  0.9624 -0.3877 -0.2763
  379MOL    H5246168   6.535   1.217   0.467  2.8004  0.2606  0.5273
  379MOL    H5346169   6.584   1.365   0.565 -0.2348 -0.0578 -0.4273
  379MOL    H5446170   6.463   1.268   0.753  0.3875 -0.5912 -0.2018
  379MOL    H5546171   6.378   1.161   0.645  0.3380  0.6155  0.6745
  379MOL    C5646172   6.571   1.084   0.694 -0.5085  0.1205 -0.0365
  379MOL    C5746173   6.502   0.975   0.785 -0.4032 -0.1155 -0.7936
  379MOL    H5846174   6.601   1.039   0.599  0.8810  4.6278 -1.8627
  379MOL    H5946175   6.656   1.125   0.748 -0.0987 -1.4568  0.5585
  379MOL    H6046176   6.486   1.015   0.885 -1.6388  0.7681 -1.3425
  379MOL    H6146177   6.405   0.938   0.754 -0.1406 -1.8445  0.3450
  379MOL    C6246178   6.624   0.863   0.794 -0.1439  0.1047 -0.0332
  379MOL    C6346179   6.573   0.748   0.886  0.0216 -1.8443  0.7530
  379MOL    H6446180   6.640   0.819   0.696 -0.1757 -0.7440  0.3450
  379MOL    H6546181   6.718   0.911   0.823  1.0496 -2.2259  0.0197
  379MOL    H6646182   6.559   0.791   0.985  3.8661 -0.4595  0.7729
  379MOL    H6746183   6.475   0.712   0.856 -1.1668  2.8255 -1.5819
  379MOL    C6846184   6.673   0.631   0.903 -0.5150 -0.3523  0.3505
  379MOL    C6946185   6.714   0.545   0.777 -0.4672  0.1896  0.3755
  379MOL    H7046186   6.766   0.670   0.945  0.5007  0.8482 -2.8608
  379MOL    H7146187   6.634   0.574   0.987  0.8474  0.0687  1.2927
  379MOL    H7246188   6.764   0.600   0.697 -0.5213 -0.8461 -0.3888
  379MOL    H7346189   6.797   0.482   0.809  0.2068  1.0673  0.3635
  379MOL    C7446190   6.592   0.467   0.727  0.4273 -0.2440  0.2677
  379MOL    C7546191   6.604   0.417   0.588  0.4291 -0.3409  0.7236
  379MOL    H7646192   6.565   0.396   0.805 -1.3699 -0.7336 -0.7816
  379MOL    H7746193   6.508   0.535   0.741 -0.7475 -1.7753  0.8048
  379MOL    H7846194   6.575   0.501   0.525  0.8459  0.2759  1.3409
  379MOL    H7946195   6.707   0.393   0.564  0.3629 -0.4030  0.5021
  379MOL    C8046196   6.494   0.309   0.557 -0.0224  0.3964 -1.1467
  379MOL    C8146197   6.503   0.263   0.414 -0.1463 -0.2838  0.8245
  379MOL    H8246198   6.503   0.224   0.625 -1.6817  2.4998  1.7869
  379MOL    H8346199   6.392   0.339   0.578  0.7625  1.2243  1.7915
  379MOL    H8446200   6.484   0.342   0.341  1.9557 -0.8439 -0.3670
  379MOL    H8546201   6.602   0.232   0.381 -0.4942  0.8300 -1.3748
  379MOL    C8646202   6.393   0.158   0.378  0.9952  0.5684  0.3214
  379MOL    C8746203   6.389   0.141   0.224  0.0233 -0.5272  0.0905
  379MOL    H8846204   6.420   0.065   0.428 -2.9559 -1.3329 -0.8721
  379MOL    H8946205   6.303   0.193   0.429  1.7180  1.8832  0.7013
  379MOL    H9046206   6.373   0.237   0.175  0.3503 -0.2236  0.5708
  379MOL    H9146207   6.491   0.106   0.204  0.6799  1.5912 -0.3759
  379MOL    C9246208   6.279   0.038   0.183 -0.1562  0.1044 -0.1968
  379MOL    C9346209   6.274   0.013   0.034 -0.0849  0.2177 -0.2609
  379MOL    H9446210   6.280   7.637   0.241 -1.5276 -1.0170 -1.9475
  379MOL    H9546211   6.180   0.079   0.205 -0.8532 -2.0781  0.9219
  379MOL    H9646212   6.267   0.114   7.686  0.2139  0.1300 -0.5354
  379MOL    H9746213   6.370   7.664   0.002 -0.4582 -0.6105 -0.3239
  379MOL    C9846214   6.158   7.621   7.690  0.3251  0.1401  0.1777
  379MOL    C9946215   6.137   7.606   7.538 -0.1038  0.4298  0.0900
  379MOL   H10046216   6.177   7.523   0.041 -0.9850 -0.0976  0.2307
  379MOL   H10146217   6.070   7.658   0.051 -0.2466 -1.6306  0.5111
  379MOL   H10246218   6.082   7.691   7.499  1.0694  0.1757 -2.1693
  379MOL   H10346219   6.229   7.602   7.479 -0.5314 -2.6859 -0.4563
  379MOL   C10446220   6.055   7.487   7.505  0.5440  0.5663 -0.7853
  379MOL   C10546221   6.041   7.454   7.358 -0.4388 -0.2451  0.6018
  379MOL   H10646222   6.107   7.407   7.558  0.6776  0.8435 -0.4934
  379MOL   H10746223   5.955   7.492   7.549  0.7863  1.0356 -0.2783
  379MOL   H10846224   6.032   7.543   7.296 -0.0543  0.5434  1.6583
  379MOL   H10946225   6.139   7.412   7.337 -0.3904 -0.3254  0.9864
  379MOL   C11046226   5.923   7.362   7.322  0.4626  0.2240 -0.5641
  379MOL   C11146227   5.910   7.336   7.169  0.0215  0.3060 -0.5976
  379MOL   H11246228   5.942   7.270   7.379 -3.1396  0.4915  1.2021
  379MOL   H11346229   5.829   7.396   7.365  0.8616  0.7736 -0.1127
  379MOL   H11446230   5.902   7.426   7.108  0.6909  0.8450  0.0961
  379MOL   H11546231   6.005   7.304   7.127 -0.9157 -2.0603 -1.0279
  379MOL   C11646232   5.791   7.238   7.143 -0.3957 -0.2943 -0.3564
  379MOL   C11746233   5.758   7.236   6.995  0.3096  0.3017  0.6139
  379MOL   H11846234   5.836   7.146   7.180  2.1514  1.6489  1.5071
  379MOL   H11946235   5.712   7.278   7.207  2.3073  0.5265  2.5647
  379MOL   H12046236   5.672   7.170   6.986  1.0059 -0.3811 -1.2543
  379MOL   H12146237   5.751   7.335   6.950 -0.1857 -0.2970 -0.6654
  379MOL   H12246238   5.848   7.190   6.953  0.6404 -0.2657  1.8996
  380MOL     C146239   2.806   7.250   4.873  0.2013 -0.0708  0.7356
  380MOL     C246240   2.785   7.100   4.889  0.5510  0.3427 -0.5171
  380MOL     H346241   2.850   7.306   4.956  0.0141  0.3052  0.5835
  380MOL     H446242   2.707   7.290   4.852  0.7039  0.1851 -1.2800
  380MOL     H546243   2.881   7.051   4.903 -0.4407 -0.7574  3.0492
  380MOL     H646244   2.732   7.092   4.984  3.6784  0.9162  1.3484
  380MOL     H746245   2.871   7.271   4.788  0.7448 -0.0052  1.1643
  380MOL     C846246   2.690   7.040   4.784 -0.0915 -0.2202 -0.1781
  380MOL     C946247   2.705   6.888   4.774 -0.4171  0.2185 -1.0599
  380MOL    H1046248   2.588   7.072   4.806  0.2588  1.3773 -0.7926
  380MOL    H1146249   2.720   7.093   4.694  0.8423 -0.2454  0.1053
  380MOL    H1246250   2.627   6.855   4.705  0.1549 -1.2897 -0.9912
  380MOL    H1346251   2.802   6.858   4.735 -0.0217  0.9609 -0.6673
  380MOL    C1446252   2.676   6.811   4.908 -0.0620  0.4586  0.4991
  380MOL    C1546253   2.676   6.660   4.881 -0.2357  0.4550  0.1317
  380MOL    H1646254   2.755   6.834   4.979  1.3289 -2.0677 -0.1791
  380MOL    H1746255   2.579   6.849   4.940  0.1143  0.4053  1.0984
  380MOL    H1846256   2.634   6.629   4.785  2.1934 -2.1838 -0.1248
  380MOL    H1946257   2.778   6.623   4.884 -0.8238 -1.1165  2.1446
  380MOL    C2046258   2.596   6.587   4.986 -0.0258 -0.1712 -0.3454
  380MOL    C2146259   2.596   6.429   4.968  0.0186  0.0965 -0.1030
  380MOL    H2246260   2.641   6.600   5.085  0.6708  1.3738 -0.8558
  380MOL    H2346261   2.497   6.633   4.984 -0.0135 -0.2148 -2.6858
  380MOL    H2446262   2.567   6.408   4.865  0.6680  0.3667 -0.3470
  380MOL    H2546263   2.693   6.380   4.976 -0.3288 -0.5143  0.4143
  380MOL    C2646264   2.501   6.355   5.060 -0.2582 -0.0375  0.3223
  380MOL    C2746265   2.494   6.210   5.022 -0.7431  0.6738  0.0008
  380MOL    H2846266   2.552   6.367   5.156  0.2279 -1.0310  0.1940
  380MOL    H2946267   2.407   6.409   5.072  0.1885  1.0432 -1.0079
  380MOL    H3046268   2.593   6.173   4.996 -0.0021  2.0072  0.9151
  380MOL    H3146269   2.463   6.153   5.109 -1.4616  1.2033  0.0953
  380MOL    C3246270   2.383   6.165   4.926  0.2553 -0.4681 -0.1248
  380MOL    C3346271   2.386   6.020   4.897 -0.5988 -0.4220 -0.4145
  380MOL    H3446272   2.289   6.191   4.976  0.4006  1.9912 -1.0344
  380MOL    H3546273   2.378   6.230   4.838 -1.4319  0.7393  0.8123
  380MOL    H3646274   2.482   5.996   4.852 -0.6616  0.0444 -0.8077
  380MOL    H3746275   2.384   5.963   4.990  0.8864  2.6729  1.5740
  380MOL    C3846276   2.264   5.975   4.811  0.0206 -0.3344  0.6001
  380MOL    C3946277   2.250   5.821   4.813  0.7154 -0.1685 -0.5048
  380MOL    H4046278   2.172   6.019   4.850 -0.4910 -0.4967 -0.4030
  380MOL    H4146279   2.284   6.010   4.710  1.2285  2.1487  1.6807
  380MOL    H4246280   2.341   5.788   4.762  1.4188  1.2443 -0.1939
  380MOL    H4346281   2.253   5.779   4.913 -0.3099 -1.0543 -0.8343
  380MOL    C4446282   2.132   5.770   4.730 -0.0033 -0.2581  0.5328
  380MOL    C4546283   2.142   5.614   4.704 -0.0194  0.3548  0.2760
  380MOL    H4646284   2.037   5.787   4.780  1.1348 -1.0327  2.9985
  380MOL    H4746285   2.114   5.824   4.636 -0.9521  0.8909  1.3582
  380MOL    H4846286   2.244   5.594   4.671  0.1311 -1.4019  1.7828
  380MOL    H4946287   2.122   5.565   4.799 -0.0636 -0.5755 -0.2152
  380MOL    C5046288   2.042   5.560   4.603 -0.2879 -0.2230 -0.2792
  380MOL    C5146289   2.047   5.414   4.588 -0.0685 -0.0245 -0.1869
  380MOL    H5246290   1.951   5.589   4.656  2.1197  1.8596  2.8837
  380MOL    H5346291   2.060   5.603   4.504 -0.3173  0.9733  0.2271
  380MOL    H5446292   2.140   5.394   4.535 -0.0851 -0.2997 -0.1122
  380MOL    H5546293   2.049   5.359   4.682 -2.2793 -0.7991 -0.5560
  380MOL    C5646294   1.935   5.369   4.498 -0.2321  0.1943 -0.2454
  380MOL    C5746295   1.952   5.228   4.450  0.2802  0.6430  0.2532
  380MOL    H5846296   1.843   5.367   4.557 -0.7084  0.2610 -0.9791
  380MOL    H5946297   1.922   5.438   4.415  1.6868  0.0567 -0.6676
  380MOL    H6046298   2.048   5.218   4.400  1.4075 -4.0307  3.0229
  380MOL    H6146299   1.951   5.160   4.535 -1.8771 -0.0370 -0.2857
  380MOL    C6246300   1.854   5.187   4.338  0.4861  0.6705 -0.1576
  380MOL    C6346301   1.849   5.033   4.302 -0.1373  0.3392  0.2195
  380MOL    H6446302   1.758   5.213   4.382  0.4822  0.6216 -0.1374
  380MOL    H6546303   1.877   5.246   4.249  2.9448  0.7688  0.5069
  380MOL    H6646304   1.953   5.000   4.297 -0.0804  0.7597 -1.9717
  380MOL    H6746305   1.803   4.979   4.384 -0.4167  0.7055  0.3036
  380MOL    C6846306   1.775   4.985   4.170  0.3073  0.5060 -0.1955
  380MOL    C6946307   1.762   4.833   4.133 -0.3882 -0.3069  0.2811
  380MOL    H7046308   1.677   5.032   4.172  0.1049  0.0622  0.6901
  380MOL    H7146309   1.818   5.028   4.080 -0.8083  2.2119  0.0718
  380MOL    H7246310   1.859   4.786   4.120  1.0106  2.8784 -1.5155
  380MOL    H7346311   1.709   4.779   4.212 -1.0586 -0.8607 -0.5359
  380MOL    C7446312   1.694   4.823   3.994  0.0336  0.5504  0.2720
  380MOL    C7546313   1.548   4.873   3.983 -0.3316 -0.9105  0.4965
  380MOL    H7646314   1.744   4.881   3.916  1.9351 -0.5639  0.6148
  380MOL    H7746315   1.696   4.720   3.957 -1.8497  1.1161 -1.5004
  380MOL    H7846316   1.507   4.842   4.079  1.7453  0.4275  1.8470
  380MOL    H7946317   1.537   4.981   3.992 -0.4958 -0.7411 -1.5705
  380MOL    C8046318   1.461   4.827   3.864 -0.1484 -0.3402  0.0719
  380MOL    C8146319   1.487   4.905   3.731  0.1296 -1.0720  0.1617
  380MOL    H8246320   1.461   4.718   3.851 -2.2503 -0.2903 -0.5984
  380MOL    H8346321   1.362   4.857   3.898  0.4116  0.3982  1.0504
  380MOL    H8446322   1.449   5.006   3.745  0.6151 -0.4723 -2.4604
  380MOL    H8546323   1.592   4.910   3.703  0.1779 -2.4924  0.0385
  380MOL    C8646324   1.403   4.859   3.614 -0.4289 -0.2546  0.1111
  380MOL    C8746325   1.481   4.844   3.485 -0.7932 -0.0579 -0.3562
  380MOL    H8846326   1.381   4.755   3.637  0.7868 -0.5362  0.0413
  380MOL    H8946327   1.303   4.902   3.619  0.6265  2.5463 -1.5408
  380MOL    H9046328   1.526   4.941   3.466  0.9178 -0.4908  1.4030
  380MOL    H9146329   1.566   4.777   3.496 -0.2809  0.8648  1.5536
  380MOL    C9246330   1.393   4.810   3.362 -0.2955 -0.0195 -0.2852
  380MOL    C9346331   1.481   4.821   3.232  0.1703 -0.6658 -0.0765
  380MOL    H9446332   1.349   4.711   3.372  1.4162 -0.7528  0.1256
  380MOL    H9546333   1.315   4.884   3.347  0.6520  0.8999 -0.7519
  380MOL    H9646334   1.526   4.919   3.243 -0.8402 -0.2446  0.3572
  380MOL    H9746335   1.552   4.739   3.245  0.4451 -0.8562 -2.6256
  380MOL    C9846336   1.414   4.808   3.092 -0.4851  0.5745 -1.0026
  380MOL    C9946337   1.511   4.835   2.972 -0.1872 -0.2931  0.6190
  380MOL   H10046338   1.363   4.712   3.084  1.3642 -0.5548  0.2616
  380MOL   H10146339   1.335   4.883   3.090 -0.1164  0.9688 -0.8934
  380MOL   H10246340   1.563   4.927   2.997  2.5994 -1.5999 -0.1767
  380MOL   H10346341   1.572   4.745   2.975  0.1841 -0.0302  0.9166
  380MOL   C10446342   1.443   4.831   2.835 -0.0270  0.3146  0.1372
  380MOL   C10546343   1.533   4.870   2.720  0.0238 -0.5095 -0.4132
  380MOL   H10646344   1.412   4.727   2.822  1.3078 -0.2370  1.2072
  380MOL   H10746345   1.351   4.889   2.836 -0.4070 -0.1569 -2.7632
  380MOL   H10846346   1.482   4.893   2.627 -0.2086  0.4178 -0.0588
  380MOL   H10946347   1.575   4.964   2.754 -1.6399 -0.5086  1.7901
  380MOL   C11046348   1.646   4.766   2.706  0.6740 -0.7112 -0.7329
  380MOL   C11146349   1.730   4.785   2.581 -0.4875 -0.0506 -0.0448
  380MOL   H11246350   1.712   4.775   2.792 -0.3842 -0.1818  0.0420
  380MOL   H11346351   1.597   4.669   2.701 -0.2090 -0.3605  0.8016
  380MOL   H11446352   1.780   4.694   2.549  0.9741  1.0742 -1.0606
  380MOL   H11546353   1.676   4.805   2.488 -3.2961 -1.3331  1.2542
  380MOL   C11646354   1.852   4.876   2.596 -0.4692 -0.6234 -0.1357
  380MOL   C11746355   1.915   4.884   2.459 -0.2843  0.6178  0.5279
  380MOL   H11846356   1.828   4.974   2.637 -1.3345 -1.6669  1.9536
  380MOL   H11946357   1.919   4.840   2.675 -0.2925  1.1584  0.5681
  380MOL   H12046358   1.848   4.908   2.376  0.9114  0.7027 -0.4156
  380MOL   H12146359   1.998   4.954   2.464  1.5071 -1.4025 -0.5807
  380MOL   H12246360   1.973   4.794   2.440 -0.9180  0.0597  1.1875
  381MOL     C146361   4.482   5.808   3.422  0.2128  0.9977  0.7541
  381MOL     C246362   4.334   5.784   3.478  0.4992  0.2404 -0.5020
  381MOL     H346363   4.485   5.787   3.315  0.8142  0.2127  0.9260
  381MOL     H446364   4.568   5.750   3.455 -0.2224 -0.8558 -1.2303
  381MOL     H546365   4.322   5.677   3.491  0.3263  0.2058 -0.9147
  381MOL     H646366   4.340   5.816   3.582  1.7755 -1.4260 -0.0441
  381MOL     H746367   4.518   5.909   3.439  1.5294  0.6246  0.2457
  381MOL     C846368   4.218   5.854   3.398 -0.1775 -0.3329 -0.5872
  381MOL     C946369   4.234   6.004   3.399  0.9090  0.2998  0.3997
  381MOL    H1046370   4.223   5.828   3.292 -0.6314 -0.8323 -0.4852
  381MOL    H1146371   4.117   5.826   3.428 -0.7476 -1.6334 -3.5219
  381MOL    H1246372   4.336   6.041   3.390  0.8977  0.3891  0.6225
  381MOL    H1346373   4.182   6.057   3.320  1.0364  2.5348  1.7706
  381MOL    C1446374   4.165   6.054   3.527  0.2314 -0.9086 -0.2891
  381MOL    C1546375   4.113   6.198   3.526  0.2380 -0.9469 -0.0617
  381MOL    H1646376   4.072   5.997   3.524 -0.3195  0.0412 -1.3571
  381MOL    H1746377   4.220   6.031   3.619 -0.1776 -1.2181 -0.1171
  381MOL    H1846378   4.189   6.275   3.510 -0.3810 -0.3917 -0.3678
  381MOL    H1946379   4.044   6.225   3.446 -0.5661 -0.1611  0.8741
  381MOL    C2046380   4.052   6.235   3.660  0.5579  0.1086 -0.3835
  381MOL    C2146381   4.006   6.380   3.678 -0.6417  0.1039 -0.9679
  381MOL    H2246382   3.969   6.168   3.685  0.2761  0.6521  0.1510
  381MOL    H2346383   4.125   6.205   3.735  0.4228 -2.1541 -1.1177
  381MOL    H2446384   3.992   6.406   3.783 -0.2014  0.1857 -0.9276
  381MOL    H2546385   4.088   6.440   3.640  0.9499 -0.7114  1.0362
  381MOL    C2646386   3.879   6.417   3.598  0.0168  0.3650 -0.2222
  381MOL    C2746387   3.801   6.534   3.670  0.0158 -0.0179  0.3912
  381MOL    H2846388   3.906   6.421   3.492 -1.3727 -0.7920 -0.6403
  381MOL    H2946389   3.812   6.331   3.602 -0.5666  0.7754 -0.9497
  381MOL    H3046390   3.772   6.487   3.763 -0.6024 -0.3502  0.0331
  381MOL    H3146391   3.865   6.621   3.690 -0.1501  0.5354 -1.3446
  381MOL    C3246392   3.689   6.568   3.590  0.0157 -0.6181 -0.3855
  381MOL    C3346393   3.618   6.695   3.637  0.2183 -0.1178  0.2963
  381MOL    H3446394   3.727   6.581   3.489 -1.2618  0.3293 -0.7553
  381MOL    H3546395   3.622   6.482   3.580  0.4569 -0.6375 -3.4675
  381MOL    H3646396   3.595   6.699   3.744  1.1819 -2.3865  0.6164
  381MOL    H3746397   3.687   6.777   3.616  0.9951 -0.3005  2.0444
  381MOL    C3846398   3.494   6.733   3.565 -0.1608  0.1458  0.2920
  381MOL    C3946399   3.456   6.877   3.591  0.3583 -0.6643 -0.8147
  381MOL    H4046400   3.497   6.725   3.457 -0.0540  2.5668  0.0830
  381MOL    H4146401   3.419   6.663   3.603 -2.5556  1.6319 -1.5317
  381MOL    H4246402   3.450   6.887   3.699 -1.0843 -1.3222 -0.8168
  381MOL    H4346403   3.518   6.960   3.559 -1.0377  0.7402  0.0208
  381MOL    C4446404   3.309   6.893   3.539 -0.0245  0.7169  0.0324
  381MOL    C4546405   3.312   6.949   3.395 -0.0851  0.0250 -0.0062
  381MOL    H4646406   3.243   6.806   3.547  1.4114 -0.7420 -3.1614
  381MOL    H4746407   3.266   6.966   3.607 -0.8991 -0.4127  0.7165
  381MOL    H4846408   3.389   7.026   3.396  2.0080 -1.9708 -2.0711
  381MOL    H4946409   3.352   6.874   3.327 -0.5990  0.1608 -0.4655
  381MOL    C5046410   3.184   7.011   3.339 -0.3109  0.0190 -0.7889
  381MOL    C5146411   3.088   6.896   3.316  0.2595  0.5357 -0.2545
  381MOL    H5246412   3.145   7.090   3.404 -0.6593 -0.5963 -0.2463
  381MOL    H5346413   3.210   7.060   3.245  2.0931  2.2820  0.9643
  381MOL    H5446414   3.126   6.847   3.226 -1.4561  0.2641 -0.8510
  381MOL    H5546415   3.084   6.819   3.393 -1.5235 -0.6080 -1.4528
  381MOL    C5646416   2.943   6.946   3.301  0.6393  0.3457  0.2146
  381MOL    C5746417   2.852   6.854   3.216 -0.0299 -0.1974 -1.0649
  381MOL    H5846418   2.899   6.940   3.400 -0.8926 -0.3042 -0.4833
  381MOL    H5946419   2.937   7.050   3.269 -2.0693 -0.7714 -3.2340
  381MOL    H6046420   2.750   6.893   3.212 -0.2956 -0.8762 -1.0741
  381MOL    H6146421   2.901   6.853   3.118  1.2256  1.9774 -0.4950
  381MOL    C6246422   2.841   6.713   3.278 -0.2701  0.6551  0.0063
  381MOL    C6346423   2.775   6.616   3.182  0.3613 -0.5112  0.4500
  381MOL    H6446424   2.940   6.677   3.303 -1.0522 -0.7837  1.1155
  381MOL    H6546425   2.788   6.721   3.373 -0.3592  1.9563 -0.1417
  381MOL    H6646426   2.674   6.652   3.162 -0.1498 -1.3822  1.3945
  381MOL    H6746427   2.836   6.592   3.095 -0.3082  1.3548 -0.5554
  381MOL    C6846428   2.775   6.476   3.248 -0.0185 -0.2715 -0.0278
  381MOL    C6946429   2.902   6.391   3.250  0.7106  0.7054  0.5887
  381MOL    H7046430   2.737   6.479   3.350 -0.3461  0.8572 -0.1846
  381MOL    H7146431   2.698   6.419   3.196 -0.5286 -0.7379  1.2005
  381MOL    H7246432   2.957   6.389   3.155 -1.2834  0.3387 -0.5853
  381MOL    H7346433   2.981   6.433   3.312  1.9025  0.0622 -0.4735
  381MOL    C7446434   2.873   6.256   3.310  0.3167 -0.0075  0.7636
  381MOL    C7546435   2.989   6.159   3.292 -0.0663 -0.4382  0.0102
  381MOL    H7646436   2.867   6.270   3.418 -1.7674  1.4684  0.4870
  381MOL    H7746437   2.781   6.211   3.273  1.3080 -0.1027 -1.6105
  381MOL    H7846438   2.990   6.110   3.195  3.0564 -3.8162  1.6138
  381MOL    H7946439   3.081   6.216   3.307 -1.4766  1.7619  0.4781
  381MOL    C8046440   2.970   6.036   3.389  0.4265 -0.0194 -0.2188
  381MOL    C8146441   3.070   5.924   3.380 -0.8429 -0.3396  0.2967
  381MOL    H8246442   2.954   6.074   3.490 -0.8834 -1.7938  0.2797
  381MOL    H8346443   2.873   5.994   3.362  1.4098 -1.1346 -2.0742
  381MOL    H8446444   3.030   5.830   3.418 -0.3202 -0.3476  0.8227
  381MOL    H8546445   3.085   5.900   3.274  0.3948 -0.3034  0.4579
  381MOL    C8646446   3.210   5.947   3.441  0.1895 -0.3425 -0.4043
  381MOL    C8746447   3.314   5.846   3.380  0.0293 -0.4531  0.5134
  381MOL    H8846448   3.237   6.051   3.424 -0.9626  0.3354  1.7875
  381MOL    H8946449   3.198   5.950   3.549 -2.1548  0.7830 -0.6582
  381MOL    H9046450   3.314   5.762   3.448 -0.8551  0.8599  2.1518
  381MOL    H9146451   3.285   5.804   3.284  0.0460 -0.4881  0.5240
  381MOL    C9246452   3.457   5.908   3.363 -0.4478  0.1450  0.3416
  381MOL    C9346453   3.560   5.797   3.321 -0.4411  0.1338 -0.2013
  381MOL    H9446454   3.453   5.978   3.279 -0.6032 -2.4687 -1.9148
  381MOL    H9546455   3.483   5.967   3.451  0.0477  0.8359 -0.2640
  381MOL    H9646456   3.583   5.729   3.403  1.9249 -0.8368 -1.6227
  381MOL    H9746457   3.507   5.738   3.246 -2.2848 -0.9407  1.8734
  381MOL    C9846458   3.679   5.851   3.247 -0.3925  0.0024 -0.5007
  381MOL    C9946459   3.772   5.741   3.198 -0.4912 -0.7057  0.3402
  381MOL   H10046460   3.650   5.920   3.167 -2.6605 -0.4924 -0.1561
  381MOL   H10146461   3.730   5.914   3.320  1.6273  0.1569 -2.0114
  381MOL   H10246462   3.782   5.671   3.281 -2.5252  0.9533  2.0657
  381MOL   H10346463   3.721   5.688   3.117 -1.6052  2.3462 -1.0396
  381MOL   C10446464   3.902   5.801   3.144 -0.3391 -0.3510 -0.4081
  381MOL   C10546465   4.000   5.688   3.102  0.1624 -0.5673  0.1502
  381MOL   H10646466   3.878   5.869   3.062  1.1215  0.1715 -0.4318
  381MOL   H10746467   3.944   5.874   3.213  0.5162 -1.5581  0.3802
  381MOL   H10846468   4.039   5.623   3.181  2.8094  1.5851  0.6909
  381MOL   H10946469   3.950   5.623   3.031 -0.6519 -0.7266  0.8572
  381MOL   C11046470   4.124   5.749   3.028  0.4448  0.3176  0.6108
  381MOL   C11146471   4.085   5.825   2.901 -0.2579  0.3214  0.0166
  381MOL   H11246472   4.180   5.813   3.097  0.4178  1.5026 -0.4374
  381MOL   H11346473   4.190   5.666   3.006  1.4446  1.5420 -1.0935
  381MOL   H11446474   4.015   5.760   2.848 -0.3966 -0.2306  0.8663
  381MOL   H11546475   4.033   5.919   2.914  2.6440  1.8695  0.9672
  381MOL   C11646476   4.206   5.852   2.820 -0.2460  0.8695 -1.1885
  381MOL   C11746477   4.166   5.924   2.689  0.3202 -0.2498 -0.8462
  381MOL   H11846478   4.265   5.914   2.888  0.3734 -1.4870  0.4915
  381MOL   H11946479   4.264   5.763   2.799 -0.6648  0.1395  0.6132
  381MOL   H12046480   4.120   6.020   2.715  1.2507 -0.5177  1.9862
  381MOL   H12146481   4.259   5.939   2.635  0.1961 -0.3050 -1.0745
  381MOL   H12246482   4.092   5.860   2.641 -2.3247  1.9353  0.1700
  382MOL     C146483   1.047   1.700   7.596  0.0447 -0.5583  0.0192
  382MOL     C246484   1.035   1.785   7.473  0.3745 -0.5123  0.1075
  382MOL     H346485   1.020   1.750   7.689  0.6022  1.2085 -0.7446
  382MOL     H446486   1.139   1.656   7.633 -0.6811 -0.9407  1.4003
  382MOL     H546487   1.032   1.713   7.391  2.9559 -0.0628 -0.4076
  382MOL     H646488   0.933   1.821   7.484 -0.4930 -2.8500  0.0831
  382MOL     H746489   0.975   1.618   7.586 -1.7784  1.0282 -0.1942
  382MOL     C846490   1.128   1.904   7.437 -0.2672 -0.3771 -0.2017
  382MOL     C946491   1.075   1.984   7.316 -0.0575 -0.0218 -0.4749
  382MOL    H1046492   1.147   1.971   7.521  0.4286 -1.1487  0.2621
  382MOL    H1146493   1.231   1.875   7.416 -0.1938  0.1714 -0.6101
  382MOL    H1246494   1.020   1.916   7.251 -2.3533  0.2069  1.1936
  382MOL    H1346495   1.009   2.058   7.361  0.5142 -0.5304  1.2062
  382MOL    C1446496   1.193   2.056   7.243  0.4974 -0.6544 -0.1225
  382MOL    C1546497   1.133   2.150   7.134 -0.0433 -0.3378 -0.3095
  382MOL    H1646498   1.259   2.111   7.310  1.1915 -1.8445  0.1835
  382MOL    H1746499   1.260   1.989   7.190  1.5543  1.4260 -1.4852
  382MOL    H1846500   1.064   2.095   7.069 -2.9282 -0.1352  2.4525
  382MOL    H1946501   1.076   2.225   7.189  1.9161  0.4465  0.7028
  382MOL    C2046502   1.244   2.222   7.066 -0.7242 -0.2799  0.3923
  382MOL    C2146503   1.186   2.322   6.964 -0.6720 -0.5277 -0.0870
  382MOL    H2246504   1.306   2.258   7.148 -0.7260 -1.5730  0.9720
  382MOL    H2346505   1.305   2.151   7.010  2.1933  1.7951  0.7729
  382MOL    H2446506   1.132   2.268   6.887 -0.0701 -0.2432 -0.7145
  382MOL    H2546507   1.118   2.392   7.014 -0.0539  1.2098 -1.6071
  382MOL    C2646508   1.301   2.402   6.902 -0.4433 -0.3683 -0.3431
  382MOL    C2746509   1.250   2.500   6.789  0.8263  0.5436 -0.4906
  382MOL    H2846510   1.355   2.458   6.978  0.6728  0.9880 -2.0786
  382MOL    H2946511   1.373   2.330   6.863  0.6184  1.1141 -1.2160
  382MOL    H3046512   1.168   2.456   6.732  0.0762  0.3496  0.7197
  382MOL    H3146513   1.219   2.594   6.835 -0.6095  0.0406 -0.3962
  382MOL    C3246514   1.362   2.539   6.687 -0.2270  0.2275 -0.2356
  382MOL    C3346515   1.306   2.618   6.565 -0.2948  0.1972 -0.0162
  382MOL    H3446516   1.422   2.607   6.747 -1.6016 -0.7933  2.3435
  382MOL    H3546517   1.423   2.456   6.650 -0.2136 -0.8502  2.1468
  382MOL    H3646518   1.270   2.551   6.486 -2.1435  0.2871  0.7270
  382MOL    H3746519   1.221   2.681   6.590 -0.8845 -0.8644  0.7258
  382MOL    C3846520   1.422   2.695   6.499 -0.1259 -0.1578  0.0517
  382MOL    C3946521   1.391   2.770   6.365  0.2938 -0.2883 -0.1615
  382MOL    H4046522   1.468   2.770   6.564  0.2289 -0.9334  0.7104
  382MOL    H4146523   1.501   2.623   6.477  0.1713 -0.1607  1.0581
  382MOL    H4246524   1.337   2.706   6.296  0.8815 -0.4051 -0.5135
  382MOL    H4346525   1.321   2.851   6.387  0.0612 -1.0285  1.9923
  382MOL    C4446526   1.512   2.832   6.303  0.0043  0.2650  0.3332
  382MOL    C4546527   1.486   2.908   6.174 -0.9422 -0.5843 -0.2771
  382MOL    H4646528   1.563   2.908   6.361 -0.6282  2.5293 -1.9460
  382MOL    H4746529   1.585   2.753   6.285  0.4133  0.7302 -0.1037
  382MOL    H4846530   1.397   2.867   6.125 -1.2838  0.4121 -0.5057
  382MOL    H4946531   1.460   3.013   6.193 -1.4021 -0.7732  0.1449
  382MOL    C5046532   1.605   2.899   6.072  0.4711 -0.2270 -0.4882
  382MOL    C5146533   1.581   2.981   5.943 -0.1515 -0.0938  0.1880
  382MOL    H5246534   1.700   2.928   6.118 -1.0358  0.4276  2.3226
  382MOL    H5346535   1.633   2.797   6.047 -0.8806 -0.8538  0.4965
  382MOL    H5446536   1.660   2.953   5.874 -1.0591 -1.3223 -0.3761
  382MOL    H5546537   1.484   2.954   5.900 -0.1340 -1.5657  1.0273
  382MOL    C5646538   1.592   3.127   5.965 -0.5627 -0.3238 -0.2743
  382MOL    C5746539   1.732   3.176   6.005  0.5282  0.0883  0.1710
  382MOL    H5846540   1.576   3.166   5.865  0.3862  1.0157  0.0774
  382MOL    H5946541   1.518   3.164   6.036  0.1580 -0.7730  0.7166
  382MOL    H6046542   1.751   3.157   6.110 -0.7571  1.6685  0.6958
  382MOL    H6146543   1.804   3.124   5.941  0.7286  0.4868  0.0672
  382MOL    C6246544   1.743   3.327   5.989 -0.3913 -0.1327 -0.4740
  382MOL    C6346545   1.878   3.376   6.045 -0.0247  0.2533  0.4608
  382MOL    H6446546   1.735   3.353   5.884 -1.5615  0.6006 -0.2181
  382MOL    H6546547   1.674   3.390   6.045  2.5781  2.9904 -0.1647
  382MOL    H6646548   1.881   3.380   6.154  1.0181  0.0585  0.4403
  382MOL    H6746549   1.964   3.311   6.030 -1.7414 -1.3918 -2.6878
  382MOL    C6846550   1.932   3.507   5.984  0.6375 -0.3458 -0.6007
  382MOL    C6946551   1.834   3.625   5.994  0.4381  0.6003  0.2476
  382MOL    H7046552   2.031   3.522   6.026  0.1588  2.3538 -0.3411
  382MOL    H7146553   1.972   3.474   5.888  2.6953 -1.6599  0.6849
  382MOL    H7246554   1.755   3.617   5.918 -0.5144 -1.4661  1.4148
  382MOL    H7346555   1.784   3.612   6.090  0.7360 -0.6504  0.2434
  382MOL    C7446556   1.901   3.766   5.979  0.0855 -0.2770  0.0457
  382MOL    C7546557   1.944   3.813   6.120 -0.1159 -0.5358  0.1460
  382MOL    H7646558   1.991   3.749   5.920 -1.2990  1.0606 -2.5592
  382MOL    H7746559   1.843   3.831   5.914  1.0777  2.3395  1.7021
  382MOL    H7846560   1.854   3.830   6.179 -0.5864  0.5707 -0.8562
  382MOL    H7946561   2.013   3.742   6.165  0.7205  0.2404  0.0931
  382MOL    C8046562   2.023   3.945   6.114 -0.0925  0.4394  0.3223
  382MOL    C8146563   2.051   4.008   6.252  0.2243  0.4087 -0.5642
  382MOL    H8246564   2.121   3.919   6.075 -0.1108  1.0596 -0.1324
  382MOL    H8346565   1.977   4.004   6.035 -0.5520  0.3039  0.4826
  382MOL    H8446566   1.958   4.027   6.306  1.1151  1.4858  0.6375
  382MOL    H8546567   2.120   3.954   6.318  2.3682  1.3105 -1.9950
  382MOL    C8646568   2.108   4.146   6.235 -0.1002 -0.2174 -0.2289
  382MOL    C8746569   2.124   4.189   6.384  0.2095  0.3552 -0.5223
  382MOL    H8846570   2.198   4.154   6.174  0.4572 -2.0681  0.3141
  382MOL    H8946571   2.029   4.209   6.193  0.3335 -1.2215 -2.5993
  382MOL    H9046572   2.021   4.203   6.417  0.1940 -1.3529  0.1818
  382MOL    H9146573   2.161   4.112   6.452 -0.9459 -2.4258 -2.9295
  382MOL    C9246574   2.209   4.311   6.405 -0.2477 -0.4420  1.1600
  382MOL    C9346575   2.227   4.336   6.555 -0.0546 -0.6945  0.4042
  382MOL    H9446576   2.306   4.303   6.354  0.4379  3.2017  1.7143
  382MOL    H9546577   2.167   4.402   6.360 -1.4677 -1.3691  0.3993
  382MOL    H9646578   2.130   4.335   6.604 -0.3648  0.4601 -0.1758
  382MOL    H9746579   2.279   4.250   6.598 -0.8113 -0.0676  2.6726
  382MOL    C9846580   2.308   4.468   6.590 -0.2676  0.0644 -0.7122
  382MOL    C9946581   2.256   4.600   6.539  0.1743 -0.1000  0.6831
  382MOL   H10046582   2.311   4.464   6.699  0.6987  0.6423 -0.7125
  382MOL   H10146583   2.410   4.459   6.552  0.0561  1.0266 -0.1018
  382MOL   H10246584   2.284   4.605   6.434 -3.0366  0.7521 -0.1819
  382MOL   H10346585   2.148   4.614   6.537  0.0444 -0.6812  2.4791
  382MOL   C10446586   2.326   4.715   6.619  0.3642  0.2612  0.2375
  382MOL   C10546587   2.302   4.862   6.590  0.4757 -0.3067 -0.2259
  382MOL   H10646588   2.314   4.698   6.725 -0.9121 -1.3043 -0.1497
  382MOL   H10746589   2.433   4.696   6.612  0.6174  2.0295 -1.0846
  382MOL   H10846590   2.196   4.889   6.594  0.1603 -1.3590 -1.1395
  382MOL   H10946591   2.343   4.925   6.668  0.1645 -0.3865  0.0013
  382MOL   C11046592   2.367   4.908   6.460  0.3349 -0.5412  0.5157
  382MOL   C11146593   2.394   5.061   6.439  0.2753  0.8441  0.2511
  382MOL   H11246594   2.459   4.852   6.446 -0.1794 -1.5427  1.0354
  382MOL   H11346595   2.301   4.887   6.375  0.5365 -1.0168  0.4763
  382MOL   H11446596   2.299   5.108   6.460  0.2286  0.1789  1.5429
  382MOL   H11546597   2.461   5.089   6.520  2.2922 -3.3001  0.1818
  382MOL   C11646598   2.429   5.105   6.294  0.5004  0.0962 -0.2134
  382MOL   C11746599   2.447   5.256   6.284 -0.1793  0.1071  0.3582
  382MOL   H11846600   2.520   5.054   6.264  0.7917 -0.3643  1.4150
  382MOL   H11946601   2.367   5.067   6.213  1.9364 -1.3552 -0.6300
  382MOL   H12046602   2.505   5.285   6.196 -0.4087 -2.4745 -0.6698
  382MOL   H12146603   2.350   5.303   6.269  1.4075  2.6782 -2.4076
  382MOL   H12246604   2.497   5.299   6.372  1.7752 -0.9771 -0.1866
  383MOL     C146605   4.514   5.022   3.457  0.0071 -0.2561 -0.1722
  383MOL     C246606   4.524   5.140   3.560  0.0958  0.1783  0.3366
  383MOL     H346607   4.560   5.041   3.360 -0.5288 -0.6570 -0.5079
  383MOL     H446608   4.408   5.012   3.436 -0.2033  2.5348 -0.6472
  383MOL     H546609   4.626   5.132   3.598  1.4496  1.6543 -2.8314
  383MOL     H646610   4.505   5.245   3.540 -0.6124 -0.2844 -1.4901
  383MOL     H746611   4.559   4.931   3.496  1.0102 -0.9229 -2.7554
  383MOL     C846612   4.424   5.102   3.672  0.1101 -0.5282 -0.4193
  383MOL     C946613   4.433   5.198   3.787 -0.3875 -0.4865  0.7900
  383MOL    H1046614   4.323   5.100   3.632  0.6292 -1.8309 -1.7272
  383MOL    H1146615   4.440   5.000   3.708  3.3447  0.8454  2.3502
  383MOL    H1246616   4.382   5.150   3.871 -0.0193 -2.5764 -0.1564
  383MOL    H1346617   4.533   5.222   3.821 -0.2392 -0.8368  0.5997
  383MOL    C1446618   4.359   5.327   3.767 -0.0479  0.0223 -0.1454
  383MOL    C1546619   4.320   5.391   3.906 -1.1952  0.0476 -0.1262
  383MOL    H1646620   4.431   5.396   3.722 -0.8584  0.1375 -1.3097
  383MOL    H1746621   4.264   5.308   3.718  0.8688 -1.8766 -1.2755
  383MOL    H1846622   4.233   5.335   3.940  0.1291 -1.3004  1.1047
  383MOL    H1946623   4.397   5.375   3.981 -0.6231  0.8947 -0.5288
  383MOL    C2046624   4.303   5.546   3.896 -0.0732  0.1193 -0.2012
  383MOL    C2146625   4.194   5.612   3.814 -0.0607 -0.0423 -0.4361
  383MOL    H2246626   4.275   5.557   4.000  0.4372  1.7328 -0.2285
  383MOL    H2346627   4.397   5.595   3.870 -0.9231  1.6220 -0.5198
  383MOL    H2446628   4.214   5.605   3.707  0.9898 -0.9715 -0.1862
  383MOL    H2546629   4.102   5.561   3.843  0.5989 -0.5419  0.8200
  383MOL    C2646630   4.187   5.765   3.841 -0.2369 -0.4267  0.4831
  383MOL    C2746631   4.097   5.809   3.961  0.5486  0.3476  0.5319
  383MOL    H2846632   4.283   5.808   3.870  0.2894 -1.6863  0.6402
  383MOL    H2946633   4.173   5.825   3.751  2.5749 -0.6878 -0.1867
  383MOL    H3046634   3.999   5.762   3.952  1.3993 -2.2808  3.8719
  383MOL    H3146635   4.130   5.759   4.052 -0.3737  0.5795  0.9961
  383MOL    C3246636   4.094   5.959   3.969  0.2738 -0.4491  0.8608
  383MOL    C3346637   3.978   6.009   4.064 -0.0842 -0.3302 -0.8673
  383MOL    H3446638   4.187   6.008   3.999  0.7793 -1.5910  1.1922
  383MOL    H3546639   4.068   5.993   3.868  0.8068 -3.2334 -0.2581
  383MOL    H3646640   3.888   5.949   4.048 -1.3215  0.8640  1.4062
  383MOL    H3746641   4.014   5.986   4.164  2.4661  1.2335 -1.3889
  383MOL    C3846642   3.951   6.161   4.060  0.3398  1.1718  0.0886
  383MOL    C3946643   3.838   6.199   4.148  0.5025  0.3405 -0.4007
  383MOL    H4046644   4.041   6.219   4.081  1.3284  0.4957 -2.1076
  383MOL    H4146645   3.914   6.182   3.960 -1.4868  1.0450  0.7182
  383MOL    H4246646   3.760   6.123   4.145  0.0171  0.8506 -0.9778
  383MOL    H4346647   3.876   6.205   4.250 -0.4723  1.4349 -0.0853
  383MOL    C4446648   3.778   6.336   4.125 -0.6120 -0.3247  0.3003
  383MOL    C4546649   3.874   6.454   4.133 -0.7573  0.1963 -0.1869
  383MOL    H4646650   3.720   6.330   4.033 -1.0509 -0.0675  0.5617
  383MOL    H4746651   3.707   6.357   4.205 -0.4856  0.7773  0.1290
  383MOL    H4846652   3.907   6.474   4.235  0.9208 -0.3675 -0.6075
  383MOL    H4946653   3.959   6.443   4.066 -2.1307  1.0795 -2.1158
  383MOL    C5046654   3.801   6.577   4.093  0.1688 -0.1453 -0.6201
  383MOL    C5146655   3.872   6.710   4.088 -0.4643 -0.5158  0.4552
  383MOL    H5246656   3.761   6.551   3.995 -2.2921 -1.2672  0.6173
  383MOL    H5346657   3.711   6.583   4.155 -1.1167  0.2063 -2.4976
  383MOL    H5446658   3.933   6.735   4.174 -1.0123 -1.7285  1.2064
  383MOL    H5546659   3.940   6.711   4.003 -1.0098  0.9351  0.0275
  383MOL    C5646660   3.772   6.824   4.076  0.3759 -0.5730  0.2374
  383MOL    C5746661   3.820   6.973   4.094  0.0236 -0.0688 -1.1655
  383MOL    H5846662   3.717   6.815   3.982 -0.6097  0.1053  0.7378
  383MOL    H5946663   3.689   6.805   4.145 -0.0837  1.2471  0.2139
  383MOL    H6046664   3.866   6.969   4.194 -1.8381  1.1361 -0.2415
  383MOL    H6146665   3.900   6.999   4.025  0.1913 -1.0746 -1.3566
  383MOL    C6246666   3.705   7.077   4.098  0.3754  0.0221  0.3229
  383MOL    C6346667   3.750   7.219   4.109 -0.1474  0.0150 -0.1166
  383MOL    H6446668   3.643   7.062   4.009  0.7490  0.3236  0.0064
  383MOL    H6546669   3.638   7.057   4.181 -2.6430  0.9993 -1.7648
  383MOL    H6646670   3.815   7.234   4.195  0.1863  2.4609 -0.7552
  383MOL    H6746671   3.817   7.253   4.030 -1.8036  2.8129 -0.3837
  383MOL    C6846672   3.631   7.312   4.119  0.8216  0.1699  0.5505
  383MOL    C6946673   3.673   7.463   4.106 -0.0412 -0.0455 -0.1214
  383MOL    H7046674   3.557   7.286   4.043 -0.1453 -1.7792  2.0967
  383MOL    H7146675   3.597   7.301   4.222 -0.3484  3.4350  0.5488
  383MOL    H7246676   3.750   7.485   4.180 -1.1456  1.6472  0.5567
  383MOL    H7346677   3.723   7.475   4.010  3.6624 -3.9552  1.1567
  383MOL    C7446678   3.543   7.547   4.136  0.5284 -0.2133  0.1533
  383MOL    C7546679   3.591   0.001   4.147 -0.0568  0.7282  0.1553
  383MOL    H7646680   3.469   7.532   4.058  1.1499  1.5292 -0.8035
  383MOL    H7746681   3.481   7.523   4.223 -1.4065  1.7001 -0.6441
  383MOL    H7846682   3.644   0.031   4.237  0.5257 -0.2717  0.1551
  383MOL    H7946683   3.657   0.018   4.062 -0.8037  0.1301 -0.5545
  383MOL    C8046684   3.470   0.090   4.132 -0.0806 -0.6233  0.0738
  383MOL    C8146685   3.499   0.241   4.125 -0.0444  0.0862 -0.7118
  383MOL    H8246686   3.426   0.066   4.036  0.7753 -0.9608 -0.2385
  383MOL    H8346687   3.392   0.068   4.206  0.0112 -1.6465 -0.1302
  383MOL    H8446688   3.590   0.239   4.064  2.4721  1.4136  2.8136
  383MOL    H8546689   3.426   0.305   4.076  2.5624  0.8884 -3.7154
  383MOL    C8646690   3.518   0.303   4.269  0.4999  0.8433 -0.2738
  383MOL    C8746691   3.582   0.443   4.281 -0.6490 -0.3039 -0.0041
  383MOL    H8846692   3.422   0.303   4.321  1.2874  1.7097  1.2296
  383MOL    H8946693   3.581   0.240   4.333 -0.7757  0.8088  0.9836
  383MOL    H9046694   3.540   0.522   4.219  0.8803  1.7525  1.5031
  383MOL    H9146695   3.569   0.481   4.382  2.2187  1.6942 -0.3410
  383MOL    C9246696   3.731   0.428   4.255  0.1737 -0.5440  0.3841
  383MOL    C9346697   3.807   0.557   4.212 -1.4785  0.4689  0.5251
  383MOL    H9446698   3.777   0.397   4.349 -0.4380  1.9164  1.5401
  383MOL    H9546699   3.757   0.355   4.178 -1.1138 -0.0683 -0.5276
  383MOL    H9646700   3.764   0.590   4.117 -1.3618  1.2667  0.7480
  383MOL    H9746701   3.771   0.624   4.290 -1.6010 -0.8935  1.6465
  383MOL    C9846702   3.958   0.550   4.209 -0.4054  0.5269  0.0834
  383MOL    C9946703   4.018   0.689   4.261 -0.1458  0.5681 -0.6924
  383MOL   H10046704   3.997   0.473   4.276 -3.2786 -0.0117  1.2074
  383MOL   H10146705   3.988   0.527   4.107 -0.0594  0.7725  0.1299
  383MOL   H10246706   3.987   0.769   4.193 -1.2105  0.4334 -0.3687
  383MOL   H10346707   3.979   0.725   4.356 -0.9693 -2.5381  0.2320
  383MOL   C10446708   4.167   0.680   4.275  0.0101 -0.3287 -0.4447
  383MOL   C10546709   4.240   0.702   4.141 -0.0066  0.1122  0.6266
  383MOL   H10646710   4.204   0.751   4.349  1.0723 -1.0075 -0.3063
  383MOL   H10746711   4.195   0.580   4.310  1.1832  0.2971  0.4411
  383MOL   H10846712   4.205   0.618   4.081  0.2801 -0.8117  1.7218
  383MOL   H10946713   4.221   0.794   4.086  1.1479 -0.1498 -0.2229
  383MOL   C11046714   4.388   0.692   4.162  0.1241  0.6105 -0.4587
  383MOL   C11146715   4.465   0.708   4.034  0.6075 -0.2304 -0.1765
  383MOL   H11246716   4.417   0.772   4.230 -1.7390  1.4925 -0.6548
  383MOL   H11346717   4.407   0.594   4.206  2.4953  0.3432 -1.9742
  383MOL   H11446718   4.423   0.640   3.960 -1.3927  0.2256  0.4885
  383MOL   H11546719   4.452   0.809   3.994  0.4267  0.0542  0.6020
  383MOL   C11646720   4.609   0.697   4.035  0.2151 -0.2193  0.3871
  383MOL   C11746721   4.656   0.577   4.114 -0.2844 -0.2490 -0.2710
  383MOL   H11846722   4.646   0.688   3.932 -0.9911 -0.1496 -0.0577
  383MOL   H11946723   4.636   0.793   4.078 -1.0559 -0.1603  1.0426
  383MOL   H12046724   4.635   0.487   4.056 -0.4077 -0.6638  0.4084
  383MOL   H12146725   4.764   0.570   4.124 -0.4484  0.9216  2.8535
  383MOL   H12246726   4.619   0.573   4.216 -0.2632 -1.3468 -0.2948
  384MOL     C146727   0.736   1.992   3.769 -0.2748 -0.5854  0.2607
  384MOL     C246728   0.780   1.934   3.904 -0.5314  0.0436 -0.0216
  384MOL     H346729   0.696   2.089   3.800  1.2125  0.1612 -0.0962
  384MOL     H446730   0.658   1.926   3.732  0.1959 -2.0045  1.7210
  384MOL     H546731   0.690   1.936   3.965  0.7051 -0.5167  1.8504
  384MOL     H646732   0.810   1.830   3.891  1.6881  0.8118 -1.3546
  384MOL     H746733   0.809   2.002   3.689 -0.3329  0.2890  0.3082
  384MOL     C846734   0.896   2.014   3.968  0.3199  0.4799  0.1693
  384MOL     C946735   1.027   1.982   3.898  1.0708 -0.3192 -0.0063
  384MOL    H1046736   0.868   2.117   3.946 -1.3557 -0.1597 -0.8059
  384MOL    H1146737   0.912   1.984   4.072  2.0396 -0.9553 -0.4889
  384MOL    H1246738   1.039   1.874   3.889 -0.4484 -0.3897 -1.6966
  384MOL    H1346739   1.027   2.017   3.794  0.8822  0.5377  0.2798
  384MOL    C1446740   1.144   2.055   3.975  0.2426 -0.2513  0.0530
  384MOL    C1546741   1.267   2.082   3.890 -0.1522  0.1149 -0.2969
  384MOL    H1646742   1.108   2.158   3.984  0.9460  0.1068 -1.0612
  384MOL    H1746743   1.172   2.015   4.072  0.7101  1.2144  0.5432
  384MOL    H1846744   1.310   1.987   3.861 -0.6285 -0.0153 -0.5856
  384MOL    H1946745   1.240   2.138   3.801  2.0623  0.1563 -0.9460
  384MOL    C2046746   1.365   2.174   3.959  0.0584  0.6983 -0.1619
  384MOL    C2146747   1.496   2.205   3.889  0.4685 -0.1840  0.3665
  384MOL    H2246748   1.318   2.271   3.972  1.5231  1.3952 -0.0456
  384MOL    H2346749   1.386   2.137   4.059  2.1936 -0.2776 -0.9506
  384MOL    H2446750   1.460   2.262   3.803 -0.5249 -1.0094  0.2221
  384MOL    H2546751   1.560   2.261   3.957 -1.4717  1.1390  1.1349
  384MOL    C2646752   1.575   2.088   3.831 -0.4094  0.2117  0.1689
  384MOL    C2746753   1.719   2.122   3.792  0.2054 -0.2663  0.2685
  384MOL    H2846754   1.579   2.007   3.904 -1.2263 -0.5213 -0.5842
  384MOL    H2946755   1.514   2.045   3.751 -0.7007 -0.3621  0.6940
  384MOL    H3046756   1.760   2.153   3.887  1.6351 -0.1803 -0.3613
  384MOL    H3146757   1.767   2.030   3.757 -0.1116 -0.6169  0.7584
  384MOL    C3246758   1.737   2.238   3.681 -0.3185  0.4004 -0.3350
  384MOL    C3346759   1.649   2.216   3.561  0.7263  0.6523 -0.3160
  384MOL    H3446760   1.704   2.328   3.733  0.0592  1.1493 -1.3906
  384MOL    H3546761   1.841   2.259   3.660  0.7069 -0.8828  3.0647
  384MOL    H3646762   1.546   2.200   3.592  0.7534  1.0667 -0.0042
  384MOL    H3746763   1.650   2.311   3.507  0.8286  1.1317  0.5180
  384MOL    C3846764   1.684   2.104   3.477  0.0835  0.3769  0.0916
  384MOL    C3946765   1.605   2.111   3.349  0.4492  0.2652  0.8327
  384MOL    H4046766   1.793   2.102   3.465  0.4404 -0.2947  3.0682
  384MOL    H4146767   1.657   2.016   3.535 -1.7805  0.2094 -1.0064
  384MOL    H4246768   1.503   2.082   3.374  0.7554 -0.6243  1.0824
  384MOL    H4346769   1.599   2.213   3.313 -1.0028  0.1020  0.5965
  384MOL    C4446770   1.654   2.014   3.233 -0.2400 -0.1069 -0.6162
  384MOL    C4546771   1.594   2.037   3.089  0.3109 -0.2999 -0.2079
  384MOL    H4646772   1.762   2.025   3.225  0.3619 -3.9609  1.1609
  384MOL    H4746773   1.655   1.913   3.274  0.5289 -0.4765 -1.5182
  384MOL    H4846774   1.489   2.058   3.112  0.0872 -2.1848  0.6436
  384MOL    H4946775   1.625   2.133   3.050  0.3658 -0.4315 -0.4841
  384MOL    C5046776   1.607   1.924   2.984  0.4636  0.0199  0.4156
  384MOL    C5146777   1.526   1.943   2.853  0.1748 -1.1192  0.4085
  384MOL    H5246778   1.714   1.910   2.965  0.0329 -0.5079 -1.6573
  384MOL    H5346779   1.578   1.832   3.035  0.0167 -0.4149 -0.6179
  384MOL    H5446780   1.423   1.978   2.861  1.2072  2.0515  0.2893
  384MOL    H5546781   1.590   2.006   2.792 -1.2812 -1.3551 -1.4215
  384MOL    C5646782   1.511   1.814   2.766  0.3878 -0.0466  0.7923
  384MOL    C5746783   1.644   1.765   2.715 -0.4671  0.6613  0.0556
  384MOL    H5846784   1.462   1.740   2.829 -0.4870 -0.1798 -0.0197
  384MOL    H5946785   1.440   1.839   2.686  0.4200 -0.6431  0.5717
  384MOL    H6046786   1.696   1.836   2.652 -0.6998  0.9076  0.1428
  384MOL    H6146787   1.707   1.748   2.802 -0.5533  0.4025  0.0702
  384MOL    C6246788   1.645   1.638   2.629  0.1249 -0.1887 -0.0763
  384MOL    C6346789   1.779   1.581   2.579 -0.1735 -1.1920  0.7607
  384MOL    H6446790   1.586   1.560   2.676 -3.8748  0.5409 -3.6237
  384MOL    H6546791   1.588   1.672   2.543  1.0177  0.8289 -0.2825
  384MOL    H6646792   1.841   1.666   2.552 -1.4629 -0.7820 -0.9698
  384MOL    H6746793   1.835   1.524   2.653  0.2174 -0.5097  0.9919
  384MOL    C6846794   1.762   1.499   2.443  0.5570 -0.1418 -0.4938
  384MOL    C6946795   1.887   1.457   2.376 -0.1120  0.5323  0.5607
  384MOL    H7046796   1.700   1.412   2.464  1.6522 -0.7029  0.4871
  384MOL    H7146797   1.711   1.564   2.371  1.2686 -0.3344 -1.1839
  384MOL    H7246798   1.949   1.545   2.359  0.9299 -0.1133  0.9288
  384MOL    H7346799   1.942   1.395   2.446 -0.8046 -0.1753  0.4899
  384MOL    C7446800   1.867   1.384   2.240 -0.3617 -0.5231 -0.0820
  384MOL    C7546801   2.001   1.343   2.184 -0.7419  0.4829 -0.0714
  384MOL    H7646802   1.812   1.290   2.250 -1.5971  0.1618 -0.2402
  384MOL    H7746803   1.818   1.453   2.171  1.9863  1.6939  0.4343
  384MOL    H7846804   2.066   1.431   2.189 -0.3118  0.1185  1.0147
  384MOL    H7946805   2.051   1.269   2.246 -1.7274 -1.2874 -1.3632
  384MOL    C8046806   1.980   1.279   2.047  0.2042 -0.2951 -0.1500
  384MOL    C8146807   2.116   1.242   1.976 -0.0693  0.3411  0.0953
  384MOL    H8246808   1.912   1.194   2.052  1.3257 -1.1128  3.1529
  384MOL    H8346809   1.925   1.354   1.991  0.1058 -0.3566 -0.1364
  384MOL    H8446810   2.180   1.330   1.969  1.2089 -0.2868  3.1951
  384MOL    H8546811   2.172   1.167   2.031 -0.3770  0.4962  0.6175
  384MOL    C8646812   2.089   1.186   1.835 -0.5371  0.5899 -0.3392
  384MOL    C8746813   2.208   1.149   1.752  0.1632  0.2224  0.7434
  384MOL    H8846814   2.017   1.104   1.828 -1.3065  1.3599 -1.5952
  384MOL    H8946815   2.030   1.265   1.789 -2.0460 -0.8712 -0.9931
  384MOL    H9046816   2.180   1.143   1.647  2.4878 -2.3975  0.2172
  384MOL    H9146817   2.293   1.217   1.762 -0.2011  1.0370 -1.3940
  384MOL    C9246818   2.268   1.010   1.779 -0.7033 -0.3316 -0.3923
  384MOL    C9346819   2.379   0.976   1.679 -0.0871 -0.3943 -0.0852
  384MOL    H9446820   2.311   0.993   1.878  2.9190  0.8423 -1.6809
  384MOL    H9546821   2.183   0.942   1.780 -0.6593 -0.3919 -0.7652
  384MOL    H9646822   2.373   1.013   1.577  1.1137 -2.0305 -0.7722
  384MOL    H9746823   2.470   1.024   1.713  0.3229  0.4968 -2.3596
  384MOL    C9846824   2.404   0.829   1.674  0.4925 -0.9533  0.2122
  384MOL    C9946825   2.531   0.787   1.601  0.3646 -0.3776  0.0803
  384MOL   H10046826   2.418   0.788   1.773  0.4364  0.6532  0.9015
  384MOL   H10146827   2.312   0.789   1.632 -0.2877  0.0727  0.9239
  384MOL   H10246828   2.559   0.842   1.511  0.8794  1.3107  1.2471
  384MOL   H10346829   2.619   0.808   1.662  0.2800  0.7413 -0.1589
  384MOL   C10446830   2.528   0.641   1.562 -0.6123 -0.9211  0.1735
  384MOL   C10546831   2.626   0.587   1.460  0.2684 -1.0383  0.1240
  384MOL   H10646832   2.534   0.592   1.660 -1.5509 -1.4902 -0.0440
  384MOL   H10746833   2.428   0.612   1.530 -0.2439 -0.6401 -1.2662
  384MOL   H10846834   2.585   0.611   1.362  1.2329 -1.3567 -0.3689
  384MOL   H10946835   2.726   0.629   1.470 -0.7890  1.4522  0.4537
  384MOL   C11046836   2.626   0.435   1.470  0.4878 -0.6151  0.2523
  384MOL   C11146837   2.709   0.366   1.367  0.3434 -0.2435 -0.5331
  384MOL   H11246838   2.659   0.403   1.569  0.4551 -0.8012  0.2016
  384MOL   H11346839   2.520   0.413   1.459  0.6304 -0.7830 -0.7761
  384MOL   H11446840   2.682   0.396   1.266  0.3607 -0.7527 -0.6910
  384MOL   H11546841   2.814   0.396   1.378 -0.5478  2.3309  1.3416
  384MOL   C11646842   2.720   0.217   1.384 -0.3778 -0.4511  0.2351
  384MOL   C11746843   2.597   0.133   1.355 -0.6302  0.5488 -0.2461
  384MOL   H11846844   2.806   0.186   1.326 -0.7331 -0.6336 -0.1970
  384MOL   H11946845   2.750   0.181   1.482 -1.5514  0.5718  0.9852
  384MOL   H12046846   2.521   0.164   1.427  0.9744 -0.8489  2.0945
  384MOL   H12146847   2.563   0.161   1.255 -0.3450 -2.3520 -1.2151
  384MOL   H12246848   2.609   0.025   1.358  0.6142  0.7181  2.2809
  385MOL     C146849   3.594   1.353   4.968  1.0003  0.6182  0.2701
  385MOL     C246850   3.583   1.199   4.948 -0.1833  0.3465  0.2731
  385MOL     H346851   3.502   1.376   5.022  1.2607 -0.3897  1.1651
  385MOL     H446852   3.607   1.407   4.874 -0.2796 -2.0830 -1.5479
  385MOL     H546853   3.603   1.151   5.044  1.0257  2.7798  1.2596
  385MOL     H646854   3.484   1.157   4.932  0.4825 -1.0846 -0.2261
  385MOL     H746855   3.684   1.372   5.026  1.5685 -1.3897  0.1098
  385MOL     C846856   3.684   1.136   4.851  0.2751  0.1603 -0.1715
  385MOL     C946857   3.678   0.981   4.857  0.2747 -0.2483  0.2316
  385MOL    H1046858   3.662   1.163   4.748  0.5898 -0.1414 -0.3197
  385MOL    H1146859   3.783   1.163   4.889 -0.5075 -0.0059  2.0814
  385MOL    H1246860   3.669   0.945   4.960  1.3312  3.9673  1.9012
  385MOL    H1346861   3.593   0.939   4.804  0.7908 -0.4516 -0.4405
  385MOL    C1446862   3.806   0.927   4.786 -0.8784  0.1856 -0.0973
  385MOL    C1546863   3.788   0.772   4.771 -0.0738  0.1901 -0.4096
  385MOL    H1646864   3.831   0.980   4.694  2.0052 -2.7704 -1.0744
  385MOL    H1746865   3.892   0.946   4.851 -2.2015  1.0331  1.4642
  385MOL    H1846866   3.774   0.719   4.865 -0.6265  0.9711 -0.0389
  385MOL    H1946867   3.700   0.739   4.717  0.2158 -0.9673 -0.1815
  385MOL    C2046868   3.911   0.706   4.701  0.1218  0.0076 -0.0889
  385MOL    C2146869   3.891   0.555   4.674  0.2824  0.0135  0.1754
  385MOL    H2246870   3.938   0.775   4.620 -0.8895  1.6248  0.9116
  385MOL    H2346871   3.988   0.711   4.777  0.2631 -4.2729  0.1418
  385MOL    H2446872   3.861   0.510   4.769  0.3922  0.6096  0.4992
  385MOL    H2546873   3.800   0.540   4.615  1.3178 -2.0908 -0.9455
  385MOL    C2646874   4.012   0.479   4.617  0.7689 -0.4968 -0.7739
  385MOL    C2746875   3.991   0.337   4.560 -0.0551  0.3726  0.0834
  385MOL    H2846876   4.067   0.542   4.547  0.7218  0.7910  0.3221
  385MOL    H2946877   4.066   0.464   4.711 -0.8586 -1.6032 -0.0009
  385MOL    H3046878   3.941   0.277   4.637 -0.5740  0.7281  0.0245
  385MOL    H3146879   3.944   0.335   4.462  1.7361  1.1015 -0.8037
  385MOL    C3246880   4.129   0.283   4.530  0.2699  0.3638 -0.1713
  385MOL    C3346881   4.118   0.139   4.491 -0.4167  0.4750 -0.1487
  385MOL    H3446882   4.165   0.338   4.443  1.1245  1.3975  0.8150
  385MOL    H3546883   4.182   0.297   4.624 -1.0016 -0.0516  0.6180
  385MOL    H3646884   4.040   0.088   4.547  0.9598  0.1527  1.5129
  385MOL    H3746885   4.074   0.135   4.392 -1.3181  1.3180  0.1987
  385MOL    C3846886   4.250   0.064   4.480 -0.6393  0.0011  0.3043
  385MOL    C3946887   4.236   7.621   4.408 -0.4260 -0.1350  0.2607
  385MOL    H4046888   4.322   0.116   4.418  1.0621  2.3923  4.0877
  385MOL    H4146889   4.288   0.060   4.582 -1.2587 -0.3420  0.5276
  385MOL    H4246890   4.139   7.586   4.443 -0.2162  0.4941  1.4868
  385MOL    H4346891   4.222   7.639   4.301  1.8547  1.1175  0.1271
  385MOL    C4446892   4.365   7.533   4.434 -0.3312  0.5729  0.3315
  385MOL    C4546893   4.341   7.381   4.402  0.1647 -0.1110 -0.3461
  385MOL    H4646894   4.444   7.566   4.368 -0.5371  0.2001 -0.1058
  385MOL    H4746895   4.396   7.536   4.539 -0.9694 -0.2203  0.5587
  385MOL    H4846896   4.255   7.351   4.463 -0.8847 -0.2353 -1.8750
  385MOL    H4946897   4.313   7.379   4.297 -1.8655  0.3638  0.1668
  385MOL    C5046898   4.462   7.284   4.404 -0.2047  0.8830 -0.8887
  385MOL    C5146899   4.440   7.156   4.314  0.6839  0.2470  0.5845
  385MOL    H5246900   4.555   7.341   4.391  0.2764 -0.2569 -2.6818
  385MOL    H5346901   4.462   7.244   4.505 -1.9699 -0.9079 -1.5878
  385MOL    H5446902   4.341   7.113   4.329  1.2328 -1.0950  0.3786
  385MOL    H5546903   4.437   7.181   4.208  2.0034 -0.9007  0.2712
  385MOL    C5646904   4.551   7.051   4.341 -0.9022  0.2753  0.3254
  385MOL    C5746905   4.545   6.936   4.233 -0.3717 -0.2199 -0.1518
  385MOL    H5846906   4.647   7.102   4.330 -0.1598 -1.0746  0.5266
  385MOL    H5946907   4.545   7.009   4.442 -1.7255  1.6975  0.8890
  385MOL    H6046908   4.463   6.869   4.258 -1.2097  1.0711  0.6488
  385MOL    H6146909   4.530   6.968   4.129 -1.9593 -1.3564 -0.2901
  385MOL    C6246910   4.670   6.844   4.233  0.1205  0.4188  0.1935
  385MOL    C6346911   4.658   6.721   4.143  0.2165  0.3280  0.7100
  385MOL    H6446912   4.757   6.908   4.219  0.5693  0.1061  1.4936
  385MOL    H6546913   4.684   6.804   4.334  1.9025 -0.8789 -0.5408
  385MOL    H6646914   4.573   6.668   4.186  0.5678 -0.8310  0.0095
  385MOL    H6746915   4.637   6.749   4.040 -1.9642  1.4337  1.4405
  385MOL    C6846916   4.792   6.634   4.158  0.0597  0.0455  0.6793
  385MOL    C6946917   4.774   6.506   4.071 -0.1921 -0.0259  0.4892
  385MOL    H7046918   4.872   6.702   4.129 -0.4975  0.9012  1.1456
  385MOL    H7146919   4.814   6.606   4.261  2.4728 -1.3014 -0.1652
  385MOL    H7246920   4.706   6.436   4.120 -1.7165  0.8195 -0.3816
  385MOL    H7346921   4.726   6.533   3.977 -3.9719 -0.8405  2.0909
  385MOL    C7446922   4.909   6.446   4.040 -1.3303 -0.3669  0.5641
  385MOL    C7546923   4.905   6.305   3.982 -0.3452  0.5231 -0.0639
  385MOL    H7646924   4.963   6.522   3.984  1.6320 -1.3433  1.9488
  385MOL    H7746925   4.957   6.430   4.137  0.7756 -1.4438 -0.6093
  385MOL    H7846926   4.854   6.235   4.048  0.6264 -0.1428 -0.0035
  385MOL    H7946927   4.841   6.297   3.895  1.0453 -0.7601 -1.0078
  385MOL    C8046928   5.049   6.249   3.956 -0.2834  0.3851  0.4494
  385MOL    C8146929   5.047   6.111   3.891 -0.1955  0.0756  0.6646
  385MOL    H8246930   5.097   6.322   3.890  1.2985 -0.7314  0.3455
  385MOL    H8346931   5.106   6.267   4.047 -2.1064  0.2656  1.6486
  385MOL    H8446932   4.996   6.051   3.967 -0.8471  0.8890  0.8735
  385MOL    H8546933   5.001   6.119   3.793  1.0332  0.9824  0.1624
  385MOL    C8646934   5.179   6.043   3.872 -0.3151  1.2616  0.0479
  385MOL    C8746935   5.174   5.904   3.799  0.2477 -0.1765 -0.0019
  385MOL    H8846936   5.235   6.104   3.801  0.0856  1.4119  0.4953
  385MOL    H8946937   5.237   6.037   3.964  2.0009 -1.3577 -1.5013
  385MOL    H9046938   5.278   5.874   3.794  0.2643 -0.2761  0.8796
  385MOL    H9146939   5.105   5.845   3.859  0.8341 -0.3429  0.5098
  385MOL    C9246940   5.128   5.928   3.655 -0.3883  0.2858 -0.0406
  385MOL    C9346941   5.181   5.820   3.564  0.2784  0.4356 -0.7728
  385MOL    H9446942   5.019   5.931   3.656 -0.4967 -2.3484  1.1381
  385MOL    H9546943   5.157   6.025   3.616  1.0035 -0.7294 -1.5718
  385MOL    H9646944   5.290   5.824   3.554  0.9170 -0.0764  4.2888
  385MOL    H9746945   5.169   5.727   3.619  0.3830  0.6629 -0.3586
  385MOL    C9846946   5.094   5.816   3.434  0.5152  0.2940  0.0960
  385MOL    C9946947   5.111   5.687   3.347  0.2852 -0.1890 -0.0409
  385MOL   H10046948   4.987   5.830   3.446 -0.1829 -2.7333 -2.0699
  385MOL   H10146949   5.111   5.901   3.368 -0.7485  2.2452  2.1901
  385MOL   H10246950   5.216   5.656   3.354 -0.0329 -1.1492  0.5754
  385MOL   H10346951   5.043   5.608   3.379  1.8656 -1.8162 -0.5891
  385MOL   C10446952   5.073   5.702   3.201  0.5561  0.1785  0.6899
  385MOL   C10546953   5.142   5.592   3.107 -0.0811  0.2386  0.3982
  385MOL   H10646954   4.965   5.691   3.189  0.7030  1.0097 -1.4308
  385MOL   H10746955   5.096   5.801   3.163 -0.5074  0.1911  0.0657
  385MOL   H10846956   5.133   5.623   3.003 -1.7917 -0.0506  0.4473
  385MOL   H10946957   5.250   5.602   3.125  0.0468  1.8280 -1.1304
  385MOL   C11046958   5.099   5.450   3.132 -0.4179  0.4075  0.3205
  385MOL   C11146959   4.964   5.407   3.060  0.4622 -0.8514  0.8680
  385MOL   H11246960   5.181   5.383   3.106 -1.8506 -1.1879 -0.1682
  385MOL   H11346961   5.090   5.425   3.238 -0.4378 -3.2267 -0.4661
  385MOL   H11446962   4.884   5.478   3.081  0.5214 -0.3574 -0.5282
  385MOL   H11546963   4.981   5.384   2.955  0.4057 -3.2091  1.3367
  385MOL   C11646964   4.931   5.261   3.096  0.2515 -0.3929 -0.1309
  385MOL   C11746965   4.810   5.213   3.011 -0.3261 -0.1938 -0.4022
  385MOL   H11846966   5.013   5.192   3.081 -1.0638 -2.1703  0.7612
  385MOL   H11946967   4.897   5.254   3.199 -2.7600  0.4894 -0.9807
  385MOL   H12046968   4.710   5.250   3.034  0.0961  0.2797  0.7338
  385MOL   H12146969   4.817   5.220   2.902  1.4566  1.1328 -0.2328
  385MOL   H12246970   4.797   5.106   3.020  0.0935 -0.2385 -0.2981
  386MOL     C146971   1.721   7.496   1.605 -0.0611  0.5801  0.0587
  386MOL     C246972   1.648   7.607   1.532  0.0723 -0.7504 -0.2823
  386MOL     H346973   1.804   7.523   1.671 -0.8082  1.3156  0.7118
  386MOL     H446974   1.754   7.423   1.531 -0.2244  0.1246  0.4345
  386MOL     H546975   1.714   7.650   1.457  0.2261 -0.2077  0.1573
  386MOL     H646976   1.561   7.571   1.477  2.1709 -1.6448 -3.1094
  386MOL     H746977   1.652   7.439   1.667 -0.5242 -0.6556 -1.5611
  386MOL     C846978   1.620   0.025   1.628  0.3670  0.0001 -0.1555
  386MOL     C946979   1.525   0.137   1.573  0.2507 -0.1658  0.2061
  386MOL    H1046980   1.595   7.675   1.725  1.8583 -0.3186  0.1061
  386MOL    H1146981   1.717   0.073   1.644  0.8804 -0.9274 -0.4584
  386MOL    H1246982   1.576   0.169   1.482  2.1193 -2.3238  0.4610
  386MOL    H1346983   1.433   0.089   1.539 -1.3654  1.6346  1.9203
  386MOL    C1446984   1.503   0.259   1.667 -0.1230  0.2728 -0.5928
  386MOL    C1546985   1.397   0.355   1.624  0.5541 -0.6097 -0.4124
  386MOL    H1646986   1.472   0.214   1.762 -0.5676  0.2009 -0.7698
  386MOL    H1746987   1.600   0.305   1.682  1.3453 -2.3697 -1.6325
  386MOL    H1846988   1.427   0.420   1.541  1.5139 -1.2210 -0.5557
  386MOL    H1946989   1.314   0.294   1.589  0.1375 -0.0016 -0.4997
  386MOL    C2046990   1.341   0.440   1.735  0.1066  0.0825 -0.1391
  386MOL    C2146991   1.208   0.513   1.692 -0.6429 -0.2533  0.3822
  386MOL    H2246992   1.324   0.381   1.825 -1.0256  1.5774  0.6574
  386MOL    H2346993   1.415   0.517   1.759  1.0792  0.2980 -3.5661
  386MOL    H2446994   1.223   0.600   1.629 -2.0627  0.1632  0.6093
  386MOL    H2546995   1.146   0.446   1.633 -2.6603  1.8917 -0.0140
  386MOL    C2646996   1.129   0.573   1.812  0.1353  0.0671  0.0325
  386MOL    C2746997   1.011   0.663   1.762 -0.5036 -0.8159 -0.2173
  386MOL    H2846998   1.092   0.488   1.869  1.5467  1.7809  3.7220
  386MOL    H2946999   1.194   0.628   1.880 -0.2540  1.1721 -0.4860
  386MOL    H3047000   1.040   0.752   1.706 -0.2147 -0.3509  0.6498
  386MOL    H3147001   0.956   0.585   1.709  1.9141 -1.7874 -1.4016
  386MOL    C3247002   0.932   0.720   1.870 -0.2642 -0.2302 -0.5525
  386MOL    C3347003   0.803   0.781   1.823  0.1427 -0.0865  0.2610
  386MOL    H3447004   0.930   0.632   1.934  3.4257 -0.6913 -0.9676
  386MOL    H3547005   0.977   0.794   1.937 -0.7595 -0.8275  0.4553
  386MOL    H3647006   0.818   0.860   1.749 -0.7690 -0.5695 -0.4425
  386MOL    H3747007   0.742   0.714   1.763  0.5575  0.8014 -1.1725
  386MOL    C3847008   0.716   0.834   1.936  0.9552  0.0175 -0.4274
  386MOL    C3947009   0.572   0.885   1.912  0.0756 -0.1825  0.2381
  386MOL    H4047010   0.721   0.764   2.020 -0.5188  0.9658  0.4942
  386MOL    H4147011   0.772   0.918   1.978 -1.1680  1.7744 -0.9669
  386MOL    H4247012   0.505   0.801   1.892 -0.5616  0.2583  0.4879
  386MOL    H4347013   0.540   0.916   2.011  0.4509 -0.3650  0.4169
  386MOL    C4447014   0.559   0.988   1.797  0.2120 -0.2410 -0.2110
  386MOL    C4547015   0.444   1.083   1.815  0.3672  0.0227 -0.2010
  386MOL    H4647016   0.653   1.043   1.786  1.9082 -2.4891  2.3203
  386MOL    H4747017   0.543   0.944   1.698  0.6208 -0.9245  0.0241
  386MOL    H4847018   0.396   1.105   1.719 -0.5077  0.9939  0.4518
  386MOL    H4947019   0.362   1.034   1.867  0.5896  1.0860  1.1610
  386MOL    C5047020   0.474   1.212   1.887  0.0640  0.6654 -0.6642
  386MOL    C5147021   0.532   1.314   1.798 -0.1602 -0.2262  0.2364
  386MOL    H5247022   0.375   1.249   1.912  0.0987  0.5965 -0.4301
  386MOL    H5347023   0.539   1.196   1.972  0.6185 -0.3102 -1.2599
  386MOL    H5447024   0.630   1.271   1.778  0.5976  1.8042 -0.6185
  386MOL    H5547025   0.479   1.313   1.702 -2.0739  0.5472  1.2592
  386MOL    C5647026   0.560   1.453   1.862 -0.0805 -0.2827  0.4324
  386MOL    C5747027   0.627   1.544   1.761 -0.1099  0.3378 -0.1734
  386MOL    H5847028   0.475   1.505   1.905  0.9043  0.4464  1.5223
  386MOL    H5947029   0.625   1.438   1.948 -0.5570 -1.8432  0.5317
  386MOL    H6047030   0.720   1.493   1.733 -1.0332 -1.4313 -0.0589
  386MOL    H6147031   0.565   1.560   1.673 -0.6581  1.2841  0.3774
  386MOL    C6247032   0.668   1.678   1.822 -0.2868  1.0264 -1.0321
  386MOL    C6347033   0.699   1.783   1.709  0.3701 -0.1318  0.9380
  386MOL    H6447034   0.594   1.719   1.890  1.4573  1.2920  0.7402
  386MOL    H6547035   0.759   1.662   1.880 -0.8343 -1.2128 -0.7468
  386MOL    H6647036   0.784   1.755   1.646  0.6308  0.3218  1.0836
  386MOL    H6747037   0.616   1.788   1.638  0.1112  1.2636  1.3219
  386MOL    C6847038   0.712   1.923   1.759 -0.2170 -0.3641  0.6329
  386MOL    C6947039   0.750   2.036   1.651  0.3448  0.2074 -0.7674
  386MOL    H7047040   0.625   1.949   1.821 -0.2086 -0.6460  0.7623
  386MOL    H7147041   0.791   1.916   1.834  4.4306 -0.9270 -4.0573
  386MOL    H7247042   0.847   2.011   1.608  0.5407 -0.4828  0.0588
  386MOL    H7347043   0.690   2.024   1.560  0.7659  1.3420 -1.2026
  386MOL    C7447044   0.757   2.173   1.711 -0.0152  0.0800  0.0461
  386MOL    C7547045   0.626   2.246   1.733  0.0565 -0.1247  0.3237
  386MOL    H7647046   0.817   2.159   1.801 -1.4379 -1.4284  0.7833
  386MOL    H7747047   0.819   2.233   1.645  1.2165 -1.6727 -0.4230
  386MOL    H7847048   0.577   2.263   1.637  0.3410 -1.2882 -0.0361
  386MOL    H7947049   0.557   2.180   1.784  0.1128 -0.0310  0.5212
  386MOL    C8047050   0.651   2.390   1.790  0.0060  0.2441  0.3995
  386MOL    C8147051   0.735   2.401   1.919 -0.4116 -0.3097  0.7181
  386MOL    H8247052   0.713   2.443   1.717  0.7135  0.4972  1.1894
  386MOL    H8347053   0.557   2.444   1.802  1.0842  2.0099  1.0407
  386MOL    H8447054   0.687   2.351   2.003  1.6610  0.4403  2.4056
  386MOL    H8547055   0.827   2.342   1.917 -0.4898 -0.3813 -2.2549
  386MOL    C8647056   0.750   2.540   1.963  0.1822  0.5443 -0.5433
  386MOL    C8747057   0.845   2.631   1.885  0.4135 -0.3132  0.2064
  386MOL    H8847058   0.651   2.584   1.966  0.8539  2.0161  1.4999
  386MOL    H8947059   0.787   2.557   2.064 -0.0227  0.5397 -0.4680
  386MOL    H9047060   0.943   2.585   1.883  2.4341  3.7425  1.3229
  386MOL    H9147061   0.810   2.640   1.782 -0.7511 -3.0104  0.3147
  386MOL    C9247062   0.849   2.772   1.947  0.1678 -0.5014  0.3848
  386MOL    C9347063   0.914   2.880   1.859 -0.0406  0.2257  0.7268
  386MOL    H9447064   0.749   2.802   1.980  0.1315  0.5858 -0.6640
  386MOL    H9547065   0.912   2.768   2.036 -0.9660  0.2456  1.2465
  386MOL    H9647066   1.014   2.842   1.841  0.3283  1.2447  0.5477
  386MOL    H9747067   0.850   2.878   1.770  1.7170 -0.9100 -0.5364
  386MOL    C9847068   0.902   3.024   1.914  1.0532  0.0767 -0.1570
  386MOL    C9947069   0.917   3.140   1.823  0.1679 -0.0906  0.8119
  386MOL   H10047070   0.814   3.039   1.976  0.6103  0.3623 -0.8382
  386MOL   H10147071   0.984   3.034   1.984  1.0130 -2.3185  0.2881
  386MOL   H10247072   1.002   3.112   1.761  0.2949 -0.3810  1.1211
  386MOL   H10347073   0.822   3.144   1.770  0.0859 -3.1157  0.6655
  386MOL   C10447074   0.949   3.278   1.891 -0.3695 -0.1599 -0.2117
  386MOL   C10547075   0.955   3.383   1.787  0.1670 -0.6326 -0.1553
  386MOL   H10647076   0.873   3.284   1.969  0.1794  1.0169  0.2501
  386MOL   H10747077   1.044   3.267   1.943 -0.7599 -2.5234  0.0457
  386MOL   H10847078   1.034   3.370   1.713 -0.2849  0.1995 -0.7848
  386MOL   H10947079   0.865   3.380   1.725  0.6113 -0.3553 -0.8119
  386MOL   C11047080   0.966   3.527   1.852  0.5461 -0.3772  0.4237
  386MOL   C11147081   0.994   3.643   1.751  0.8967 -0.2185  0.3501
  386MOL   H11247082   0.871   3.549   1.902  1.8439  0.3766  2.6173
  386MOL   H11347083   1.060   3.522   1.906  0.2668  1.0145  1.0681
  386MOL   H11447084   0.913   3.659   1.680  1.4062  0.7690 -0.0183
  386MOL   H11547085   1.001   3.735   1.808 -1.3771  0.1612  0.0425
  386MOL   C11647086   1.120   3.625   1.671 -0.0975 -0.3009  0.2099
  386MOL   C11747087   1.253   3.618   1.749  0.6641 -0.0484 -0.2535
  386MOL   H11847088   1.122   3.531   1.617 -0.8567 -0.8228  1.0670
  386MOL   H11947089   1.127   3.712   1.606  2.9674 -0.8811 -0.2864
  386MOL   H12047090   1.336   3.650   1.685  0.2230 -0.4305 -1.0355
  386MOL   H12147091   1.250   3.689   1.831 -2.1040 -1.6681  1.1293
  386MOL   H12247092   1.284   3.518   1.782 -3.7269 -2.1141 -1.9552
  387MOL     C147093   6.880   0.947   2.785 -0.2338  0.8291 -0.1093
  387MOL     C247094   6.823   1.065   2.699  0.1398 -0.2572  0.5676
  387MOL     H347095   6.866   0.847   2.745  2.8710 -0.2689  1.3421
  387MOL     H447096   6.843   0.946   2.888  0.0535  0.8562 -0.0049
  387MOL     H547097   6.714   1.060   2.707  0.2397 -0.5708  1.7435
  387MOL     H647098   6.853   1.157   2.749  2.8522 -1.1087  0.5838
  387MOL     H747099   6.989   0.957   2.792 -0.0559 -0.4721 -0.9586
  387MOL     C847100   6.890   1.062   2.557 -0.2927  0.4420 -0.9451
  387MOL     C947101   6.834   0.950   2.461 -1.2847 -0.2608 -0.0208
  387MOL    H1047102   6.863   1.158   2.513  0.5922  0.7918 -0.7233
  387MOL    H1147103   6.999   1.067   2.552 -0.1296 -0.7244  0.8922
  387MOL    H1247104   6.890   0.864   2.499 -1.6591 -0.3919  0.2464
  387MOL    H1347105   6.729   0.936   2.489 -1.3547 -1.6458 -0.9270
  387MOL    C1447106   6.859   0.957   2.314  0.0403 -0.5273 -0.3407
  387MOL    C1547107   6.789   0.837   2.241  0.2430 -0.0519  0.2705
  387MOL    H1647108   6.835   1.055   2.272  0.5739 -0.0398  0.4517
  387MOL    H1747109   6.968   0.948   2.305  0.3668  1.8497  0.8250
  387MOL    H1847110   6.820   0.742   2.284  1.6408  0.8610  1.2958
  387MOL    H1947111   6.680   0.845   2.249  0.0294 -0.3986 -1.8010
  387MOL    C2047112   6.826   0.856   2.090 -0.3131  0.8931 -0.3028
  387MOL    C2147113   6.745   0.762   2.004 -0.3800 -0.1428  0.9585
  387MOL    H2247114   6.784   0.953   2.065 -0.7604  0.6818 -0.3861
  387MOL    H2347115   6.930   0.857   2.057 -0.5166  2.4673 -0.9704
  387MOL    H2447116   6.778   0.659   2.018  0.4999  0.0249  0.1259
  387MOL    H2547117   6.643   0.760   2.042 -0.1855  0.1415  1.4959
  387MOL    C2647118   6.738   0.787   1.851 -0.5269  0.0535  0.0251
  387MOL    C2747119   6.689   0.664   1.766  0.0029 -0.3901 -0.1347
  387MOL    H2847120   6.677   0.871   1.818  0.9033  0.8412 -0.6477
  387MOL    H2947121   6.836   0.809   1.809  0.3871 -0.5600  1.7854
  387MOL    H3047122   6.744   0.580   1.809  0.5345 -0.8023 -1.5936
  387MOL    H3147123   6.588   0.639   1.796  0.5070 -2.0694  0.1899
  387MOL    C3247124   6.694   0.688   1.613  0.1673 -0.3535 -0.3308
  387MOL    C3347125   6.660   0.565   1.532  0.1699 -0.5197 -0.4471
  387MOL    H3447126   6.634   0.778   1.595 -1.2346 -1.4373 -1.1834
  387MOL    H3547127   6.797   0.717   1.592 -0.0560  2.0234  1.6362
  387MOL    H3647128   6.732   0.484   1.547  1.5911  0.6638 -0.8307
  387MOL    H3747129   6.562   0.527   1.560 -0.8279  1.0046 -1.8269
  387MOL    C3847130   6.648   0.595   1.382  1.3793  0.0264  0.4193
  387MOL    C3947131   6.577   0.484   1.309  0.7171 -0.4158  0.5273
  387MOL    H4047132   6.595   0.688   1.362  0.2636 -0.4597  1.0129
  387MOL    H4147133   6.745   0.619   1.339  0.5933  1.1081 -0.8073
  387MOL    H4247134   6.510   0.434   1.379  0.0994 -1.4968 -0.8217
  387MOL    H4347135   6.517   0.526   1.229  1.7069 -0.4601 -0.2351
  387MOL    C4447136   6.682   0.388   1.245  0.7738 -0.0171  0.4302
  387MOL    C4547137   6.624   0.289   1.140 -0.0939 -0.5133  0.5974
  387MOL    H4647138   6.748   0.457   1.193 -0.4193  1.5602  0.9495
  387MOL    H4747139   6.747   0.340   1.318  1.4520 -0.5315 -0.4931
  387MOL    H4847140   6.582   0.207   1.198  1.9402  0.1356  3.1004
  387MOL    H4947141   6.553   0.340   1.075  0.5019 -1.0097 -0.4535
  387MOL    C5047142   6.730   0.244   1.046  0.5463  0.4614  0.2322
  387MOL    C5147143   6.834   0.155   1.111  0.0268 -0.3175 -0.2026
  387MOL    H5247144   6.680   0.189   0.966 -1.0636  0.4730  1.2174
  387MOL    H5347145   6.783   0.328   1.000  0.7778 -0.1463 -0.6501
  387MOL    H5447146   6.917   0.204   1.164 -0.0845  1.0797 -1.2826
  387MOL    H5547147   6.775   0.093   1.178 -0.7152  1.4951  0.8584
  387MOL    C5647148   6.900   0.079   1.008  0.3176  0.6175 -0.0609
  387MOL    C5747149   7.012   7.687   1.076 -0.0597 -0.0690 -0.0093
  387MOL    H5847150   6.836   0.012   0.951  0.0688  1.9071 -1.3135
  387MOL    H5947151   6.960   0.143   0.944 -0.0036  0.7734 -0.2059
  387MOL    H6047152   7.099   0.056   1.102  1.1651 -1.3831 -0.9693
  387MOL    H6147153   6.988   7.627   1.164 -1.0276 -0.1932 -0.3596
  387MOL    C6247154   7.061   7.568   0.985  0.1848  0.1583 -0.2354
  387MOL    C6347155   7.162   7.477   1.050 -1.1278  0.2672  0.4404
  387MOL    H6447156   6.974   7.507   0.962  0.3125 -1.1273  2.4152
  387MOL    H6547157   7.098   7.619   0.896 -1.5048  1.3195 -0.2975
  387MOL    H6647158   7.118   7.434   1.140 -3.0207  0.1920 -0.5066
  387MOL    H6747159   7.176   7.386   0.991 -1.7104  0.2599  0.3194
  387MOL    C6847160   7.301   7.534   1.077  0.2836 -0.6382 -0.2419
  387MOL    C6947161   7.390   7.456   1.180  0.0770  0.1648 -0.3586
  387MOL    H7047162   7.359   7.538   0.985  0.9040  0.9420  0.1991
  387MOL    H7147163   7.290   7.636   1.114  2.3462  0.0229 -1.4079
  387MOL    H7247164   7.326   7.439   1.267 -1.0500  0.5367 -1.1014
  387MOL    H7347165   7.418   7.359   1.139  1.1235  0.9870 -1.5956
  387MOL    C7447166   7.524   7.528   1.212 -0.2535 -0.6283 -0.5916
  387MOL    C7547167   7.619   7.440   1.299 -0.5841  0.5108 -0.1718
  387MOL    H7647168   7.571   7.565   1.120 -1.2645 -0.3540 -1.0010
  387MOL    H7747169   7.503   7.618   1.269  1.1720 -1.3019  1.0187
  387MOL    H7847170   7.628   7.341   1.254  0.8639  1.0518 -1.1090
  387MOL    H7947171   0.029   7.474   1.281 -0.3850  0.5214  0.9163
  387MOL    C8047172   7.599   7.438   1.457  0.2353 -0.8711  1.3425
  387MOL    C8147173   0.031   7.376   1.524 -0.1464 -0.0375  0.4456
  387MOL    H8247174   7.581   7.537   1.500  3.2110  0.3063  0.0138
  387MOL    H8347175   7.506   7.386   1.483 -0.5307  0.6415  1.6779
  387MOL    H8447176   0.036   7.275   1.483  0.1139 -0.5041  1.6030
  387MOL    H8547177   0.125   7.423   1.495  0.5985 -2.6787 -1.6157
  387MOL    C8647178   0.024   7.372   1.669 -0.2622  0.0769 -0.0509
  387MOL    C8747179   0.138   7.294   1.739 -0.2487 -0.3626  0.2816
  387MOL    H8847180   0.036   7.479   1.687  2.0381  0.1873 -1.9648
  387MOL    H8947181   7.616   7.339   1.698 -0.1376  2.1818  2.9572
  387MOL    H9047182   0.150   7.189   1.712 -2.4410 -0.4236 -0.5959
  387MOL    H9147183   0.238   7.330   1.717 -0.4265  0.2071  0.3848
  387MOL    C9247184   0.131   7.313   1.885  0.6854 -0.1075 -0.4835
  387MOL    C9347185   0.262   7.313   1.960  1.1289 -0.1185 -0.3986
  387MOL    H9447186   0.078   7.406   1.903 -0.9335 -0.4456 -3.1232
  387MOL    H9547187   0.071   7.232   1.928  0.8262  0.0337 -0.0198
  387MOL    H9647188   0.295   7.209   1.964 -0.6244 -0.7071 -0.8049
  387MOL    H9747189   0.335   7.375   1.907  0.9972  0.9586  0.6646
  387MOL    C9847190   0.244   7.362   2.101 -0.3034 -0.2193 -0.1762
  387MOL    C9947191   0.368   7.341   2.191 -0.5568  1.3076 -0.0941
  387MOL   H10047192   0.220   7.467   2.084  0.8845  0.0833 -0.0121
  387MOL   H10147193   0.157   7.310   2.141 -0.5532  0.0634 -0.3457
  387MOL   H10247194   0.397   7.236   2.187 -0.1404  1.3518  1.4022
  387MOL   H10347195   0.451   7.391   2.141 -0.6581  1.6871  0.1156
  387MOL   C10447196   0.357   7.400   2.332 -0.4306  0.2293 -0.9167
  387MOL   C10547197   0.476   7.338   2.414 -0.1468  0.2929  0.3804
  387MOL   H10647198   0.354   7.509   2.336 -0.5987  0.2204 -0.8206
  387MOL   H10747199   0.264   7.371   2.378  0.6684 -1.4806  0.2726
  387MOL   H10847200   0.486   7.230   2.419 -1.2333  0.2133  0.9266
  387MOL   H10947201   0.575   7.365   2.376  0.2417  0.9481  1.8361
  387MOL   C11047202   0.484   7.397   2.551 -0.3010 -0.0013  0.7591
  387MOL   C11147203   0.622   7.349   2.618  0.2186  0.0584  0.4600
  387MOL   H11247204   0.475   7.506   2.541 -1.7697 -0.3828 -3.0683
  387MOL   H11347205   0.405   7.357   2.615 -0.5040 -3.0414 -1.3230
  387MOL   H11447206   0.621   7.240   2.621 -0.7884  0.0607  0.4817
  387MOL   H11547207   0.711   7.378   2.563  0.3528 -0.2927  0.4926
  387MOL   C11647208   0.636   7.388   2.767  0.2582  0.3376 -0.1918
  387MOL   C11747209   0.775   7.354   2.822 -0.3039  0.1355  0.2619
  387MOL   H11847210   0.633   7.496   2.779  1.1373  0.3563 -0.0953
  387MOL   H11947211   0.555   7.351   2.829 -0.4410 -1.5049 -2.1520
  387MOL   H12047212   0.803   7.249   2.832  0.9561  0.3091 -1.1937
  387MOL   H12147213   0.847   7.410   2.762 -0.6705  2.5114  1.9622
  387MOL   H12247214   0.797   7.398   2.919  1.2363  0.6429 -0.3063
  388MOL     C147215   5.457   5.195   4.611  0.8686  0.1146  0.3005
  388MOL     C247216   5.446   5.193   4.764  0.1234  0.5993  0.2225
  388MOL     H347217   5.558   5.185   4.571  0.4388  1.1192 -1.0812
  388MOL     H447218   5.409   5.284   4.569 -2.1563 -0.1992  2.8897
  388MOL     H547219   5.346   5.214   4.802 -0.5389 -0.4264 -0.8947
  388MOL     H647220   5.477   5.093   4.795  1.0628  0.6350 -0.5913
  388MOL     H747221   5.410   5.110   4.561 -0.4134 -0.3071  2.1537
  388MOL     C847222   5.528   5.305   4.824 -0.9755 -0.4795 -0.3335
  388MOL     C947223   5.539   5.291   4.978 -0.3062  0.8167 -0.4820
  388MOL    H1047224   5.630   5.311   4.787 -0.8484 -2.0544 -0.2488
  388MOL    H1147225   5.482   5.398   4.789  0.1106  0.3847  0.5030
  388MOL    H1247226   5.446   5.249   5.017 -0.1824 -0.2781 -1.3378
  388MOL    H1347227   5.618   5.223   5.010 -0.9095  1.5102  2.6444
  388MOL    C1447228   5.561   5.435   5.044 -0.3360 -0.1133 -0.0816
  388MOL    C1547229   5.601   5.438   5.200 -0.1603 -0.3534  1.0785
  388MOL    H1647230   5.638   5.477   4.980  0.5638 -1.9904 -0.2683
  388MOL    H1747231   5.473   5.497   5.025  0.7166  0.2976 -4.1826
  388MOL    H1847232   5.515   5.395   5.251  1.1141 -0.0928  3.5474
  388MOL    H1947233   5.692   5.379   5.217 -0.1957 -0.8030 -0.2397
  388MOL    C2047234   5.623   5.578   5.251  0.5924 -0.5381 -0.0078
  388MOL    C2147235   5.664   5.589   5.400 -0.1028 -0.4873 -0.7423
  388MOL    H2247236   5.691   5.636   5.189  2.0430 -1.7699  0.4136
  388MOL    H2347237   5.530   5.633   5.235  1.6396  0.3704 -3.4616
  388MOL    H2447238   5.583   5.541   5.455 -0.0774  0.0046 -0.2754
  388MOL    H2547239   5.761   5.541   5.414  1.8126  2.8733 -2.1162
  388MOL    C2647240   5.698   5.733   5.446 -0.3578  0.2379 -0.1097
  388MOL    C2747241   5.745   5.735   5.596 -0.0583  0.0779  0.0891
  388MOL    H2847242   5.780   5.777   5.388 -1.1720  0.8993 -0.7661
  388MOL    H2947243   5.603   5.785   5.435  0.3462  1.7981  0.9228
  388MOL    H3047244   5.676   5.687   5.665 -0.5013 -0.6677 -0.8763
  388MOL    H3147245   5.840   5.683   5.614  0.4209  0.6682 -0.6936
  388MOL    C3247246   5.773   5.882   5.633  0.0044  0.4398 -0.1622
  388MOL    C3347247   5.885   5.900   5.732 -0.3551 -0.2629 -0.1152
  388MOL    H3447248   5.813   5.941   5.550  0.1989  0.8943  0.2509
  388MOL    H3547249   5.679   5.934   5.651 -0.2397  0.1965 -0.7234
  388MOL    H3647250   5.868   5.847   5.826 -0.5568  0.9315  0.5321
  388MOL    H3747251   5.966   5.848   5.682  1.3818  0.7684  1.5661
  388MOL    C3847252   5.918   6.042   5.771  0.1060  0.2974 -0.3465
  388MOL    C3947253   6.003   6.054   5.903  0.1041  0.0612 -0.6796
  388MOL    H4047254   5.967   6.100   5.693  2.2506 -2.6264 -1.2577
  388MOL    H4147255   5.826   6.098   5.789  0.9494  2.2558 -1.8635
  388MOL    H4247256   5.946   6.007   5.983  2.0918 -1.2957 -0.0189
  388MOL    H4347257   6.095   5.995   5.902 -0.3587 -0.7370 -4.0065
  388MOL    C4447258   6.037   6.200   5.928  0.6893 -0.2177 -0.3312
  388MOL    C4547259   6.072   6.226   6.077 -0.1566 -0.1056 -0.3314
  388MOL    H4647260   6.108   6.244   5.858  1.3412 -1.7936 -0.6751
  388MOL    H4747261   5.952   6.268   5.920  0.4411 -0.6287 -1.2102
  388MOL    H4847262   6.078   6.335   6.069  2.6468 -0.2490 -1.0841
  388MOL    H4947263   5.997   6.189   6.146  1.6974 -1.8998  0.7978
  388MOL    C5047264   6.218   6.175   6.112  0.0432 -0.0108  0.9906
  388MOL    C5147265   6.264   6.232   6.245 -0.1456 -0.5215  0.2652
  388MOL    H5247266   6.210   6.067   6.098 -0.4392  0.0457  0.8089
  388MOL    H5347267   6.283   6.199   6.029 -0.4306  1.6122  1.0805
  388MOL    H5447268   6.294   6.336   6.247  2.1246 -1.1276 -0.8564
  388MOL    H5547269   6.176   6.222   6.309 -0.0623  0.5309  0.5402
  388MOL    C5647270   6.376   6.157   6.319  0.3802 -0.4242 -0.2960
  388MOL    C5747271   6.413   6.216   6.457 -0.2935 -0.4628 -0.7514
  388MOL    H5847272   6.327   6.061   6.334 -1.3602  0.5918  0.8047
  388MOL    H5947273   6.461   6.148   6.253  0.4950 -0.7350 -0.1057
  388MOL    H6047274   6.462   6.313   6.446  0.1545 -0.3132  2.3034
  388MOL    H6147275   6.323   6.233   6.516  0.1259 -1.0687  0.0596
  388MOL    C6247276   6.504   6.124   6.537  0.2002 -0.0068  0.7200
  388MOL    C6347277   6.646   6.099   6.473 -0.4926  0.0799 -0.1512
  388MOL    H6447278   6.513   6.173   6.634  0.6166  1.1133  0.1310
  388MOL    H6547279   6.461   6.024   6.546  1.8645 -1.0097 -2.1203
  388MOL    H6647280   6.628   6.044   6.380 -0.6264 -0.1389  0.0037
  388MOL    H6747281   6.707   6.185   6.448  0.6336 -0.9103 -0.8751
  388MOL    C6847282   6.751   6.014   6.560  0.0316  0.3017 -0.4424
  388MOL    C6947283   6.784   6.082   6.692  0.2854  0.1112 -0.5743
  388MOL    H7047284   6.713   5.917   6.589  1.4928 -0.1196  0.0943
  388MOL    H7147285   6.841   5.986   6.506  0.2139 -0.0051  0.0260
  388MOL    H7247286   6.771   6.189   6.675  0.0174  0.0235 -0.9266
  388MOL    H7347287   6.705   6.073   6.767  0.1862 -0.6630 -0.7714
  388MOL    C7447288   6.916   6.049   6.750 -0.4108  0.5228  0.7881
  388MOL    C7547289   6.941   6.105   6.887 -0.1194  0.7266 -0.4816
  388MOL    H7647290   6.940   5.943   6.758 -1.1007  0.3073  0.0250
  388MOL    H7747291   6.985   6.073   6.669 -2.1296  1.5769 -0.3848
  388MOL    H7847292   6.947   6.213   6.895  1.8935  0.7706 -2.0950
  388MOL    H7947293   6.859   6.080   6.953  0.7579 -0.0707  0.3354
  388MOL    C8047294   7.071   6.048   6.947 -0.2476  0.1602  0.4031
  388MOL    C8147295   7.192   6.118   6.889  0.2029  0.5596 -0.1578
  388MOL    H8247296   7.061   6.060   7.054  0.6842  2.0706  0.2984
  388MOL    H8347297   7.084   5.941   6.934 -0.6766  0.2370 -0.7842
  388MOL    H8447298   7.172   6.123   6.782 -1.1657  1.6156  0.1353
  388MOL    H8547299   7.201   6.223   6.914  0.4628  0.8349 -1.3647
  388MOL    C8647300   7.318   6.037   6.927 -1.0753 -0.4005 -0.1096
  388MOL    C8747301   7.458   6.108   6.923 -0.3241  0.1330 -0.4327
  388MOL    H8847302   7.311   6.010   7.032  0.2843  1.9034  0.6117
  388MOL    H8947303   7.320   5.934   6.891 -0.5411 -1.2565  2.2983
  388MOL    H9047304   7.529   6.026   6.918 -2.8873 -2.0809 -1.8892
  388MOL    H9147305   7.463   6.170   6.834 -1.9430  1.6144  0.4552
  388MOL    C9247306   7.498   6.189   7.047  0.0026  0.6910 -0.4524
  388MOL    C9347307   7.612   6.284   7.021  0.6870  0.1630  0.5602
  388MOL    H9447308   7.406   6.236   7.084  0.0081 -0.3155  0.8883
  388MOL    H9547309   7.513   6.126   7.135 -2.4664  0.4796 -0.1440
  388MOL    H9647310   7.676   6.222   6.960 -0.3749  0.7693 -1.2063
  388MOL    H9747311   7.588   6.369   6.957 -1.0541  0.4013  1.4785
  388MOL    C9847312   0.004   6.332   7.134 -0.3368 -0.3039 -0.6366
  388MOL    C9947313   0.127   6.424   7.099  0.2542 -0.0071  0.2903
  388MOL   H10047314   7.641   6.396   7.203 -1.7525 -1.4301 -0.6744
  388MOL   H10147315   0.032   6.244   7.193  1.7915  0.6155 -0.2419
  388MOL   H10247316   0.204   6.365   7.050  1.7924  0.5687  1.9492
  388MOL   H10347317   0.080   6.486   7.023 -2.1906 -0.2916  1.4862
  388MOL   C10447318   0.184   6.514   7.196 -0.4822 -0.4126  0.5260
  388MOL   C10547319   0.297   6.606   7.143  0.8381 -0.2094 -0.1102
  388MOL   H10647320   0.106   6.583   7.229 -0.6750 -0.3074 -0.1424
  388MOL   H10747321   0.221   6.465   7.286  0.3630 -0.1822  0.3067
  388MOL   H10847322   0.377   6.546   7.099 -0.1720 -0.2364 -1.9878
  388MOL   H10947323   0.261   6.678   7.068  0.3977 -0.6902 -0.3685
  388MOL   C11047324   0.358   6.690   7.256  0.7748 -0.6164  0.5547
  388MOL   C11147325   0.453   6.807   7.205 -0.1704  0.6052 -0.1733
  388MOL   H11247326   0.273   6.737   7.307 -0.8127 -0.2885 -2.2943
  388MOL   H11347327   0.409   6.623   7.325  0.2926 -0.9482  0.5904
  388MOL   H11447328   0.523   6.770   7.130 -0.8768 -0.3615 -0.3598
  388MOL   H11547329   0.396   6.869   7.137  2.1381  1.5646 -1.2791
  388MOL   C11647330   0.521   6.905   7.302  0.7828 -0.0618 -0.0638
  388MOL   C11747331   0.633   6.851   7.390  0.2113 -0.0181 -0.5109
  388MOL   H11847332   0.556   6.984   7.236 -1.4894 -0.0860 -1.3296
  388MOL   H11947333   0.443   6.943   7.368  1.5265  0.3082  0.6243
  388MOL   H12047334   0.721   6.827   7.331 -0.2506 -1.2657 -0.7243
  388MOL   H12147335   0.646   6.929   7.465  0.0063 -1.4591  1.0631
  388MOL   H12247336   0.604   6.767   7.453  1.0464  0.4371  0.5008
  389MOL     C147337   5.757   1.281   1.376 -0.2669  0.2812 -0.3047
  389MOL     C247338   5.725   1.327   1.515 -0.2364  0.4047 -0.2370
  389MOL     H347339   5.686   1.202   1.352  0.9872 -1.5346  1.7255
  389MOL     H447340   5.860   1.245   1.367  0.0820 -0.4405  5.0432
  389MOL     H547341   5.629   1.377   1.507 -1.0896 -1.0342  0.7222
  389MOL     H647342   5.710   1.235   1.572  0.3684  0.1384 -0.5060
  389MOL     H747343   5.729   1.358   1.304 -2.4386 -0.2120 -0.0166
  389MOL     C847344   5.831   1.414   1.589  0.3476  0.3996  0.4576
  389MOL     C947345   5.851   1.557   1.534  0.1566 -0.3421  0.2785
  389MOL    H1047346   5.789   1.429   1.688 -2.4277 -1.0417 -0.4379
  389MOL    H1147347   5.931   1.374   1.600  0.0794 -1.0554 -2.0265
  389MOL    H1247348   5.903   1.550   1.438 -0.2486 -1.1354  0.1127
  389MOL    H1347349   5.757   1.607   1.512  0.2117 -0.0023  0.8205
  389MOL    C1447350   5.945   1.640   1.623 -0.8180 -0.4045 -0.4268
  389MOL    C1547351   5.940   1.790   1.581  0.5270  0.4049 -0.5678
  389MOL    H1647352   5.929   1.638   1.731  0.8093  1.4989 -0.1333
  389MOL    H1747353   6.047   1.601   1.621 -0.1369  1.2708  0.5794
  389MOL    H1847354   5.952   1.790   1.473 -0.4848 -0.5374 -0.6924
  389MOL    H1947355   5.836   1.819   1.593  0.9122  0.7464  2.4018
  389MOL    C2047356   6.047   1.873   1.649 -0.1951 -0.7865 -0.6546
  389MOL    C2147357   6.185   1.821   1.625  0.8309 -0.0740  0.1785
  389MOL    H2247358   6.039   1.980   1.626 -1.1142 -0.6941  0.0752
  389MOL    H2347359   6.034   1.882   1.756  0.5337  0.3093 -0.6493
  389MOL    H2447360   6.207   1.732   1.684 -0.6617 -1.0096 -0.6570
  389MOL    H2547361   6.205   1.793   1.521 -0.4044 -0.9527  0.1667
  389MOL    C2647362   6.290   1.932   1.670 -0.4583  0.3153  0.0333
  389MOL    C2747363   6.328   2.035   1.558 -0.0660 -0.1683  0.4438
  389MOL    H2847364   6.256   1.976   1.764 -0.6170 -2.1851  1.1836
  389MOL    H2947365   6.378   1.875   1.702 -0.8397  0.7564  1.9398
  389MOL    H3047366   6.234   2.079   1.524  0.1649  2.4602  2.9499
  389MOL    H3147367   6.377   2.111   1.620 -1.3793  0.9878  0.0870
  389MOL    C3247368   6.396   1.983   1.430 -0.2034  0.7608 -0.2935
  389MOL    C3347369   6.447   2.105   1.357 -0.3517 -0.4560 -0.0480
  389MOL    H3447370   6.476   1.920   1.469 -2.0853 -1.3262  0.2529
  389MOL    H3547371   6.334   1.923   1.364 -1.8502  2.8263 -0.6866
  389MOL    H3647372   6.358   2.167   1.345 -0.2136  0.3339  2.7416
  389MOL    H3747373   6.513   2.166   1.419 -1.3495  1.5819 -0.9454
  389MOL    C3847374   6.509   2.073   1.222 -0.4154  0.6097  0.2007
  389MOL    C3947375   6.538   2.191   1.125 -0.1525 -0.2031  0.2155
  389MOL    H4047376   6.605   2.023   1.236 -0.9092  0.2134  2.3181
  389MOL    H4147377   6.446   2.000   1.171 -0.5924  0.6629  0.3418
  389MOL    H4247378   6.437   2.221   1.096 -0.6205 -0.7053  1.2952
  389MOL    H4347379   6.575   2.277   1.181  0.2065 -0.4272  0.3179
  389MOL    C4447380   6.629   2.157   1.000  0.5892  0.5493  0.1873
  389MOL    C4547381   6.667   2.283   0.921  0.4882  0.0281 -0.3184
  389MOL    H4647382   6.719   2.106   1.036 -0.7893 -0.7661  1.8081
  389MOL    H4747383   6.573   2.078   0.950  1.7247 -2.0870  2.9239
  389MOL    H4847384   6.576   2.342   0.910 -1.2329 -1.7405  3.4377
  389MOL    H4947385   6.741   2.347   0.969  0.5073 -1.0528  1.1364
  389MOL    C5047386   6.733   2.248   0.787  0.0359  0.7322  0.0468
  389MOL    C5147387   6.761   2.359   0.686  0.4064  0.0824  0.2789
  389MOL    H5247388   6.822   2.192   0.816 -0.0318 -0.3578 -1.7645
  389MOL    H5347389   6.687   2.163   0.736  0.1475  0.4229  0.4687
  389MOL    H5447390   6.660   2.397   0.670 -0.7775 -2.3364  1.7263
  389MOL    H5547391   6.813   2.439   0.738  1.6102 -0.3361 -0.2608
  389MOL    C5647392   6.831   2.325   0.551 -0.3185  0.0749  0.1703
  389MOL    C5747393   6.809   2.436   0.447 -0.4937  0.3529  0.5763
  389MOL    H5847394   6.939   2.324   0.568 -0.2342  1.4993 -0.2227
  389MOL    H5947395   6.813   2.225   0.511  0.2174  0.2627 -0.5690
  389MOL    H6047396   6.875   2.414   0.364 -2.3990 -3.3735 -0.0312
  389MOL    H6147397   6.707   2.418   0.414 -1.7327  2.9350  2.7765
  389MOL    C6247398   6.805   2.576   0.509  0.0058  0.0819 -0.4660
  389MOL    C6347399   6.735   2.683   0.418 -0.0672  0.2183  0.0642
  389MOL    H6447400   6.758   2.590   0.607  3.5028  1.3088  1.1274
  389MOL    H6547401   6.907   2.610   0.528  0.3241 -0.3470 -1.4012
  389MOL    H6647402   6.775   2.689   0.317 -0.1467  1.0401  0.0848
  389MOL    H6747403   6.632   2.651   0.400 -0.2298 -0.6822  2.3260
  389MOL    C6847404   6.749   2.825   0.484 -0.0029 -0.2415  0.0127
  389MOL    C6947405   6.704   2.928   0.376  0.3930 -0.6706  0.6052
  389MOL    H7047406   6.688   2.832   0.574  2.1225 -1.1063  1.5521
  389MOL    H7147407   6.853   2.845   0.511  0.0238 -0.6692  0.2355
  389MOL    H7247408   6.761   2.913   0.284  0.3837  2.2755  0.0848
  389MOL    H7347409   6.600   2.902   0.356 -0.3461  1.2650  1.7409
  389MOL    C7447410   6.705   3.074   0.434  1.2246 -0.3526  0.5240
  389MOL    C7547411   6.681   3.180   0.325  0.4525 -0.2399 -0.3341
  389MOL    H7647412   6.632   3.083   0.515  1.2317 -1.2529  0.6310
  389MOL    H7747413   6.802   3.087   0.482  1.0144 -0.2807  0.9292
  389MOL    H7847414   6.741   3.161   0.236  2.1443 -1.1987  0.9714
  389MOL    H7947415   6.580   3.150   0.297 -0.3105  2.1304 -0.2382
  389MOL    C8047416   6.687   3.324   0.382  0.2227  0.2801 -0.3450
  389MOL    C8147417   6.831   3.380   0.387 -0.1719  0.1921 -0.1980
  389MOL    H8247418   6.626   3.400   0.333 -0.9326  0.0106  0.6435
  389MOL    H8347419   6.647   3.319   0.483  0.9049  1.1026 -0.0289
  389MOL    H8447420   6.911   3.320   0.431 -0.7315  1.1294  2.1460
  389MOL    H8547421   6.862   3.394   0.283  0.1959  0.8594 -0.0024
  389MOL    C8647422   6.844   3.513   0.463 -0.1125 -0.1664 -0.1184
  389MOL    C8747423   6.880   3.488   0.614  0.6209  0.1485 -0.1450
  389MOL    H8847424   6.927   3.573   0.427  0.1058  0.8003  1.9405
  389MOL    H8947425   6.760   3.581   0.448  0.3913  0.3775 -0.4756
  389MOL    H9047426   6.795   3.441   0.663  0.6070  0.5313  0.1966
  389MOL    H9147427   6.968   3.425   0.628 -0.4915 -0.9675  2.2554
  389MOL    C9247428   6.919   3.623   0.685 -0.0435  0.5508 -0.6146
  389MOL    C9347429   6.820   3.741   0.692 -0.3378 -0.7879 -0.1893
  389MOL    H9447430   6.950   3.584   0.783  0.1489 -0.4710 -1.0802
  389MOL    H9547431   7.012   3.662   0.644 -1.1327  1.0899 -2.5981
  389MOL    H9647432   6.799   3.783   0.594 -0.5023 -1.3101 -0.3840
  389MOL    H9747433   6.722   3.704   0.724 -1.2348  0.9304 -0.9077
  389MOL    C9847434   6.854   3.859   0.785 -0.2108  0.1873 -0.2246
  389MOL    C9947435   6.785   3.828   0.921 -0.2064  0.1498  0.2373
  389MOL   H10047436   6.961   3.874   0.795 -0.0855  2.2732 -4.1435
  389MOL   H10147437   6.814   3.954   0.749  3.3238  1.4658 -0.9961
  389MOL   H10247438   6.678   3.813   0.904  0.1534 -0.0915 -1.9630
  389MOL   H10347439   6.829   3.739   0.965  0.7607  0.7926  0.5921
  389MOL   C10447440   6.785   3.948   1.022 -0.7202  0.0904 -0.7021
  389MOL   C10547441   6.699   3.907   1.136  0.3155 -0.2733  0.6281
  389MOL   H10647442   6.884   3.962   1.064  0.0489 -1.1855 -2.0639
  389MOL   H10747443   6.757   4.042   0.974  1.3762  1.0230 -0.1382
  389MOL   H10847444   6.595   3.889   1.110  0.1388  0.8157  0.5646
  389MOL   H10947445   6.743   3.812   1.166  0.0294  0.2428  2.7377
  389MOL   C11047446   6.701   4.003   1.258  1.0397  0.0843  0.4963
  389MOL   C11147447   6.585   3.995   1.351 -0.3409  0.2653 -0.0690
  389MOL   H11247448   6.794   3.979   1.309  1.0807 -1.7030 -0.3635
  389MOL   H11347449   6.697   4.106   1.224  1.2361 -0.0116  0.1773
  389MOL   H11447450   6.495   4.036   1.306  1.0390  0.9034 -2.3554
  389MOL   H11547451   6.556   3.890   1.359 -1.3767  0.5102 -0.5648
  389MOL   C11647452   6.617   4.073   1.486 -0.2269  0.1310  0.6470
  389MOL   C11747453   6.505   4.038   1.581  0.3269 -0.3751 -0.2033
  389MOL   H11847454   6.708   4.041   1.537  0.3851  1.2533  0.2870
  389MOL   H11947455   6.620   4.179   1.464 -1.4494 -0.1006 -0.7243
  389MOL   H12047456   6.411   4.084   1.550 -0.2134 -0.6016  1.0522
  389MOL   H12147457   6.495   3.930   1.595 -1.9435 -0.1984 -0.2122
  389MOL   H12247458   6.525   4.091   1.674  0.5709  0.5372 -0.7644
  390MOL     C147459   5.840   4.916   1.063 -0.5711 -0.9186  0.4798
  390MOL     C247460   5.704   4.859   1.023  0.1748  0.3344  0.1912
  390MOL     H347461   5.899   4.847   1.124  1.2080  0.7403  0.6923
  390MOL     H447462   5.836   5.012   1.115  1.3815 -0.5494  0.0043
  390MOL     H547463   5.639   4.942   0.995  2.2883  2.3204  1.0739
  390MOL     H647464   5.705   4.794   0.936  1.3505  1.9555 -1.0222
  390MOL     H747465   5.887   4.934   0.967 -0.1502  1.1947  1.0568
  390MOL     C847466   5.640   4.781   1.135  0.8289 -0.0744 -0.0934
  390MOL     C947467   5.518   4.696   1.097 -0.0559  0.7488 -0.0929
  390MOL    H1047468   5.709   4.706   1.174  1.0010 -0.4290 -1.0645
  390MOL    H1147469   5.603   4.849   1.212 -1.6428  0.6186 -1.8302
  390MOL    H1247470   5.456   4.742   1.021  0.5703  0.5275 -0.7488
  390MOL    H1347471   5.551   4.603   1.050 -1.5935  0.1310  0.0175
  390MOL    C1447472   5.432   4.641   1.220  0.1944 -0.3010  0.4683
  390MOL    C1547473   5.337   4.524   1.186  0.5349 -0.2533  0.0683
  390MOL    H1647474   5.498   4.612   1.302 -0.3121 -1.4864  0.4639
  390MOL    H1747475   5.384   4.735   1.248 -0.2829 -0.2424 -0.5304
  390MOL    H1847476   5.299   4.525   1.084  1.3165  2.3577 -0.2412
  390MOL    H1947477   5.399   4.434   1.194  1.2771  0.0554 -1.9682
  390MOL    C2047478   5.228   4.489   1.274  0.5548  0.7095  0.2728
  390MOL    C2147479   5.271   4.476   1.421 -0.5804  0.3807  0.0583
  390MOL    H2247480   5.143   4.556   1.257 -0.1201 -0.2349 -0.1258
  390MOL    H2347481   5.181   4.395   1.245 -0.8215  2.1058 -2.1593
  390MOL    H2447482   5.357   4.410   1.421 -0.8924 -0.1430  3.5115
  390MOL    H2547483   5.292   4.577   1.457 -0.6289  0.3434  0.1956
  390MOL    C2647484   5.160   4.412   1.515 -0.0010 -0.2190 -0.0401
  390MOL    C2747485   5.212   4.352   1.640 -0.8419  0.3209  0.9101
  390MOL    H2847486   5.083   4.487   1.534 -0.5657 -0.7514 -0.2247
  390MOL    H2947487   5.122   4.331   1.452  0.1699  0.1492 -0.6184
  390MOL    H3047488   5.299   4.286   1.629 -2.2482 -1.4481  0.0072
  390MOL    H3147489   5.258   4.434   1.695 -0.3230  0.6734 -0.0379
  390MOL    C3247490   5.111   4.282   1.723  0.2910 -0.6674  0.8909
  390MOL    C3347491   5.162   4.254   1.868 -0.1810 -0.1158  0.3209
  390MOL    H3447492   5.036   4.360   1.739  1.5302  0.3075  2.0610
  390MOL    H3547493   5.067   4.199   1.669  0.7357 -0.4036  0.1142
  390MOL    H3647494   5.250   4.190   1.874  1.9852  2.8344  0.6656
  390MOL    H3747495   5.193   4.348   1.914 -0.8674  1.2085 -1.8832
  390MOL    C3847496   5.053   4.194   1.947  0.2133  0.3894  0.2895
  390MOL    C3947497   4.937   4.288   1.993 -0.1784  0.4498 -0.6832
  390MOL    H4047498   5.000   4.116   1.892  2.9995 -0.2348 -1.6043
  390MOL    H4147499   5.097   4.136   2.028  0.2493 -1.1141 -0.7875
  390MOL    H4247500   4.994   4.366   2.044  0.5347 -2.2035  2.7499
  390MOL    H4347501   4.879   4.335   1.914 -1.6646 -0.4897 -0.1796
  390MOL    C4447502   4.845   4.221   2.094 -0.3676 -0.8833 -0.5034
  390MOL    C4547503   4.728   4.297   2.152  0.0698  0.4145 -0.0455
  390MOL    H4647504   4.802   4.134   2.044 -1.2792 -0.5448 -0.3321
  390MOL    H4747505   4.907   4.170   2.167  0.3305 -0.6142 -0.9050
  390MOL    H4847506   4.762   4.345   2.243  1.2375 -0.8928  0.2179
  390MOL    H4947507   4.698   4.384   2.094  2.0807  0.7150 -0.6877
  390MOL    C5047508   4.619   4.204   2.193 -0.0734  0.3239 -0.0350
  390MOL    C5147509   4.490   4.274   2.237 -0.1461 -0.2253  0.3239
  390MOL    H5247510   4.591   4.133   2.114 -0.4024 -0.5193  0.8268
  390MOL    H5347511   4.648   4.141   2.277  0.9000  0.6161 -0.1428
  390MOL    H5447512   4.522   4.347   2.311  2.1006 -0.7383 -0.0975
  390MOL    H5547513   4.456   4.341   2.158  1.2808  0.5261  0.3317
  390MOL    C5647514   4.373   4.184   2.285  0.1044 -0.1168  0.2595
  390MOL    C5747515   4.294   4.136   2.160 -0.5858 -0.5018 -0.7007
  390MOL    H5847516   4.408   4.098   2.342  2.5476  1.5818  1.3894
  390MOL    H5947517   4.298   4.234   2.346 -1.9521 -0.9575 -1.4978
  390MOL    H6047518   4.264   4.223   2.102 -3.8119 -0.1375  1.3670
  390MOL    H6147519   4.355   4.078   2.092  0.5460  1.3231 -1.2830
  390MOL    C6247520   4.151   4.082   2.192 -0.4349  0.5031 -0.0377
  390MOL    C6347521   4.061   4.061   2.073 -0.1389 -0.3446  0.2095
  390MOL    H6447522   4.164   3.982   2.232 -0.5834  0.2121 -0.7133
  390MOL    H6547523   4.093   4.134   2.268 -1.2405  0.8858 -0.9122
  390MOL    H6647524   4.046   4.160   2.029  0.9939 -0.3342 -0.1675
  390MOL    H6747525   4.108   4.009   1.989 -4.9181 -1.1890 -2.0811
  390MOL    C6847526   3.929   3.992   2.108 -0.0340  0.4701 -0.0543
  390MOL    C6947527   3.844   3.973   1.982  0.9246 -0.2860 -0.3627
  390MOL    H7047528   3.944   3.893   2.152 -1.4903 -0.3068 -1.2646
  390MOL    H7147529   3.878   4.051   2.185  0.0279 -1.7032  1.6830
  390MOL    H7247530   3.848   4.059   1.916  0.0204 -1.4973 -2.0399
  390MOL    H7347531   3.887   3.904   1.909 -0.5090  0.0096 -1.5128
  390MOL    C7447532   3.697   3.935   2.013 -0.0057 -0.1935 -0.9415
  390MOL    C7547533   3.622   3.914   1.878  0.2126 -0.4300 -0.6186
  390MOL    H7647534   3.692   3.846   2.077 -0.6177  0.3290 -0.2459
  390MOL    H7747535   3.661   4.020   2.071  1.8514 -0.0729  0.0722
  390MOL    H7847536   3.625   4.011   1.828 -0.4926 -0.7506 -1.2843
  390MOL    H7947537   3.675   3.839   1.820  1.7991  1.4378 -1.6746
  390MOL    C8047538   3.471   3.901   1.890 -0.1492 -0.5375 -0.2771
  390MOL    C8147539   3.404   3.872   1.751 -0.5588 -0.1938  0.4603
  390MOL    H8247540   3.452   3.815   1.955 -3.1799 -1.4706 -2.2767
  390MOL    H8347541   3.426   3.987   1.938 -0.0761 -1.3374  1.2611
  390MOL    H8447542   3.418   3.956   1.684 -1.0163 -0.7010 -0.2768
  390MOL    H8547543   3.452   3.783   1.709 -1.7904 -0.8679  0.4358
  390MOL    C8647544   3.250   3.846   1.767  0.9402  0.0522  0.4052
  390MOL    C8747545   3.184   3.805   1.634  0.9908 -0.7361 -0.0829
  390MOL    H8847546   3.232   3.768   1.841 -0.2645  0.8769  1.0070
  390MOL    H8947547   3.198   3.929   1.816 -0.8063 -0.2774 -0.8490
  390MOL    H9047548   3.198   3.884   1.559 -1.5973  0.2271  0.4070
  390MOL    H9147549   3.223   3.708   1.604  0.7792 -0.9710  0.3972
  390MOL    C9247550   3.027   3.788   1.651 -0.5875  0.0846 -0.7166
  390MOL    C9347551   2.946   3.762   1.520 -0.4702  0.0363 -0.4665
  390MOL    H9447552   2.991   3.707   1.715  1.0220 -0.9985 -1.1736
  390MOL    H9547553   2.984   3.880   1.692 -0.6766 -0.8734  1.4503
  390MOL    H9647554   2.971   3.842   1.450  0.4230  2.1302  2.1292
  390MOL    H9747555   2.980   3.669   1.474  0.3958  0.8476 -1.4950
  390MOL    C9847556   2.794   3.765   1.536  0.5237  0.9106 -0.5064
  390MOL    C9947557   2.730   3.718   1.414 -0.2926 -0.3069 -0.3955
  390MOL   H10047558   2.764   3.685   1.603  2.7148 -1.2129 -1.9801
  390MOL   H10147559   2.746   3.862   1.551 -0.1736  0.4307  0.4077
  390MOL   H10247560   2.761   3.765   1.321  1.6992  1.3291  1.0382
  390MOL   H10347561   2.757   3.613   1.404 -2.3314 -1.0240  1.1911
  390MOL   C10447562   2.573   3.727   1.430  0.0157  0.3963  0.0771
  390MOL   C10547563   2.496   3.668   1.314  0.6756  0.2815  0.1557
  390MOL   H10647564   2.551   3.679   1.526  1.1097  0.0754  0.1784
  390MOL   H10747565   2.535   3.829   1.426 -2.9428 -0.7520 -3.2945
  390MOL   H10847566   2.507   3.734   1.227  3.1179 -1.2821 -0.7998
  390MOL   H10947567   2.539   3.569   1.296 -0.0846  0.1593 -1.0560
  390MOL   C11047568   2.341   3.667   1.347  0.0411  0.2975 -0.5071
  390MOL   C11147569   2.246   3.637   1.223 -0.2716 -0.2614  0.1385
  390MOL   H11247570   2.328   3.604   1.435 -0.0596  2.4845  1.0941
  390MOL   H11347571   2.320   3.767   1.383 -1.6362  0.1236 -0.9557
  390MOL   H11447572   2.139   3.646   1.244 -0.2463 -0.0505  0.1843
  390MOL   H11547573   2.268   3.707   1.142  3.0519 -0.9502  0.3806
  390MOL   C11647574   2.265   3.496   1.168 -0.2734 -0.0833  0.0459
  390MOL   C11747575   2.155   3.457   1.080  0.2236  0.0693 -0.2579
  390MOL   H11847576   2.359   3.492   1.111 -1.0817  1.4015 -1.4402
  390MOL   H11947577   2.280   3.422   1.246  0.0523 -1.7021 -1.5211
  390MOL   H12047578   2.172   3.361   1.032  0.7192 -0.6134  1.2225
  390MOL   H12147579   2.062   3.442   1.135  0.6054  0.6916  0.5864
  390MOL   H12247580   2.133   3.529   1.002 -1.0613  0.8927  0.8399
  391MOL     C147581   5.412   1.948   3.078  0.0447  0.1729  0.2677
  391MOL     C247582   5.354   1.971   2.938  0.1872  0.8371 -0.6602
  391MOL     H347583   5.436   2.046   3.120 -1.4982  1.0953 -0.9571
  391MOL     H447584   5.506   1.896   3.061  0.1257  0.4487 -0.1057
  391MOL     H547585   5.276   2.046   2.950  0.5525  1.2304 -0.6981
  391MOL     H647586   5.433   2.012   2.875  1.8061 -0.1923  0.6624
  391MOL     H747587   5.344   1.893   3.145 -1.2759 -1.4135 -2.2926
  391MOL     C847588   5.289   1.842   2.879  0.3243 -0.3731 -0.2250
  391MOL     C947589   5.210   1.873   2.755 -0.1239  0.2853  0.5969
  391MOL    H1047590   5.373   1.775   2.858  0.4285 -0.3801  0.1952
  391MOL    H1147591   5.223   1.799   2.954  1.7684  0.9331  1.8503
  391MOL    H1247592   5.134   1.948   2.778  0.6716  1.1259  0.5329
  391MOL    H1347593   5.270   1.930   2.684  0.2545  1.0659  1.5217
  391MOL    C1447594   5.130   1.756   2.705 -0.1072  0.2144  0.6717
  391MOL    C1547595   5.037   1.800   2.582 -0.1769 -0.4728 -0.2310
  391MOL    H1647596   5.199   1.690   2.653  1.0901  1.5501  0.5366
  391MOL    H1747597   5.075   1.707   2.785  1.1190 -1.3987  0.5330
  391MOL    H1847598   4.956   1.858   2.625 -0.3345 -0.2867 -0.7750
  391MOL    H1947599   5.089   1.867   2.513 -0.5552 -1.2439 -1.2883
  391MOL    C2047600   4.979   1.680   2.510 -0.6242  0.2830 -0.4778
  391MOL    C2147601   4.883   1.726   2.394  0.7112  0.3948 -0.1950
  391MOL    H2247602   5.058   1.614   2.474  0.1643  0.9076  0.0778
  391MOL    H2347603   4.920   1.614   2.574 -1.4448 -0.6903 -2.2047
  391MOL    H2447604   4.807   1.792   2.436  1.1459 -0.0171  1.2737
  391MOL    H2547605   4.929   1.784   2.313 -0.8314 -0.0476 -1.3951
  391MOL    C2647606   4.803   1.606   2.326 -0.2777  0.2263  0.1582
  391MOL    C2747607   4.884   1.516   2.232 -0.3211  0.2716  0.1243
  391MOL    H2847608   4.768   1.537   2.402 -0.6693 -0.6462 -0.7970
  391MOL    H2947609   4.720   1.651   2.271  0.5018  3.4246  1.5032
  391MOL    H3047610   4.946   1.571   2.161  0.8674  0.9625  1.6661
  391MOL    H3147611   4.948   1.449   2.289  0.2043  0.2344 -0.5183
  391MOL    C3247612   4.804   1.413   2.155  0.0926  0.5797  0.1194
  391MOL    C3347613   4.734   1.317   2.252  0.5455  0.3240  0.3222
  391MOL    H3447614   4.738   1.470   2.088 -0.2447 -1.3181 -1.2185
  391MOL    H3547615   4.867   1.357   2.086  0.5842 -0.1017  1.1086
  391MOL    H3647616   4.806   1.273   2.321  0.4990  1.9416  1.4158
  391MOL    H3747617   4.653   1.363   2.308  0.2207  1.4139 -1.0159
  391MOL    C3847618   4.672   1.196   2.177 -0.0836 -0.4149 -0.1287
  391MOL    C3947619   4.571   1.135   2.271 -0.0339  0.0273  0.2294
  391MOL    H4047620   4.620   1.230   2.088  0.6522  0.9707 -0.0470
  391MOL    H4147621   4.742   1.119   2.145 -0.4127 -1.2260  1.0442
  391MOL    H4247622   4.630   1.103   2.357  1.9010 -1.7505 -1.7188
  391MOL    H4347623   4.504   1.211   2.312  0.4327  1.9603 -2.5319
  391MOL    C4447624   4.505   1.015   2.210  0.4088  0.1467  0.5829
  391MOL    C4547625   4.409   0.949   2.309  0.3567 -0.0460  0.6064
  391MOL    H4647626   4.452   1.055   2.124  0.1547  1.3812  1.2920
  391MOL    H4747627   4.577   0.941   2.176 -0.8814 -0.1263 -1.6092
  391MOL    H4847628   4.369   0.864   2.254 -2.2927  3.4460 -3.1198
  391MOL    H4947629   4.470   0.919   2.395 -0.6881 -1.1663  0.9691
  391MOL    C5047630   4.289   1.030   2.358  0.1003  0.1960  0.1426
  391MOL    C5147631   4.189   0.956   2.453 -0.3173  0.8693  0.3317
  391MOL    H5247632   4.323   1.118   2.412 -2.1248  1.1604  0.0397
  391MOL    H5347633   4.238   1.073   2.272 -0.2641  1.7399  1.1234
  391MOL    H5447634   4.172   0.855   2.416  1.8803 -0.0958  1.8422
  391MOL    H5547635   4.237   0.942   2.550 -2.7735 -0.4040  1.4198
  391MOL    C5647636   4.045   1.012   2.475  0.0192 -0.3336 -0.1342
  391MOL    C5747637   3.962   0.938   2.580  0.2863 -0.4185 -0.1460
  391MOL    H5847638   4.052   1.109   2.525 -2.3483  0.4578 -1.2570
  391MOL    H5947639   3.986   1.020   2.384 -1.7455  1.4976  1.1222
  391MOL    H6047640   3.960   0.830   2.565  1.9774 -0.8557  2.4444
  391MOL    H6147641   4.004   0.946   2.680 -3.0572  0.0483  1.2663
  391MOL    C6247642   3.822   0.994   2.593  0.0541  0.5875  0.0686
  391MOL    C6347643   3.731   0.924   2.697  0.5247 -0.2975  0.1908
  391MOL    H6447644   3.839   1.094   2.631  1.6602  0.3951 -0.0669
  391MOL    H6547645   3.779   1.005   2.494 -0.8501 -0.1718  0.3701
  391MOL    H6647646   3.742   0.816   2.702  2.8348 -0.0808  0.2988
  391MOL    H6747647   3.763   0.969   2.791 -0.5343  1.3213 -0.2044
  391MOL    C6847648   3.585   0.971   2.674  0.2526  0.4631  0.3733
  391MOL    C6947649   3.486   0.881   2.760 -0.6269  0.8003 -0.0523
  391MOL    H7047650   3.564   1.074   2.704 -1.8289  0.3981 -0.7647
  391MOL    H7147651   3.554   0.954   2.571  3.3297  0.6040 -0.6386
  391MOL    H7247652   3.515   0.776   2.771  0.3973  1.1564  0.6839
  391MOL    H7347653   3.499   0.912   2.863  0.3628 -1.0938  0.4198
  391MOL    C7447654   3.336   0.909   2.729  0.5991  0.4683 -0.4695
  391MOL    C7547655   3.232   0.852   2.822  0.8343 -0.4534 -0.1783
  391MOL    H7647656   3.311   1.015   2.737 -1.2117 -0.0573  1.1870
  391MOL    H7747657   3.325   0.882   2.624 -1.9282  1.7830 -0.5843
  391MOL    H7847658   3.259   0.749   2.847 -0.1546 -0.8405 -0.6744
  391MOL    H7947659   3.226   0.923   2.904 -2.9613 -0.5405 -0.2993
  391MOL    C8047660   3.095   0.847   2.750  0.2677  0.2876 -0.0170
  391MOL    C8147661   2.981   0.791   2.827 -0.0140 -0.4700 -0.1417
  391MOL    H8247662   3.081   0.951   2.721  0.4582 -0.9574 -4.9423
  391MOL    H8347663   3.109   0.784   2.662  1.8336  2.4292 -1.3465
  391MOL    H8447664   2.961   0.866   2.904  2.1530  0.8446 -0.8167
  391MOL    H8547665   2.898   0.805   2.757 -0.5233 -0.7550  0.4005
  391MOL    C8647666   2.995   0.646   2.880 -1.2862  0.0024  0.0903
  391MOL    C8747667   2.870   0.597   2.943  0.5611  0.0055 -0.6137
  391MOL    H8847668   3.023   0.573   2.804 -2.8638 -1.2160  0.6606
  391MOL    H8947669   3.081   0.657   2.946 -0.6246  0.8836 -0.8924
  391MOL    H9047670   2.830   0.682   2.998  0.9355 -0.2016 -0.0142
  391MOL    H9147671   2.802   0.577   2.860  1.4970 -1.5658 -1.0255
  391MOL    C9247672   2.903   0.476   3.038  0.2570 -0.5126 -0.2568
  391MOL    C9347673   2.787   0.424   3.125 -0.2364 -0.2926  0.7294
  391MOL    H9447674   2.939   0.394   2.976 -0.2193 -1.3147  0.5126
  391MOL    H9547675   2.977   0.511   3.111 -1.7081  0.9803  1.0702
  391MOL    H9647676   2.709   0.391   3.056 -0.9419  0.6721  1.0585
  391MOL    H9747677   2.824   0.336   3.177 -1.5516 -0.1806  1.8606
  391MOL    C9847678   2.729   0.524   3.231  0.2975  0.3549  0.3205
  391MOL    C9947679   2.618   0.462   3.320  0.9027 -0.2695 -0.6229
  391MOL   H10047680   2.809   0.557   3.298  0.0049  2.5627 -0.3903
  391MOL   H10147681   2.702   0.619   3.185  1.8147  0.5818 -0.1373
  391MOL   H10247682   2.525   0.441   3.267  0.3455 -1.6699  0.8825
  391MOL   H10347683   2.649   0.370   3.368  1.5910  0.6734  0.7833
  391MOL   C10447684   2.572   0.555   3.433  0.5276 -0.3273 -0.4638
  391MOL   C10547685   2.465   0.492   3.526  0.7502 -1.0540 -0.0311
  391MOL   H10647686   2.658   0.601   3.482 -0.5509  2.0926 -0.7717
  391MOL   H10747687   2.541   0.645   3.380  1.7806  1.5476  1.8783
  391MOL   H10847688   2.392   0.439   3.466  0.7725 -1.7681  0.5697
  391MOL   H10947689   2.522   0.427   3.592 -0.5464 -1.6724  0.4939
  391MOL   C11047690   2.406   0.606   3.609 -0.0425 -0.3305 -0.4314
  391MOL   C11147691   2.288   0.573   3.703 -0.2269  0.2205  0.8501
  391MOL   H11247692   2.477   0.661   3.671 -1.3283  0.9167 -0.0648
  391MOL   H11347693   2.364   0.678   3.539  1.7215  0.6913 -0.4863
  391MOL   H11447694   2.225   0.512   3.639  1.9801 -1.3313  0.0869
  391MOL   H11547695   2.307   0.509   3.789  0.9792 -3.2474 -1.8714
  391MOL   C11647696   2.208   0.690   3.736 -0.1058 -0.9245  0.6102
  391MOL   C11747697   2.275   0.798   3.827  0.0184 -0.0140  0.7394
  391MOL   H11847698   2.179   0.740   3.644 -0.2087 -1.6431  0.2535
  391MOL   H11947699   2.124   0.646   3.791  0.5205 -1.8529  0.8328
  391MOL   H12047700   2.361   0.850   3.784 -2.8692  2.0338 -2.8013
  391MOL   H12147701   2.209   0.875   3.869 -2.0013  1.1169 -4.2350
  391MOL   H12247702   2.323   0.746   3.910  0.2755 -1.1489 -0.1182
  392MOL     C147703   2.028   0.429   6.674  0.5574  0.5161  0.5734
  392MOL     C247704   2.030   0.421   6.519 -0.0431  0.2849  0.2776
  392MOL     H347705   2.130   0.447   6.710  1.5892 -0.1971 -1.9272
  392MOL     H447706   1.998   0.337   6.726  2.5460  0.1927  1.2187
  392MOL     H547707   1.935   0.387   6.478  1.3208 -0.4521 -2.3881
  392MOL     H647708   2.059   0.523   6.494 -0.6583  1.1027  2.7297
  392MOL     H747709   1.960   0.506   6.710 -1.1580 -0.0083 -1.4845
  392MOL     C847710   2.136   0.334   6.448  0.7008  0.2340  0.1401
  392MOL     C947711   2.130   0.342   6.295  0.0032  0.1157 -0.7434
  392MOL    H1047712   2.241   0.345   6.477  0.5996  0.7959  0.2930
  392MOL    H1147713   2.108   0.236   6.486 -2.4566  1.1867  0.3675
  392MOL    H1247714   2.025   0.326   6.271 -0.4715  0.4737  1.0195
  392MOL    H1347715   2.165   0.436   6.252 -0.6550  1.0567  0.7393
  392MOL    C1447716   2.196   0.229   6.224  0.4938  0.2210  0.0410
  392MOL    C1547717   2.167   0.231   6.067  0.3909  0.0111 -0.8921
  392MOL    H1647718   2.303   0.243   6.240  0.1235  3.3680 -0.1096
  392MOL    H1747719   2.164   0.140   6.279  1.8465  0.6193  1.4957
  392MOL    H1847720   2.066   0.203   6.038 -0.3669  1.4739  0.2889
  392MOL    H1947721   2.175   0.336   6.041 -1.5565  0.2177 -0.7355
  392MOL    C2047722   2.264   0.138   5.995 -0.3612  0.2178 -0.4806
  392MOL    C2147723   2.257   0.143   5.840 -0.7162 -0.2147  0.3602
  392MOL    H2247724   2.368   0.152   6.027 -0.3427  0.3030 -0.5777
  392MOL    H2347725   2.239   0.039   6.033 -2.0575  0.5853 -0.6265
  392MOL    H2447726   2.159   0.112   5.806 -1.2589  0.5644  1.1899
  392MOL    H2547727   2.257   0.242   5.796  0.1805  0.6590  2.2847
  392MOL    C2647728   2.369   0.062   5.779  0.4130 -0.1991 -0.0547
  392MOL    C2747729   2.353   0.032   5.627  0.4850  0.2028  0.3508
  392MOL    H2847730   2.461   0.117   5.797  1.5483 -1.4553 -1.8503
  392MOL    H2947731   2.367   7.666   5.843  1.0891  1.3188  2.1300
  392MOL    H3047732   2.260   7.668   5.612  0.6646  0.7336 -2.9811
  392MOL    H3147733   2.322   0.121   5.572 -3.1764 -1.9776 -1.3378
  392MOL    C3247734   2.484   7.663   5.571 -0.0257 -0.3410  0.8193
  392MOL    C3347735   2.518   7.522   5.629  0.9443 -0.7871 -0.9352
  392MOL    H3447736   2.499   7.667   5.463  2.4675  0.7360  1.1717
  392MOL    H3547737   2.563   0.030   5.616  1.0143 -1.4083  0.4416
  392MOL    H3647738   2.538   7.538   5.735 -1.4363  0.1945 -0.6078
  392MOL    H3747739   2.431   7.458   5.618  1.1859 -1.0967 -1.0692
  392MOL    C3847740   2.636   7.468   5.557  0.1004 -0.4791  0.5435
  392MOL    C3947741   2.692   7.325   5.608 -0.3074 -0.2077 -0.0403
  392MOL    H4047742   2.632   7.461   5.449 -0.0683 -2.2080  0.6456
  392MOL    H4147743   2.720   7.535   5.573 -0.1646 -0.3685  1.5034
  392MOL    H4247744   2.719   7.313   5.713  1.1370  3.5274  0.1086
  392MOL    H4347745   2.609   7.255   5.606 -0.9191  0.5282 -2.1684
  392MOL    C4447746   2.799   7.266   5.507 -0.5191  0.5895 -0.9327
  392MOL    C4547747   2.791   7.115   5.496 -0.1523 -0.5066 -0.1655
  392MOL    H4647748   2.787   7.307   5.407 -0.7185  0.2814 -1.0370
  392MOL    H4747749   2.899   7.299   5.532 -1.8691  2.5493  2.2340
  392MOL    H4847750   2.797   7.072   5.596 -3.1928  0.1499  0.3739
  392MOL    H4947751   2.696   7.082   5.453 -1.0406 -0.7149  1.8530
  392MOL    C5047752   2.899   7.050   5.414  0.0390 -0.1790 -0.0383
  392MOL    C5147753   2.869   6.897   5.394 -0.0783  0.0045  0.5791
  392MOL    H5247754   2.905   7.098   5.316 -0.1279  1.2392  0.6219
  392MOL    H5347755   2.997   7.067   5.460 -0.6641  1.1598  1.0029
  392MOL    H5447756   2.883   6.848   5.490 -0.8353  0.6751  1.0404
  392MOL    H5547757   2.762   6.883   5.381 -0.1808  0.2665  1.1178
  392MOL    C5647758   2.936   6.845   5.263  0.0317  0.6358  0.2960
  392MOL    C5747759   2.930   6.691   5.243 -0.0325 -1.1153  0.2044
  392MOL    H5847760   2.912   6.900   5.172 -0.2732  1.3609  0.8145
  392MOL    H5947761   3.040   6.873   5.280  0.8844 -1.6817 -0.9023
  392MOL    H6047762   2.994   6.648   5.319 -0.1869  0.5063  1.2852
  392MOL    H6147763   2.830   6.648   5.250 -0.5239  0.0123  0.2024
  392MOL    C6247764   2.993   6.649   5.105 -0.5455 -0.1941  0.1004
  392MOL    C6347765   2.984   6.492   5.096 -0.2845 -0.5724 -0.6125
  392MOL    H6447766   2.940   6.687   5.017 -0.0833  1.9536  0.7068
  392MOL    H6547767   3.093   6.693   5.103 -0.1041 -1.1933 -0.3929
  392MOL    H6647768   3.041   6.446   5.177  0.4379  2.8946  0.9508
  392MOL    H6747769   2.880   6.463   5.101 -1.1381  2.4758  0.8250
  392MOL    C6847770   3.036   6.447   4.964  0.3232  0.2400  0.0990
  392MOL    C6947771   3.031   6.291   4.939 -0.7147  0.0559 -0.1137
  392MOL    H7047772   3.008   6.512   4.882  0.9433  0.9611  0.4548
  392MOL    H7147773   3.145   6.457   4.955  0.3314 -1.0880 -1.6154
  392MOL    H7247774   3.080   6.239   5.021  1.1256  0.5838 -0.8482
  392MOL    H7347775   2.927   6.264   4.960 -1.0120  1.3485  0.0906
  392MOL    C7447776   3.096   6.232   4.814 -0.4818  0.4152 -0.2327
  392MOL    C7547777   3.069   6.089   4.801 -0.0651 -0.3307 -0.2288
  392MOL    H7647778   3.078   6.286   4.721 -0.7174 -1.3329 -1.2203
  392MOL    H7747779   3.202   6.248   4.835 -0.5991  0.2221  0.5252
  392MOL    H7847780   3.077   6.045   4.901  2.4293  1.1336  0.2684
  392MOL    H7947781   2.965   6.061   4.781  0.6424 -2.1522 -1.5386
  392MOL    C8047782   3.174   6.028   4.708 -0.7050 -0.6914 -0.3767
  392MOL    C8147783   3.164   5.877   4.711 -0.5433 -0.3705  0.1733
  392MOL    H8247784   3.171   6.075   4.610 -1.1387  1.9288  0.8569
  392MOL    H8347785   3.273   6.042   4.752 -0.2066  1.1918 -2.0430
  392MOL    H8447786   3.181   5.838   4.812 -0.7057 -0.3543  0.2064
  392MOL    H8547787   3.059   5.864   4.684 -1.0818  0.0431  1.9852
  392MOL    C8647788   3.252   5.807   4.607  0.0511  0.0531  0.8538
  392MOL    C8747789   3.249   5.659   4.597  0.0313  1.0573 -0.5358
  392MOL    H8847790   3.228   5.852   4.510 -2.6725 -2.4938  0.2820
  392MOL    H8947791   3.348   5.854   4.627  0.1258 -0.1416  0.9421
  392MOL    H9047792   3.254   5.613   4.696  2.2717 -1.7951 -1.9030
  392MOL    H9147793   3.146   5.631   4.572 -1.7095  3.1163  3.7100
  392MOL    C9247794   3.357   5.597   4.503  0.1768 -0.7245 -0.0945
  392MOL    C9347795   3.358   5.442   4.482  0.2264  0.2191 -0.4491
  392MOL    H9447796   3.349   5.651   4.408 -1.6659  0.1512  0.5238
  392MOL    H9547797   3.453   5.628   4.543  0.3790  0.4887 -1.4437
  392MOL    H9647798   3.381   5.389   4.574 -1.6517  0.2124  0.0357
  392MOL    H9747799   3.258   5.410   4.455 -0.4705  2.1843 -0.2864
  392MOL    C9847800   3.456   5.401   4.374 -0.0798  0.1377  0.2031
  392MOL    C9947801   3.460   5.250   4.347  0.6498  0.3756 -0.6859
  392MOL   H10047802   3.442   5.455   4.280  0.0445 -0.8591 -0.3969
  392MOL   H10147803   3.556   5.417   4.414 -0.2476  1.5143  0.1001
  392MOL   H10247804   3.483   5.194   4.437 -0.5667 -1.2110 -1.3282
  392MOL   H10347805   3.358   5.216   4.325  0.1766  0.7973  0.8057
  392MOL   C10447806   3.567   5.207   4.242 -0.4441  0.7253 -0.0434
  392MOL   C10547807   3.562   5.050   4.210 -0.2552 -0.3590  0.2139
  392MOL   H10647808   3.553   5.257   4.146  2.3840 -2.7557 -2.3743
  392MOL   H10747809   3.667   5.239   4.273  0.3737 -2.5280  0.8375
  392MOL   H10847810   3.576   4.990   4.300  1.3825 -1.2756 -0.6490
  392MOL   H10947811   3.460   5.023   4.180 -0.2584  1.2744 -1.3207
  392MOL   C11047812   3.652   5.005   4.093 -0.3254 -0.1832  0.2069
  392MOL   C11147813   3.660   4.853   4.077  0.7896 -0.1328 -0.1603
  392MOL   H11247814   3.606   5.047   4.003 -0.7830 -0.0118  0.5224
  392MOL   H11347815   3.747   5.058   4.097 -0.7008  0.4320  0.9754
  392MOL   H11447816   3.563   4.806   4.093 -0.0365  0.9346 -1.9266
  392MOL   H11547817   3.687   4.839   3.972 -2.9061 -1.6539 -1.0048
  392MOL   C11647818   3.763   4.797   4.176 -0.1654 -0.1391 -0.2848
  392MOL   C11747819   3.797   4.650   4.141  0.2005  0.9043 -0.1523
  392MOL   H11847820   3.859   4.847   4.169  0.5376 -1.4135  0.2003
  392MOL   H11947821   3.729   4.811   4.279  2.6945 -0.9342  0.7941
  392MOL   H12047822   3.863   4.612   4.219 -1.0280  2.1414  1.5558
  392MOL   H12147823   3.710   4.585   4.151  1.5618 -0.7916  0.8264
  392MOL   H12247824   3.834   4.626   4.042  2.7239  2.9905  0.2204
  393MOL     C147825   4.801   3.280   7.160 -0.5020  0.3516  0.5554
  393MOL     C247826   4.908   3.384   7.114 -0.1183  0.5296 -0.1303
  393MOL     H347827   4.811   3.238   7.260  1.5352 -2.5596 -0.7982
  393MOL     H447828   4.789   3.198   7.089 -0.3998  1.3970 -0.6782
  393MOL     H547829   4.955   3.423   7.205  1.3909  0.4226 -0.8633
  393MOL     H647830   4.993   3.334   7.069  0.9587  1.2217  1.0965
  393MOL     H747831   4.715   3.346   7.170  0.0762  1.2789 -0.5324
  393MOL     C847832   4.861   3.497   7.022 -0.2689 -0.3047 -0.6927
  393MOL     C947833   4.961   3.596   6.972 -0.3882  0.4497  0.1569
  393MOL    H1047834   4.806   3.458   6.937  1.7627 -0.8457 -1.8056
  393MOL    H1147835   4.784   3.551   7.077  2.1460  0.3260  2.2020
  393MOL    H1247836   5.022   3.643   7.049  1.7745  1.0281 -1.8260
  393MOL    H1347837   5.036   3.536   6.920  1.6263  0.9229  2.3965
  393MOL    C1447838   4.920   3.694   6.860  0.3747  0.3092 -0.2671
  393MOL    C1547839   4.856   3.813   6.914 -0.4389 -0.1397  0.0856
  393MOL    H1647840   5.007   3.718   6.799  0.2057 -0.6386 -0.8897
  393MOL    H1747841   4.857   3.638   6.790 -0.6671 -0.4843  1.2730
  393MOL    H1847842   4.775   3.783   6.980 -0.5691 -1.4570 -0.6574
  393MOL    H1947843   4.914   3.878   6.980  0.9614 -0.4915 -0.7766
  393MOL    C2047844   4.804   3.898   6.802  0.2523  0.6493 -0.4909
  393MOL    C2147845   4.738   4.015   6.871  0.2974  0.4584  0.7285
  393MOL    H2247846   4.882   3.939   6.737  0.2587  0.6157 -0.5048
  393MOL    H2347847   4.720   3.846   6.756  0.0744 -1.5628  2.2311
  393MOL    H2447848   4.669   3.984   6.950 -0.1533  0.0058  0.1631
  393MOL    H2547849   4.812   4.072   6.927  0.9254  1.7536 -1.4026
  393MOL    C2647850   4.666   4.109   6.773  1.0919 -0.0893  0.3410
  393MOL    C2747851   4.540   4.060   6.693  0.6042 -0.3040 -0.3538
  393MOL    H2847852   4.649   4.204   6.824 -2.2080 -0.3516 -0.1575
  393MOL    H2947853   4.739   4.130   6.696 -1.7583  0.9679 -2.1496
  393MOL    H3047854   4.537   4.141   6.620  0.8535 -0.7473 -0.8672
  393MOL    H3147855   4.562   3.967   6.640  0.9481 -0.5026  0.1441
  393MOL    C3247856   4.399   4.039   6.770  0.1033  0.1755 -0.2302
  393MOL    C3347857   4.313   3.960   6.673  0.7437 -0.2449 -0.2134
  393MOL    H3447858   4.419   3.982   6.861 -3.4277 -0.3444  0.2839
  393MOL    H3547859   4.351   4.132   6.803 -1.4585  0.2162 -2.5001
  393MOL    H3647860   4.320   4.002   6.572 -2.4622 -0.5751 -0.6316
  393MOL    H3747861   4.361   3.863   6.661  2.9600  0.9927 -1.8849
  393MOL    C3847862   4.169   3.951   6.737  0.4112  1.1388  0.4868
  393MOL    C3947863   4.078   3.857   6.661 -0.4234  0.0143  0.2553
  393MOL    H4047864   4.170   3.919   6.841 -0.5803 -0.8025 -0.0793
  393MOL    H4147865   4.134   4.054   6.744 -1.3428  0.6098 -0.2114
  393MOL    H4247866   4.068   3.900   6.562  2.5807  0.1266 -0.0520
  393MOL    H4347867   4.127   3.761   6.644 -0.7876 -0.0249 -0.5734
  393MOL    C4447868   3.944   3.835   6.732  0.3277 -0.0370 -0.2742
  393MOL    C4547869   3.932   3.694   6.789 -0.3566  0.6590  0.2204
  393MOL    H4647870   3.936   3.910   6.811  2.3822 -0.7730  0.6602
  393MOL    H4747871   3.861   3.844   6.662  1.3550 -1.3292 -1.6882
  393MOL    H4847872   3.827   3.665   6.802 -0.4887 -0.0988 -2.2441
  393MOL    H4947873   3.974   3.619   6.722 -0.7265 -0.7218  1.5023
  393MOL    C5047874   4.000   3.676   6.925 -0.3856  0.2463 -0.0833
  393MOL    C5147875   3.985   3.537   6.985 -0.4028 -0.0012  0.1024
  393MOL    H5247876   4.103   3.707   6.912 -0.4722  0.0268 -1.3700
  393MOL    H5347877   3.951   3.749   6.990  1.2829  3.2696 -2.1127
  393MOL    H5447878   3.879   3.510   6.986 -0.6625  1.0118  0.4603
  393MOL    H5547879   4.039   3.474   6.914  0.9379 -0.4653  1.5090
  393MOL    C5647880   4.050   3.522   7.125 -0.2864  0.2273  0.4203
  393MOL    C5747881   4.011   3.622   7.230  0.1457 -0.2818  0.3646
  393MOL    H5847882   4.027   3.420   7.157  1.2789 -0.4582 -0.5667
  393MOL    H5947883   4.157   3.526   7.109 -0.1669  1.9049  1.5620
  393MOL    H6047884   4.006   3.724   7.195 -2.0299  0.9859  4.0835
  393MOL    H6147885   3.915   3.598   7.275 -0.3751  2.0308  0.5393
  393MOL    C6247886   4.113   3.618   7.340 -0.0430  0.3537 -0.6218
  393MOL    C6347887   4.096   3.730   7.442 -0.1578 -0.7942  0.7727
  393MOL    H6447888   4.102   3.528   7.400  1.6998  1.1251  0.9429
  393MOL    H6547889   4.217   3.623   7.307  0.3827 -0.6661  0.5282
  393MOL    H6647890   4.087   3.829   7.397  0.2545 -0.4734  1.3911
  393MOL    H6747891   4.007   3.725   7.504  0.1987  0.5349  1.4096
  393MOL    C6847892   4.218   3.728   7.543 -0.2435 -0.8152 -0.3128
  393MOL    C6947893   4.206   3.841   7.645  0.2772  0.4517 -0.8504
  393MOL    H7047894   4.231   3.633   7.594 -1.5149 -0.3489  0.8985
  393MOL    H7147895   4.309   3.733   7.483 -1.2133  0.3483 -1.7070
  393MOL    H7247896   4.155   3.924   7.597 -1.1956 -1.1230 -2.0408
  393MOL    H7347897   4.138   3.815   0.034  0.6271 -1.4895 -1.1691
  393MOL    C7447898   4.334   3.881   0.025  0.2488  0.4016  0.1659
  393MOL    C7547899   4.310   3.980   0.148 -0.1015  0.0443  0.3681
  393MOL    H7647900   4.397   3.799   0.058  2.8267  2.3974  0.3141
  393MOL    H7747901   4.393   3.937   7.645  2.4443 -2.6883 -0.5519
  393MOL    H7847902   4.240   3.928   0.213 -1.3953  2.6713  1.1073
  393MOL    H7947903   4.396   3.992   0.214  0.0686  2.7080 -0.2915
  393MOL    C8047904   4.257   4.119   0.119 -0.4456 -0.2322  0.0866
  393MOL    C8147905   4.312   4.194   7.686  0.3535  0.2831 -0.0346
  393MOL    H8247906   4.149   4.106   0.112 -0.6348 -0.5525  3.1002
  393MOL    H8347907   4.270   4.180   0.208  2.4419 -1.5811  0.6255
  393MOL    H8447908   4.293   4.140   7.593  0.2423 -1.9680  1.2585
  393MOL    H8547909   4.253   4.285   7.691 -0.4422 -0.1091 -1.9195
  393MOL    C8647910   4.457   4.233   0.007  0.3452  0.7980  0.5663
  393MOL    C8747911   4.507   4.352   7.614 -0.3038 -0.6079  0.5317
  393MOL    H8847912   4.470   4.250   0.113 -0.7973  0.5648  0.7520
  393MOL    H8947913   4.515   4.140   0.006 -1.3234 -0.2601 -0.6834
  393MOL    H9047914   4.466   4.446   7.649  0.4130  0.2960 -0.9833
  393MOL    H9147915   4.615   4.348   7.627 -0.4406 -3.6422  1.0172
  393MOL    C9247916   4.486   4.338   7.463  0.6391 -0.2123 -0.4673
  393MOL    C9347917   4.533   4.460   7.383  0.4266  0.7888 -0.0321
  393MOL    H9447918   4.549   4.255   7.430 -0.1599 -1.1955  0.4225
  393MOL    H9547919   4.385   4.308   7.434 -0.7558  2.6044  1.3159
  393MOL    H9647920   4.466   4.542   7.408  0.1309  0.3977  0.4678
  393MOL    H9747921   4.625   4.500   7.425 -0.2015 -0.4715  2.7091
  393MOL    C9847922   4.549   4.421   7.238  0.6542  0.1606 -0.7128
  393MOL    C9947923   4.605   4.544   7.161 -0.6671  0.1191  0.2518
  393MOL   H10047924   4.621   4.339   7.231 -1.5205 -1.7734 -0.7211
  393MOL   H10147925   4.449   4.392   7.205 -0.4295  1.2541  1.5385
  393MOL   H10247926   4.540   4.626   7.192 -1.3342 -0.0618 -0.6410
  393MOL   H10347927   4.704   4.574   7.194 -0.0674  0.9861 -2.2060
  393MOL   C10447928   4.608   4.530   7.007 -0.0693 -0.4159  0.2644
  393MOL   C10547929   4.634   4.665   6.932  0.2045  0.1081  0.0147
  393MOL   H10647930   4.681   4.461   6.964  0.1789  0.2928 -0.4578
  393MOL   H10747931   4.508   4.503   6.976 -1.1163  2.0150  1.4210
  393MOL   H10847932   4.706   4.717   6.994  0.5009  0.9215 -1.0021
  393MOL   H10947933   4.686   4.643   6.839 -1.6695 -3.6878 -0.2359
  393MOL   C11047934   4.504   4.750   6.910  0.2931  0.5084 -0.3178
  393MOL   C11147935   4.523   4.860   6.809 -0.2628 -0.1574  0.2516
  393MOL   H11247936   4.429   4.689   6.859 -0.3202  0.9748  0.0115
  393MOL   H11347937   4.460   4.784   7.004  0.6874  0.0190  0.0438
  393MOL   H11447938   4.535   4.798   6.720 -1.6770 -2.3804  1.5547
  393MOL   H11547939   4.429   4.915   6.810 -1.1293 -1.5186 -2.2028
  393MOL   C11647940   4.643   4.960   6.840 -0.3492 -0.0252  0.1974
  393MOL   C11747941   4.625   5.055   6.950 -0.2505 -0.2750  0.1618
  393MOL   H11847942   4.738   4.908   6.853 -0.2520  0.2338  0.5313
  393MOL   H11947943   4.661   5.029   6.758 -3.2610 -1.9029 -2.1247
  393MOL   H12047944   4.650   5.011   7.046 -0.5001  1.1079  0.8737
  393MOL   H12147945   4.695   5.137   6.935 -1.6170  0.7009 -1.0180
  393MOL   H12247946   4.528   5.103   6.954 -0.4614 -0.8079  1.8045
  394MOL     C147947   6.171   4.225   2.766  0.9492 -0.6259  0.2029
  394MOL     C247948   6.211   4.358   2.819 -0.3207  0.5327 -0.5857
  394MOL     H347949   6.132   4.229   2.664  2.4856 -0.4054 -0.4043
  394MOL     H447950   6.088   4.184   2.823 -0.4150  0.1251 -1.2065
  394MOL     H547951   6.273   4.331   2.905 -0.2011  0.4131 -0.7102
  394MOL     H647952   6.291   4.397   2.757  0.1252  1.7799  0.7299
  394MOL     H747953   6.248   4.149   2.784  2.6164  0.6660 -1.1934
  394MOL     C847954   6.094   4.453   2.860 -0.3591  0.1402  0.3405
  394MOL     C947955   6.154   4.577   2.923  0.2006  0.2370  1.1320
  394MOL    H1047956   6.032   4.463   2.771  0.8624 -0.8712 -0.6417
  394MOL    H1147957   6.031   4.404   2.935 -0.7219  1.7129  1.0920
  394MOL    H1247958   6.074   4.626   2.979 -1.0193  0.8563 -1.0932
  394MOL    H1347959   6.239   4.557   2.988  0.9246  0.2005  0.1868
  394MOL    C1447960   6.199   4.680   2.815 -0.4645  0.0926  0.2471
  394MOL    C1547961   6.258   4.806   2.878  0.0927  0.3504 -0.0575
  394MOL    H1647962   6.265   4.624   2.748 -0.0488  0.8104  0.0545
  394MOL    H1747963   6.110   4.716   2.763  0.5260  0.0361 -1.5162
  394MOL    H1847964   6.186   4.841   2.952 -0.9733 -2.2448  0.2013
  394MOL    H1947965   6.349   4.783   2.934  0.4885  2.5605  0.2765
  394MOL    C2047966   6.282   4.934   2.791  0.9062 -0.1520  0.0514
  394MOL    C2147967   6.323   5.054   2.874  0.4292  0.0041  0.6899
  394MOL    H2247968   6.360   4.904   2.722  2.6318 -1.4209  2.4731
  394MOL    H2347969   6.189   4.959   2.741 -1.2517 -3.0322  2.4050
  394MOL    H2447970   6.247   5.061   2.951 -1.7527 -1.1428 -1.2813
  394MOL    H2547971   6.411   5.023   2.930  1.8283 -1.9298 -2.4409
  394MOL    C2647972   6.339   5.186   2.797  0.4059  0.6818  0.1968
  394MOL    C2747973   6.365   5.305   2.894 -0.2615  0.2400 -0.3320
  394MOL    H2847974   6.419   5.181   2.723  0.0717 -1.4360 -0.0689
  394MOL    H2947975   6.252   5.219   2.740 -0.5374 -1.1078  0.5457
  394MOL    H3047976   6.277   5.337   2.949 -0.1178 -0.5422  0.3631
  394MOL    H3147977   6.438   5.287   2.973  0.0469  2.7468  0.0042
  394MOL    C3247978   6.417   5.434   2.820  0.0367  0.5177  0.3285
  394MOL    C3347979   6.449   5.542   2.931  0.1735 -0.4744 -0.5907
  394MOL    H3447980   6.510   5.412   2.767 -0.9932 -2.4085 -0.3854
  394MOL    H3547981   6.349   5.473   2.743  1.6688  0.6394 -1.0845
  394MOL    H3647982   6.369   5.544   3.006  0.4897  1.0693 -0.2817
  394MOL    H3747983   6.544   5.522   2.979  2.3920  2.1186 -3.6842
  394MOL    C3847984   6.462   5.683   2.872  0.0856 -0.2252  0.1692
  394MOL    C3947985   6.500   5.784   2.978  0.3261  0.5538  0.4591
  394MOL    H4047986   6.538   5.688   2.793  0.6455  0.3135  0.7446
  394MOL    H4147987   6.375   5.718   2.817 -0.3921 -1.2799  0.2347
  394MOL    H4247988   6.408   5.791   3.035  0.1202 -1.9558  0.4807
  394MOL    H4347989   6.571   5.732   3.041 -0.6765 -1.3488  0.0378
  394MOL    C4447990   6.561   5.911   2.912  0.2261  0.5230 -0.0399
  394MOL    C4547991   6.577   6.026   3.019 -0.0105 -1.1422  0.4365
  394MOL    H4647992   6.648   5.895   2.849  0.0522  2.3217 -0.7739
  394MOL    H4747993   6.483   5.948   2.845 -1.3634 -0.5652  1.1549
  394MOL    H4847994   6.482   6.056   3.065  0.5363  0.1398  0.7552
  394MOL    H4947995   6.625   5.977   3.104  0.9031 -2.7697 -0.9885
  394MOL    C5047996   6.635   6.156   2.958  0.0908 -0.7212 -0.1472
  394MOL    C5147997   6.651   6.277   3.043 -0.0269  0.4045  0.2932
  394MOL    H5247998   6.720   6.134   2.894 -0.5083 -0.3847 -1.0871
  394MOL    H5347999   6.571   6.185   2.874  0.7474  0.6374 -0.2043
  394MOL    H5448000   6.560   6.295   3.099  0.3539 -0.5560  1.2441
  394MOL    H5548001   6.723   6.265   3.124  0.1973  2.0655  0.3707
  394MOL    C5648002   6.692   6.397   2.962  0.4108 -0.0849 -0.1324
  394MOL    C5748003   6.790   6.486   3.047  0.1000 -0.2951  0.0205
  394MOL    H5848004   6.735   6.367   2.867 -2.9769  0.2040 -1.8083
  394MOL    H5948005   6.601   6.449   2.931  0.3321 -1.1371 -1.7222
  394MOL    H6048006   6.746   6.506   3.145  0.6188 -2.2412  0.6636
  394MOL    H6148007   6.884   6.431   3.055 -0.6845 -1.7313 -0.5899
  394MOL    C6248008   6.815   6.623   2.974  0.0818  0.0784  0.5660
  394MOL    C6348009   6.893   6.603   2.844  0.0564  0.7100  0.0718
  394MOL    H6448010   6.725   6.682   2.956  0.7985  0.0371 -3.6417
  394MOL    H6548011   6.858   6.698   3.041  0.3941 -0.4197  0.9215
  394MOL    H6648012   6.969   6.527   2.860  0.1103  0.6473 -0.4521
  394MOL    H6748013   6.819   6.580   2.767  1.2050  1.3554 -1.2388
  394MOL    C6848014   6.968   6.729   2.788 -0.7130 -0.5415 -1.1021
  394MOL    C6948015   7.043   6.711   2.657  0.3409 -0.0859 -0.0093
  394MOL    H7048016   6.901   6.814   2.776 -0.4059 -0.1934 -0.3729
  394MOL    H7148017   7.019   6.776   2.872 -1.7962 -0.6512 -0.3744
  394MOL    H7248018   7.062   6.811   2.620 -2.9660  0.9977  1.0727
  394MOL    H7348019   7.141   6.673   2.686  0.2887  0.1958  0.5508
  394MOL    C7448020   6.977   6.617   2.547  0.2682  0.3000 -0.2355
  394MOL    C7548021   7.059   6.605   2.428 -0.0911 -0.1903  0.0654
  394MOL    H7648022   6.961   6.522   2.597  1.5631  1.5217  2.6806
  394MOL    H7748023   6.882   6.660   2.516 -1.5680 -2.2592  1.5897
  394MOL    H7848024   7.097   6.697   2.383  0.4611 -0.2182  0.4631
  394MOL    H7948025   7.154   6.554   2.445  1.2572  1.8585 -1.1344
  394MOL    C8048026   6.975   6.545   2.309  0.3711 -0.8417 -0.2240
  394MOL    C8148027   7.076   6.494   2.195 -0.1543 -0.9272 -1.0232
  394MOL    H8248028   6.920   6.460   2.349 -1.1579  1.1205  2.0211
  394MOL    H8348029   6.907   6.616   2.262 -0.6850 -0.5281  1.7377
  394MOL    H8448030   7.144   6.574   2.165  2.1012 -0.1818  5.3645
  394MOL    H8548031   7.147   6.421   2.235  0.5804 -0.6304 -1.7683
  394MOL    C8648032   7.004   6.436   2.073  0.1986  1.1494 -0.4610
  394MOL    C8748033   7.101   6.392   1.958  0.0810 -0.5909 -0.0462
  394MOL    H8848034   6.955   6.348   2.114 -0.6999  0.9658 -1.8916
  394MOL    H8948035   6.918   6.496   2.045  0.1217  1.0158 -0.5105
  394MOL    H9048036   7.159   6.477   1.921  2.3948 -1.3893  1.6646
  394MOL    H9148037   7.180   6.326   1.992  0.7882  0.6970  0.8633
  394MOL    C9248038   7.033   6.337   1.827 -0.5486 -0.6043 -0.6635
  394MOL    C9348039   7.133   6.294   1.718 -0.4211  0.1648  0.5525
  394MOL    H9448040   6.974   6.248   1.851  1.0421 -2.1077 -2.1561
  394MOL    H9548041   6.963   6.409   1.785 -0.4293  0.4775  0.9517
  394MOL    H9648042   7.199   6.378   1.697 -3.7571  2.2539 -2.0534
  394MOL    H9748043   7.204   6.222   1.758  1.0818 -0.8073 -3.6161
  394MOL    C9848044   7.082   6.237   1.588  0.5378  0.3267 -0.6777
  394MOL    C9948045   7.185   6.219   1.480  0.7151 -0.6367 -0.8577
  394MOL   H10048046   7.033   6.140   1.600 -0.2598  0.9940  1.6715
  394MOL   H10148047   7.006   6.303   1.546  0.1873  0.6117  0.3915
  394MOL   H10248048   7.196   6.322   1.443 -1.2436 -0.2109 -0.3089
  394MOL   H10348049   7.283   6.186   1.513  0.7956  1.3574  1.0103
  394MOL   C10448050   7.133   6.133   1.366  0.4256 -0.1912  0.1586
  394MOL   C10548051   7.248   6.125   1.261 -0.4217  1.0165  0.2256
  394MOL   H10648052   7.111   6.031   1.399  1.0297  0.2751  2.0235
  394MOL   H10748053   7.043   6.174   1.320 -0.0435 -0.4280  0.8629
  394MOL   H10848054   7.273   6.224   1.224 -3.0840  1.0414 -1.5603
  394MOL   H10948055   7.335   6.076   1.306 -1.0709  2.3727  3.0655
  394MOL   C11048056   7.201   6.050   1.131  0.2256  0.1238 -0.2306
  394MOL   C11148057   7.319   6.031   1.038  1.0722  0.0191 -0.0759
  394MOL   H11248058   7.153   5.957   1.161 -2.6216  0.5064 -3.2830
  394MOL   H11348059   7.132   6.106   1.068  2.2987  2.7778 -0.2057
  394MOL   H11448060   7.349   6.127   0.996  1.7362  0.3918  1.2351
  394MOL   H11548061   7.405   5.996   1.095  1.0401  0.7242  0.4023
  394MOL   C11648062   7.285   5.937   0.915 -0.0498 -0.3904 -0.0110
  394MOL   C11748063   7.395   5.931   0.808 -0.1175 -0.0907  0.2349
  394MOL   H11848064   7.286   5.837   0.957 -1.0241 -0.1152  0.6767
  394MOL   H11948065   7.184   5.941   0.875  0.2094  1.9119 -0.5095
  394MOL   H12048066   7.492   5.932   0.857  1.0328 -1.4690 -1.9260
  394MOL   H12148067   7.400   5.841   0.746  0.2657 -1.0192  1.6075
  394MOL   H12248068   7.383   6.014   0.739  0.7867  0.0967  0.3037
  395MOL     C148069   6.221   4.585   4.768 -0.2260 -0.4978  0.0270
  395MOL     C248070   6.161   4.459   4.819  0.0469  0.3036 -0.4361
  395MOL     H348071   6.297   4.613   4.841 -0.3787 -0.1698  0.0605
  395MOL     H448072   6.142   4.659   4.782  1.9000  1.9100 -0.1690
  395MOL     H548073   6.078   4.429   4.755  0.3037  2.0541 -1.6372
  395MOL     H648074   6.235   4.382   4.801  0.6491 -0.0242  3.1466
  395MOL     H748075   6.257   4.600   4.666 -2.3725 -0.5728 -0.7605
  395MOL     C848076   6.124   4.466   4.967 -0.4005  0.5515  0.2339
  395MOL     C948077   5.992   4.529   4.996 -0.0586  0.4672 -0.1586
  395MOL    H1048078   6.112   4.359   4.984  0.9187  0.0071 -2.1325
  395MOL    H1148079   6.211   4.496   5.026 -0.5351 -0.2456  0.8389
  395MOL    H1248080   5.978   4.631   4.960 -1.8289  0.5435  0.6877
  395MOL    H1348081   5.912   4.475   4.944  0.3705 -0.6632  0.3370
  395MOL    C1448082   5.959   4.517   5.148 -0.2426 -0.2049  0.2524
  395MOL    C1548083   5.830   4.585   5.189  0.9891  0.2623 -0.1735
  395MOL    H1648084   5.950   4.412   5.177 -1.5953  0.5329  2.6535
  395MOL    H1748085   6.041   4.550   5.212 -0.1406  0.4766 -0.2232
  395MOL    H1848086   5.845   4.692   5.172  1.3867  0.9821  4.0325
  395MOL    H1948087   5.743   4.553   5.131  0.9101 -0.2752  0.2341
  395MOL    C2048088   5.795   4.573   5.336  0.6953 -0.0253 -0.0186
  395MOL    C2148089   5.673   4.652   5.370 -0.1163  0.6997 -0.0584
  395MOL    H2248090   5.772   4.469   5.361  2.0344 -0.6293 -1.1878
  395MOL    H2348091   5.880   4.598   5.399  0.2700 -0.2506  0.6502
  395MOL    H2448092   5.691   4.758   5.350  0.1597  0.5095 -0.8525
  395MOL    H2548093   5.593   4.625   5.300  0.3784  0.9967 -0.7459
  395MOL    C2648094   5.612   4.629   5.516  0.5368 -0.8616  0.9932
  395MOL    C2748095   5.500   4.728   5.552 -0.8930 -0.3241  0.3026
  395MOL    H2848096   5.572   4.528   5.511 -0.7191 -0.3246 -0.6091
  395MOL    H2948097   5.687   4.622   5.594  1.9334  0.5677 -0.1804
  395MOL    H3048098   5.541   4.829   5.548  1.7622 -1.3836 -0.1354
  395MOL    H3148099   5.418   4.738   5.480 -1.6490 -1.5322  0.9944
  395MOL    C3248100   5.449   4.710   5.694 -0.8532  0.3616  0.2144
  395MOL    C3348101   5.342   4.815   5.730 -0.4599 -1.0189  0.5543
  395MOL    H3448102   5.397   4.614   5.687  1.8975 -1.1797  0.0281
  395MOL    H3548103   5.531   4.689   5.763 -0.1710  1.6169 -0.2119
  395MOL    H3648104   5.368   4.920   5.717  2.4965 -1.8514 -0.6510
  395MOL    H3748105   5.262   4.790   5.660  1.2252  0.5682 -2.0411
  395MOL    C3848106   5.276   4.791   5.871 -0.5263  0.7402 -0.1332
  395MOL    C3948107   5.371   4.819   5.983 -0.1469 -0.2687 -0.4556
  395MOL    H4048108   5.179   4.839   5.885 -1.4850 -1.0780 -0.4593
  395MOL    H4148109   5.248   4.687   5.881  0.1294  0.6713  1.1906
  395MOL    H4248110   5.464   4.768   5.957  0.6956  0.5333  0.8988
  395MOL    H4348111   5.403   4.923   5.978  0.3961 -0.3985  0.1674
  395MOL    C4448112   5.329   4.784   6.123  0.2251 -0.3542 -0.4993
  395MOL    C4548113   5.444   4.782   6.227  0.4940  0.1122  0.5527
  395MOL    H4648114   5.258   4.855   6.165 -2.2139 -3.6923  1.2818
  395MOL    H4748115   5.281   4.686   6.128 -1.7462  0.6623  1.3957
  395MOL    H4848116   5.527   4.723   6.187  0.4129  0.3386  0.0425
  395MOL    H4948117   5.469   4.886   6.250  0.0692  0.8994 -2.3190
  395MOL    C5048118   5.417   4.716   6.364  0.1894  0.1265 -0.0894
  395MOL    C5148119   5.544   4.701   6.445  1.2047 -0.4498  0.5384
  395MOL    H5248120   5.346   4.782   6.415  2.3869  1.6215  1.1383
  395MOL    H5348121   5.371   4.620   6.344 -1.3456  0.7435  0.4507
  395MOL    H5448122   5.610   4.781   6.411  0.1267 -0.0635 -0.7319
  395MOL    H5548123   5.523   4.724   6.550 -0.3686 -0.5360  0.2590
  395MOL    C5648124   5.620   4.563   6.432 -0.2382  0.2728 -0.7643
  395MOL    C5748125   5.749   4.560   6.518 -0.0400 -0.3892 -0.1242
  395MOL    H5848126   5.559   4.483   6.474  0.5538 -0.0866 -0.2967
  395MOL    H5948127   5.629   4.553   6.324  2.3614 -1.3913 -0.4181
  395MOL    H6048128   5.811   4.646   6.492  0.9576 -1.3441 -0.9617
  395MOL    H6148129   5.724   4.577   6.622  1.3671 -2.7404  0.6478
  395MOL    C6248130   5.834   4.431   6.524  0.1939 -0.4811 -0.1574
  395MOL    C6348131   5.941   4.449   6.628 -0.0474 -0.4180  0.2962
  395MOL    H6448132   5.766   4.357   6.566 -1.4640  0.4665 -1.0960
  395MOL    H6548133   5.872   4.396   6.428 -0.7357 -0.6308 -0.4848
  395MOL    H6648134   5.999   4.535   6.594 -0.8421 -0.9138 -2.4985
  395MOL    H6748135   5.898   4.480   6.723  0.0915  0.3974  0.1003
  395MOL    C6848136   6.026   4.327   6.651 -0.0298  0.2025  0.4764
  395MOL    C6948137   6.136   4.293   6.544  0.3830 -0.5389 -0.0712
  395MOL    H7048138   6.069   4.332   6.751 -0.0523  3.8309  0.3649
  395MOL    H7148139   5.952   4.247   6.645  0.2772  0.0108 -0.8898
  395MOL    H7248140   6.094   4.281   6.443 -1.4711 -0.2179  0.6433
  395MOL    H7348141   6.191   4.387   6.549  1.8300 -1.4259  0.6143
  395MOL    C7448142   6.216   4.173   6.578  0.6894  0.5061 -0.0788
  395MOL    C7548143   6.345   4.155   6.503 -0.3415 -0.9336  0.2213
  395MOL    H7648144   6.240   4.170   6.684  0.0139  1.9408  0.1256
  395MOL    H7748145   6.159   4.082   6.560  1.8563  0.1755 -2.2423
  395MOL    H7848146   6.343   4.171   6.395 -2.1475 -1.1884  0.2061
  395MOL    H7948147   6.416   4.231   6.536 -1.1822 -0.6821  1.4692
  395MOL    C8048148   6.421   4.022   6.538 -0.2257  0.1456 -0.6524
  395MOL    C8148149   6.562   4.026   6.481  0.1758 -0.1471 -0.2086
  395MOL    H8248150   6.410   3.997   6.644  1.1182 -0.6116 -0.6692
  395MOL    H8348151   6.381   3.934   6.488 -1.7027 -1.2664  2.8745
  395MOL    H8448152   6.555   4.069   6.381  0.6248 -0.7936 -0.5279
  395MOL    H8548153   6.623   4.102   6.529 -0.5532 -0.6093  1.4580
  395MOL    C8648154   6.641   3.891   6.488 -0.9581  1.1453  0.3518
  395MOL    C8748155   6.786   3.889   6.433  0.1334 -0.2257  0.1585
  395MOL    H8848156   6.648   3.869   6.595 -0.6100  1.0096  0.2994
  395MOL    H8948157   6.599   3.800   6.444  1.1896 -0.2367  1.0735
  395MOL    H9048158   6.797   3.916   6.328 -2.8851  0.3097 -0.0808
  395MOL    H9148159   6.845   3.965   6.484 -0.5305 -1.2473  2.5442
  395MOL    C9248160   6.854   3.749   6.445 -0.3081  0.0294 -0.2459
  395MOL    C9348161   6.819   3.655   6.330 -0.3087 -0.0295 -0.7827
  395MOL    H9448162   6.962   3.751   6.456 -0.2283 -3.0501  0.1564
  395MOL    H9548163   6.831   3.712   6.545  1.2228  0.0830  0.1344
  395MOL    H9648164   6.847   3.555   6.364  0.2087 -0.3169 -2.0375
  395MOL    H9748165   6.711   3.656   6.315 -0.3900  1.7745 -0.1728
  395MOL    C9848166   6.884   3.681   6.192 -0.6112  0.4283  0.0519
  395MOL    C9948167   6.989   3.572   6.157 -0.1471  0.4176  0.4821
  395MOL   H10048168   6.806   3.643   6.126 -1.2194 -0.1370  1.0827
  395MOL   H10148169   6.902   3.788   6.182 -0.1346  0.2124 -1.6381
  395MOL   H10248170   7.072   3.572   6.227 -0.6563  1.3943  1.0974
  395MOL   H10348171   6.956   3.472   6.186  0.9808  0.2350  1.1402
  395MOL   C10448172   7.057   3.583   6.021  0.1988 -0.0684  0.6165
  395MOL   C10548173   7.188   3.506   5.999 -0.0621 -0.1417 -0.4301
  395MOL   H10648174   6.981   3.563   5.945  0.3772 -0.5643  0.5643
  395MOL   H10748175   7.071   3.689   6.003 -4.4373  0.7592  1.2158
  395MOL   H10848176   7.271   3.536   6.064  1.5061 -0.1384 -2.3788
  395MOL   H10948177   7.178   3.400   6.024  0.7279  0.1376  1.1464
  395MOL   C11048178   7.248   3.506   5.857 -0.5800  0.0773 -0.3098
  395MOL   C11148179   7.398   3.475   5.848  0.0627 -0.4932  0.2806
  395MOL   H11248180   7.204   3.434   5.788 -0.9754 -2.7478  2.8037
  395MOL   H11348181   7.232   3.605   5.814 -0.9097 -0.0430 -0.4604
  395MOL   H11448182   7.435   3.560   5.906  2.3367 -1.1708 -0.1320
  395MOL   H11548183   7.404   3.381   5.903  0.9692 -0.5046  0.1703
  395MOL   C11648184   7.467   3.474   5.710  0.4307  0.1396 -1.1660
  395MOL   C11748185   7.620   3.477   5.729 -0.5427 -0.1154  0.8185
  395MOL   H11848186   7.417   3.396   5.653  2.1947  0.3738 -3.1051
  395MOL   H11948187   7.450   3.571   5.665 -0.6447 -0.5252 -2.2434
  395MOL   H12048188   7.677   3.506   5.641 -0.3444 -2.8583  0.0156
  395MOL   H12148189   7.638   3.565   5.792 -1.3869 -1.0533  2.4108
  395MOL   H12248190   7.660   3.386   5.773 -0.7681 -0.7240 -0.2323
  396MOL     C148191   1.091   4.359   0.879 -0.0245 -0.0488  0.3265
  396MOL     C248192   1.101   4.448   1.000  0.2062 -0.4105 -0.0512
  396MOL     H348193   0.990   4.352   0.838  0.7851 -3.2332 -1.2233
  396MOL     H448194   1.129   4.258   0.887  1.3572  0.5415  1.3994
  396MOL     H548195   1.205   4.449   1.035  0.0296  1.1963  0.4617
  396MOL     H648196   1.067   4.548   0.973  1.0736 -0.1525 -0.2281
  396MOL     H748197   1.164   4.395   0.806  2.1384 -1.7697  1.6122
  396MOL     C848198   1.020   4.406   1.121  0.2579 -0.0311 -0.5873
  396MOL     C948199   0.867   4.433   1.106 -0.5672 -0.3047  0.3735
  396MOL    H1048200   1.038   4.300   1.138  1.1135  0.3959  1.4373
  396MOL    H1148201   1.051   4.456   1.213  0.3138  0.6675 -0.9887
  396MOL    H1248202   0.838   4.538   1.099 -0.7329 -0.4046 -0.4182
  396MOL    H1348203   0.822   4.405   1.011  1.4402 -0.9032 -0.4267
  396MOL    C1448204   0.795   4.368   1.221  0.2050 -0.5132  0.3119
  396MOL    C1548205   0.643   4.397   1.224 -1.0114 -0.3129  0.3749
  396MOL    H1648206   0.800   4.259   1.212 -0.1231 -0.4290 -1.0272
  396MOL    H1748207   0.848   4.394   1.313 -2.9652  1.9576  1.5044
  396MOL    H1848208   0.642   4.500   1.188 -0.9471 -0.1401  0.8547
  396MOL    H1948209   0.594   4.338   1.147  2.6660  1.2568 -3.3874
  396MOL    C2048210   0.584   4.394   1.371  0.3211 -0.4432 -0.9685
  396MOL    C2148211   0.438   4.424   1.374  0.8057 -0.0555  0.0144
  396MOL    H2248212   0.609   4.297   1.414  3.5052  0.6743 -0.1051
  396MOL    H2348213   0.640   4.472   1.423  0.0814 -0.4550 -0.6951
  396MOL    H2448214   0.422   4.515   1.317 -1.3126  0.3499  1.1903
  396MOL    H2548215   0.389   4.348   1.313  4.2780 -1.2916 -1.3833
  396MOL    C2648216   0.374   4.432   1.513 -0.1016  0.2044  0.8843
  396MOL    C2748217   0.440   4.549   1.587 -1.0548 -0.8398  0.1429
  396MOL    H2848218   0.268   4.447   1.492  0.2641  2.4133  0.5222
  396MOL    H2948219   0.389   4.338   1.565  1.5177  0.1920  0.4353
  396MOL    H3048220   0.543   4.521   1.606 -0.3306  0.2782 -2.0041
  396MOL    H3148221   0.432   4.642   1.530 -1.0363 -0.3126  0.9919
  396MOL    C3248222   0.372   4.579   1.720  0.6799 -0.5593 -0.1578
  396MOL    C3348223   0.451   4.692   1.788  0.1301 -0.1872 -0.4792
  396MOL    H3448224   0.269   4.611   1.703  0.0312 -2.6682 -0.2510
  396MOL    H3548225   0.372   4.487   1.779  1.9431 -0.3401  0.2013
  396MOL    H3648226   0.554   4.655   1.784  1.3837  2.9863  1.0428
  396MOL    H3748227   0.451   4.778   1.720 -2.3409 -0.2136 -0.5413
  396MOL    C3848228   0.415   4.727   1.935 -0.4551 -0.6715  0.3737
  396MOL    C3948229   0.518   4.830   1.986 -0.2145  0.0269 -0.2619
  396MOL    H4048230   0.313   4.766   1.936  0.1854  1.0092  0.9865
  396MOL    H4148231   0.430   4.637   1.995  1.8813 -0.2555  0.4613
  396MOL    H4248232   0.615   4.781   1.973 -0.7345 -1.4457  1.1868
  396MOL    H4348233   0.509   4.914   1.917 -1.7472  0.8738  0.9299
  396MOL    C4448234   0.511   4.868   2.133 -0.2890 -0.7452 -0.2174
  396MOL    C4548235   0.615   4.978   2.168 -0.1877  0.0319 -0.9012
  396MOL    H4648236   0.419   4.916   2.166  1.0373  1.1153  0.9224
  396MOL    H4748237   0.528   4.779   2.194  0.6927  0.9149  1.9994
  396MOL    H4848238   0.718   4.948   2.186 -0.7924 -0.0127  2.8806
  396MOL    H4948239   0.622   5.047   2.085  1.0700  1.3501  0.2777
  396MOL    C5048240   0.570   5.052   2.295  0.7308 -0.5617  0.8453
  396MOL    C5148241   0.677   5.162   2.311 -0.0557  0.0213 -0.5504
  396MOL    H5248242   0.469   5.090   2.278  1.2721  0.4948 -0.0737
  396MOL    H5348243   0.582   4.981   2.377  1.7843  0.5324  1.6448
  396MOL    H5448244   0.770   5.111   2.333 -0.7466 -1.5564 -1.1406
  396MOL    H5548245   0.694   5.230   2.227  2.8457 -0.3297 -0.2971
  396MOL    C5648246   0.652   5.238   2.444 -0.7881  0.4567  0.3396
  396MOL    C5748247   0.750   5.349   2.480 -0.8259  0.0756  0.6783
  396MOL    H5848248   0.553   5.283   2.446 -1.2292 -0.4828  0.1731
  396MOL    H5948249   0.649   5.161   2.521  0.2131 -1.0868 -1.1311
  396MOL    H6048250   0.846   5.297   2.478 -2.1019 -2.3723  1.0999
  396MOL    H6148251   0.753   5.416   2.393  1.2862 -0.3417  0.4135
  396MOL    C6248252   0.716   5.417   2.613  0.3499  0.6903 -0.8270
  396MOL    C6348253   0.816   5.523   2.664 -0.2068 -0.2734  0.2275
  396MOL    H6448254   0.619   5.465   2.602  0.4752  1.1139 -0.1217
  396MOL    H6548255   0.708   5.336   2.685  1.5687  0.0198 -1.4337
  396MOL    H6648256   0.917   5.484   2.679 -0.8636 -1.5847  1.3429
  396MOL    H6748257   0.822   5.606   2.594 -1.4583 -1.0379 -0.8287
  396MOL    C6848258   0.768   5.584   2.794 -0.4136 -0.2615  0.0329
  396MOL    C6948259   0.863   5.691   2.839  0.0956  0.3166  0.3386
  396MOL    H7048260   0.672   5.631   2.773 -1.1671 -1.0094  1.7122
  396MOL    H7148261   0.755   5.509   2.872 -2.5567 -0.0323 -0.0812
  396MOL    H7248262   0.964   5.650   2.846 -0.9158 -2.0516  1.5505
  396MOL    H7348263   0.867   5.768   2.762  3.1255  1.4872  1.6216
  396MOL    C7448264   0.841   5.739   2.978 -1.2570  0.3627  0.0138
  396MOL    C7548265   0.880   5.879   3.010  0.2399  0.0009  0.2820
  396MOL    H7648266   0.740   5.716   3.013 -1.3792  1.5067  0.4332
  396MOL    H7748267   0.894   5.672   3.046 -0.2206 -0.6297 -1.7401
  396MOL    H7848268   0.978   5.894   2.965  0.5633  1.0558  1.2947
  396MOL    H7948269   0.828   5.957   2.954  2.1970  0.8334 -0.4200
  396MOL    C8048270   0.912   5.903   3.156 -0.1755  0.0273 -0.0232
  396MOL    C8148271   0.934   6.049   3.198 -0.5898  0.3031 -0.5607
  396MOL    H8248272   0.821   5.874   3.209 -0.9770  3.0732  0.3743
  396MOL    H8348273   0.999   5.843   3.184  0.0426  1.3416  2.3055
  396MOL    H8448274   1.015   6.098   3.144  0.8156  0.9535  2.0448
  396MOL    H8548275   0.848   6.106   3.161 -1.6395  0.6620  2.2989
  396MOL    C8648276   0.965   6.070   3.347  0.1714 -0.1650 -0.0429
  396MOL    C8748277   0.955   6.217   3.384  0.7132 -0.6084  0.9118
  396MOL    H8848278   0.890   6.012   3.400  0.6434  0.4789  1.3480
  396MOL    H8948279   1.055   6.021   3.385 -1.1150 -0.2559  2.9997
  396MOL    H9048280   1.035   6.269   3.331  1.0023 -2.5507 -0.6182
  396MOL    H9148281   0.860   6.262   3.355  0.5765 -0.9640  0.8078
  396MOL    C9248282   0.963   6.245   3.536 -0.1689  0.2120  0.7158
  396MOL    C9348283   0.917   6.386   3.583  0.0940  1.4292  0.1855
  396MOL    H9448284   0.894   6.173   3.580  0.1616  0.3644  1.5004
  396MOL    H9548285   1.068   6.227   3.561  0.3778 -1.1920 -2.3047
  396MOL    H9648286   0.986   6.453   3.532  2.4831 -0.9502  0.2190
  396MOL    H9748287   0.817   6.410   3.545  0.4058  1.9745 -0.2978
  396MOL    C9848288   0.922   6.407   3.731 -0.3202 -0.2553 -0.9074
  396MOL    C9948289   1.058   6.364   3.794 -0.1189 -0.8082  0.5326
  396MOL   H10048290   0.904   6.511   3.755 -3.5254 -0.5659 -1.7683
  396MOL   H10148291   0.841   6.353   3.780  0.2617 -0.2129  0.1212
  396MOL   H10248292   1.050   6.255   3.801  0.4859 -0.7857  1.6156
  396MOL   H10348293   1.139   6.391   3.726 -1.8358  0.0552 -1.2437
  396MOL   C10448294   1.092   6.424   3.931 -0.2872 -0.0197 -0.2953
  396MOL   C10548295   1.229   6.396   3.990  0.3726 -0.3229  0.4336
  396MOL   H10648296   1.071   6.531   3.929  3.5199  0.8164  0.6783
  396MOL   H10748297   1.011   6.382   3.991 -1.1799  0.4720 -1.1446
  396MOL   H10848298   1.268   6.295   3.979  2.3995  0.3288  1.3387
  396MOL   H10948299   1.310   6.444   3.934 -1.4154  0.8508 -1.2246
  396MOL   C11048300   1.235   6.417   4.142  0.0372 -0.5446 -0.2484
  396MOL   C11148301   1.381   6.408   4.181 -0.4121  0.2291  0.0142
  396MOL   H11248302   1.189   6.514   4.163  1.6542  0.2901 -0.5404
  396MOL   H11348303   1.174   6.341   4.192 -0.7869 -0.7116 -1.4695
  396MOL   H11448304   1.426   6.317   4.143 -1.0517  0.1734 -0.6071
  396MOL   H11548305   1.433   6.482   4.120 -1.0252 -1.0190 -2.0625
  396MOL   C11648306   1.378   6.433   4.332 -0.4281  0.3097  0.2152
  396MOL   C11748307   1.518   6.433   4.395 -0.2025 -0.5774 -0.2623
  396MOL   H11848308   1.333   6.526   4.365 -1.5961 -0.3759  0.5654
  396MOL   H11948309   1.316   6.359   4.383 -0.9050 -0.4105 -1.3717
  396MOL   H12048310   1.525   6.421   4.503  2.6606  3.7848  0.1680
  396MOL   H12148311   1.571   6.345   4.357 -2.5620 -1.4626 -1.6235
  396MOL   H12248312   1.579   6.517   4.364  0.2628 -0.4948  0.8602
  397MOL     C148313   4.546   4.865   4.521  0.4520 -0.7804 -0.9078
  397MOL     C248314   4.577   5.010   4.546  0.5037  0.8883 -0.6489
  397MOL     H348315   4.504   4.846   4.422 -0.5629  0.4116 -0.7160
  397MOL     H448316   4.479   4.823   4.596  1.4476  0.7709  0.8920
  397MOL     H548317   4.642   5.057   4.471  0.0309  1.1298 -0.9095
  397MOL     H648318   4.484   5.067   4.541  0.1464  0.2650 -1.1418
  397MOL     H748319   4.633   4.800   4.516  0.3766 -0.9174 -0.4532
  397MOL     C848320   4.622   5.043   4.698 -0.6677 -0.0769 -0.1247
  397MOL     C948321   4.629   5.196   4.730  0.1311  0.0732 -0.7616
  397MOL    H1048322   4.553   4.982   4.755  1.1453 -0.1589  2.0442
  397MOL    H1148323   4.716   4.995   4.727 -0.2211 -0.1766 -1.6508
  397MOL    H1248324   4.700   5.240   4.661  1.8954  0.1723  1.0688
  397MOL    H1348325   4.538   5.252   4.710  0.7637  1.7891  1.0118
  397MOL    C1448326   4.664   5.229   4.877 -0.6716 -0.0343 -0.0869
  397MOL    C1548327   4.681   5.386   4.897  0.9635 -0.2863  0.1539
  397MOL    H1648328   4.576   5.204   4.936 -0.1760  1.6732  1.4203
  397MOL    H1748329   4.739   5.164   4.922 -1.6272 -1.6010 -0.7233
  397MOL    H1848330   4.762   5.424   4.834 -0.9391  3.9079  0.0172
  397MOL    H1948331   4.590   5.437   4.865  0.5897 -1.8993 -1.4465
  397MOL    C2048332   4.709   5.417   5.037  0.8378  0.5331  0.3853
  397MOL    C2148333   4.739   5.566   5.062 -0.0186  0.7208 -0.2202
  397MOL    H2248334   4.629   5.383   5.103  0.1689  0.5987 -0.3931
  397MOL    H2348335   4.798   5.358   5.059  1.2696  0.6243 -1.0818
  397MOL    H2448336   4.817   5.605   4.997  1.6658 -0.2359  1.1927
  397MOL    H2548337   4.653   5.629   5.039  0.9742  2.2507  0.1387
  397MOL    C2648338   4.762   5.597   5.215 -0.0321  0.0901  0.1473
  397MOL    C2748339   4.791   5.746   5.254  0.4224 -0.8811  0.4265
  397MOL    H2848340   4.678   5.567   5.277 -1.7312 -0.7861 -2.4704
  397MOL    H2948341   4.849   5.537   5.240 -0.0058  0.9168  2.0936
  397MOL    H3048342   4.871   5.785   5.192  0.2481  0.1620  0.8591
  397MOL    H3148343   4.702   5.794   5.212  0.7722 -1.4057 -0.9394
  397MOL    C3248344   4.830   5.774   5.405  0.1866  0.5609 -0.8271
  397MOL    C3348345   4.868   5.927   5.419  0.2587  0.5042  0.2495
  397MOL    H3448346   4.742   5.758   5.468  0.3221  0.5020 -0.6524
  397MOL    H3548347   4.913   5.711   5.436  0.2104  0.1861 -1.6217
  397MOL    H3648348   4.956   5.946   5.358  0.8395 -0.0355  0.9139
  397MOL    H3748349   4.787   5.988   5.377 -0.8536 -1.1034  0.0427
  397MOL    C3848350   4.884   5.987   5.556  0.3990 -0.0049 -0.5278
  397MOL    C3948351   4.952   6.129   5.571 -0.0458  0.5286  0.0397
  397MOL    H4048352   4.790   5.992   5.612  1.9097  0.9950  2.0060
  397MOL    H4148353   4.953   5.931   5.620 -0.0213  0.9916  0.8340
  397MOL    H4248354   5.038   6.120   5.505 -0.9917 -0.9885 -1.0381
  397MOL    H4348355   4.873   6.183   5.518 -0.1723 -0.9725 -1.3566
  397MOL    C4448356   4.973   6.172   5.716  0.3637 -0.2438  0.3468
  397MOL    C4548357   4.985   6.328   5.724  0.0652  0.5931  0.8266
  397MOL    H4648358   4.881   6.137   5.762  1.5694 -0.2619  2.7875
  397MOL    H4748359   5.062   6.121   5.753 -0.5488 -0.8747  1.6916
  397MOL    H4848360   5.065   6.358   5.657 -0.5119 -0.2364 -0.2483
  397MOL    H4948361   4.889   6.365   5.686  0.0772 -0.7470 -0.5206
  397MOL    C5048362   5.004   6.380   5.863  0.2100 -0.0538 -0.8025
  397MOL    C5148363   5.060   6.522   5.860  0.6827  0.5135 -0.4660
  397MOL    H5248364   4.908   6.391   5.914  0.0751 -1.1094 -0.8165
  397MOL    H5348365   5.073   6.315   5.916 -0.7093 -0.0398  0.4394
  397MOL    H5448366   5.146   6.535   5.795  1.3074  0.2204  0.3031
  397MOL    H5548367   4.983   6.587   5.819 -0.7631  2.1481  4.5309
  397MOL    C5648368   5.085   6.578   5.994 -0.3779 -0.8439  0.2614
  397MOL    C5748369   5.114   6.729   5.995 -0.5921 -0.7889  0.4412
  397MOL    H5848370   4.993   6.561   6.049  0.3756  1.6180  2.3763
  397MOL    H5948371   5.166   6.524   6.043  0.3806 -1.8718 -2.0557
  397MOL    H6048372   5.200   6.761   5.937 -0.1868  0.6034  1.7506
  397MOL    H6148373   5.020   6.772   5.958 -0.8535 -2.1123 -0.4624
  397MOL    C6248374   5.124   6.796   6.134  0.6710  0.0863 -0.6874
  397MOL    C6348375   5.177   6.937   6.120  0.0928 -0.5115 -1.3585
  397MOL    H6448376   5.028   6.794   6.186  0.4140 -0.2140 -1.1578
  397MOL    H6548377   5.191   6.737   6.195  0.5204 -0.0924 -0.6930
  397MOL    H6648378   5.268   6.949   6.062 -0.3342  3.3349 -1.3540
  397MOL    H6748379   5.103   6.995   6.065 -1.1507 -1.9844 -1.2870
  397MOL    C6848380   5.217   6.999   6.259  0.4542 -0.4071  0.0078
  397MOL    C6948381   5.254   7.142   6.257  0.5728  0.8480 -0.0403
  397MOL    H7048382   5.136   6.980   6.330  0.3116 -0.6247 -0.2131
  397MOL    H7148383   5.310   6.949   6.284  1.3828  1.0160 -0.5303
  397MOL    H7248384   5.318   7.164   6.171 -1.3395  0.8488 -1.4991
  397MOL    H7348385   5.169   7.207   6.236 -0.1187  0.2889  1.0059
  397MOL    C7448386   5.308   7.175   6.398 -0.6126  0.0278 -0.1469
  397MOL    C7548387   5.365   7.316   6.410  1.2619  0.5155  0.7819
  397MOL    H7648388   5.225   7.154   6.466 -0.8081 -0.2107 -0.4609
  397MOL    H7748389   5.394   7.113   6.427 -0.7357 -0.5328 -0.9651
  397MOL    H7848390   5.453   7.324   6.347  0.3881  0.4703 -0.4720
  397MOL    H7948391   5.299   7.392   6.368 -1.4525 -1.9110  0.5156
  397MOL    C8048392   5.409   7.347   6.554 -0.3922  0.1998 -0.2179
  397MOL    C8148393   5.508   7.461   6.571 -0.3139 -0.5512 -0.0880
  397MOL    H8248394   5.317   7.361   6.610 -2.3090 -2.7408 -2.4859
  397MOL    H8348395   5.454   7.257   6.595  2.4957  1.5769 -0.2680
  397MOL    H8448396   5.601   7.440   6.517 -0.5853  1.7350 -1.5453
  397MOL    H8548397   5.461   7.542   6.515 -1.0560 -1.6564 -1.0725
  397MOL    C8648398   5.539   7.496   6.717 -0.1887 -0.1161  0.5148
  397MOL    C8748399   5.643   7.608   6.732  0.0285  0.1773 -0.2024
  397MOL    H8848400   5.457   7.535   6.776 -0.5955 -0.6094  0.2748
  397MOL    H8948401   5.563   7.401   6.765  0.4343 -0.2870 -0.1113
  397MOL    H9048402   5.733   7.596   6.672  0.5499  0.4178  0.5126
  397MOL    H9148403   5.607   0.007   6.684 -0.4807  0.6126  0.9697
  397MOL    C9248404   5.679   7.650   6.875 -0.5123  0.5342  0.5735
  397MOL    C9348405   5.782   0.074   6.878 -0.3097 -0.3780 -0.5455
  397MOL    H9448406   5.584   7.666   6.926 -0.8200 -0.5423  0.3597
  397MOL    H9548407   5.716   7.563   6.929 -1.6694  0.0025  0.5218
  397MOL    H9648408   5.882   0.047   6.843  0.6066  1.3081  0.6693
  397MOL    H9748409   5.743   0.146   6.807 -1.6540 -0.2964  0.2579
  397MOL    C9848410   5.800   0.145   7.017 -0.2764  0.7608 -0.6706
  397MOL    C9948411   5.856   0.054   7.122  0.4213 -0.8458 -0.2367
  397MOL   H10048412   5.863   0.232   6.995 -0.4467  1.0473 -0.0421
  397MOL   H10148413   5.702   0.186   7.044 -0.8232 -1.9950  1.6479
  397MOL   H10248414   5.784   7.677   7.165  0.4727  0.7108  2.4993
  397MOL   H10348415   5.939   7.683   7.091  1.0547 -0.8154  1.3681
  397MOL   C10448416   5.925   0.148   7.232  0.5953 -0.6941  0.2040
  397MOL   C10548417   6.046   0.232   7.190 -0.3636  0.0379  0.0447
  397MOL   H10648418   5.843   0.211   7.266  0.9376  0.9829 -1.9917
  397MOL   H10748419   5.959   0.081   7.311  0.5258  0.5211  1.2626
  397MOL   H10848420   6.109   0.167   7.130 -0.6108  0.7050 -0.9450
  397MOL   H10948421   6.015   0.310   7.120 -0.4567 -0.9751 -1.0419
  397MOL   C11048422   6.113   0.297   7.310 -0.1344 -0.5321 -0.0394
  397MOL   C11148423   6.042   0.429   7.367  0.8810  0.5075 -0.3210
  397MOL   H11248424   6.137   0.225   7.389 -1.1483 -2.7617 -1.7098
  397MOL   H11348425   6.209   0.326   7.267 -1.8846 -0.9081 -4.4839
  397MOL   H11448426   6.066   0.514   7.302  0.5799  0.2530 -0.7703
  397MOL   H11548427   5.934   0.419   7.353  0.7562  1.5529 -0.1447
  397MOL   C11648428   6.069   0.463   7.516  0.0393  0.4244  0.6094
  397MOL   C11748429   5.988   0.588   7.558  0.9121  0.2198  0.0236
  397MOL   H11848430   6.037   0.366   7.555  0.7115  0.1333  0.4407
  397MOL   H11948431   6.172   0.482   7.547  0.3140 -0.6346  0.3618
  397MOL   H12048432   6.000   0.599   7.666  2.4641  1.0491 -0.2293
  397MOL   H12148433   6.022   0.686   7.528  3.2136  0.0236  1.8493
  397MOL   H12248434   5.883   0.576   7.530  0.9956 -0.7051  0.0861
  398MOL     C148435   2.347   0.681   6.080  0.0035  0.0610 -0.0316
  398MOL     C248436   2.417   0.607   5.961 -0.3046  0.0711 -0.0371
  398MOL     H348437   2.328   0.619   6.167 -0.6925  0.6010  0.2079
  398MOL     H448438   2.248   0.724   6.066 -0.4767  0.1297  3.2817
  398MOL     H548439   2.509   0.560   5.995  0.8294  1.7587 -0.6890
  398MOL     H648440   2.352   0.528   5.923  0.9313  0.1677 -2.4200
  398MOL     H748441   2.409   0.768   6.100  0.3744 -0.3066  0.4314
  398MOL     C848442   2.445   0.700   5.839 -0.0860  0.0323 -0.3431
  398MOL     C948443   2.556   0.807   5.852 -0.1530 -0.2459  0.3447
  398MOL    H1048444   2.459   0.641   5.748  0.4308 -0.1232 -0.1622
  398MOL    H1148445   2.349   0.739   5.805 -0.6632 -0.0515  1.1562
  398MOL    H1248446   2.534   0.881   5.929 -2.6142 -0.5322 -0.0339
  398MOL    H1348447   2.648   0.752   5.872 -0.3925 -0.7585  0.0698
  398MOL    C1448448   2.553   0.873   5.713  0.4728  0.1169 -0.0359
  398MOL    C1548449   2.660   0.979   5.701  0.0941 -0.0142  0.0721
  398MOL    H1648450   2.577   0.800   5.635  1.1991  0.0474  0.2528
  398MOL    H1748451   2.454   0.910   5.684  1.5532  0.6664 -3.1901
  398MOL    H1848452   2.649   1.056   5.778  1.2321 -1.3353  1.6075
  398MOL    H1948453   2.757   0.935   5.726 -0.4678 -1.1390  0.3113
  398MOL    C2048454   2.676   1.041   5.562 -0.4159  0.1821  0.4208
  398MOL    C2148455   2.815   1.098   5.548  0.2689 -0.2667  0.4463
  398MOL    H2248456   2.667   0.967   5.483 -1.8192  0.3125  0.4432
  398MOL    H2348457   2.601   1.117   5.540  0.5738  0.6608 -1.3807
  398MOL    H2448458   2.839   1.170   5.626 -1.8749  2.3365 -1.1979
  398MOL    H2548459   2.890   1.019   5.551  0.7237  0.1433 -0.0128
  398MOL    C2648460   2.838   1.175   5.417  0.3301  0.2687 -0.5255
  398MOL    C2748461   2.990   1.213   5.401  0.4182 -0.4319  0.6167
  398MOL    H2848462   2.803   1.101   5.345 -1.5292  0.6967 -0.0953
  398MOL    H2948463   2.778   1.265   5.433  2.7788  1.8636 -0.0641
  398MOL    H3048464   3.026   1.260   5.492 -1.0690 -0.0746  1.0353
  398MOL    H3148465   3.046   1.120   5.393  1.9484  0.6235 -1.4956
  398MOL    C3248466   3.005   1.309   5.292 -0.1876 -0.3766 -0.4439
  398MOL    C3348467   3.152   1.339   5.269 -0.1021  0.0074  0.9104
  398MOL    H3448468   2.958   1.275   5.199 -1.1084  1.3935 -0.6419
  398MOL    H3548469   2.952   1.402   5.312 -2.1712 -1.6033  0.1600
  398MOL    H3648470   3.204   1.365   5.362  0.0113  0.2854  0.7677
  398MOL    H3748471   3.217   1.259   5.234  0.1732  1.0257 -0.9649
  398MOL    C3848472   3.168   1.456   5.169 -0.1669 -0.1969 -0.2358
  398MOL    C3948473   3.131   1.416   5.021  0.1181  0.7097 -0.2384
  398MOL    H4048474   3.102   1.537   5.200  1.0739  0.0115  1.9692
  398MOL    H4148475   3.268   1.498   5.180 -0.3192 -0.0263  0.5316
  398MOL    H4248476   3.188   1.330   4.984 -0.6562 -0.0049  0.2115
  398MOL    H4348477   3.029   1.382   5.005  0.7788  0.0441 -3.4124
  398MOL    C4448478   3.166   1.523   4.917 -0.2018 -0.0038  1.0483
  398MOL    C4548479   3.309   1.557   4.893  0.0399  0.1563  0.2496
  398MOL    H4648480   3.111   1.499   4.826 -1.1876 -0.8699  1.8592
  398MOL    H4748481   3.118   1.616   4.948  0.2914  1.0107 -1.1472
  398MOL    H4848482   3.338   1.605   4.986 -0.6115  0.5779  0.2427
  398MOL    H4948483   3.357   1.459   4.895 -0.5855 -0.1398  1.6530
  398MOL    C5048484   3.322   1.647   4.772  1.0084  0.1938  0.7461
  398MOL    C5148485   3.477   1.655   4.729  0.5261 -0.3569 -0.4603
  398MOL    H5248486   3.271   1.601   4.687  0.3871 -0.2227  1.3498
  398MOL    H5348487   3.280   1.742   4.802 -2.2859 -1.0842  0.4060
  398MOL    H5448488   3.546   1.686   4.807 -1.2877  0.6160  0.8071
  398MOL    H5548489   3.504   1.551   4.711 -0.7145 -1.1186  1.9194
  398MOL    C5648490   3.502   1.727   4.593  0.1490  0.1563  0.4857
  398MOL    C5748491   3.484   1.883   4.581 -0.2153  0.3018 -0.4925
  398MOL    H5848492   3.607   1.711   4.568  0.1380  0.4829  0.2141
  398MOL    H5948493   3.452   1.674   4.511  0.1288  1.7378 -0.5562
  398MOL    H6048494   3.391   1.931   4.614 -0.9715 -0.4566 -1.4736
  398MOL    H6148495   3.556   1.938   4.641  0.0550 -0.3683 -0.2083
  398MOL    C6248496   3.513   1.934   4.437 -0.4183  0.1697  0.4461
  398MOL    C6348497   3.515   2.089   4.424  0.8303 -0.4718  0.3429
  398MOL    H6448498   3.618   1.910   4.419 -0.3678  0.5823  0.1877
  398MOL    H6548499   3.446   1.878   4.372 -2.4417 -2.4622  4.5296
  398MOL    H6648500   3.428   2.130   4.476 -0.3693 -2.7400  0.1667
  398MOL    H6748501   3.603   2.135   4.470  1.1539 -0.4599 -0.2831
  398MOL    C6848502   3.517   2.120   4.274 -0.3004  0.3841 -0.1098
  398MOL    C6948503   3.537   2.272   4.242  0.0517  0.3497 -0.1381
  398MOL    H7048504   3.598   2.064   4.228 -0.8329 -1.0153  0.6147
  398MOL    H7148505   3.429   2.081   4.224  0.3619  1.2886 -2.0272
  398MOL    H7248506   3.627   2.301   4.295  0.3842 -0.4751 -0.2505
  398MOL    H7348507   3.555   2.286   4.135  4.9428 -2.2790  0.1966
  398MOL    C7448508   3.409   2.349   4.283  0.5467  0.1612 -0.2760
  398MOL    C7548509   3.425   2.498   4.254 -0.3648 -1.4036 -0.2007
  398MOL    H7648510   3.318   2.301   4.248  0.3892 -1.3630  2.0540
  398MOL    H7748511   3.409   2.336   4.392 -0.4449  0.1890 -0.2646
  398MOL    H7848512   3.515   2.528   4.307  0.5438 -1.8303 -1.4803
  398MOL    H7948513   3.452   2.511   4.149 -3.7425  2.5336 -0.6976
  398MOL    C8048514   3.304   2.573   4.295 -0.0466 -0.3094  0.4858
  398MOL    C8148515   3.326   2.724   4.303  0.4623  0.4143  0.5542
  398MOL    H8248516   3.225   2.558   4.221  0.3038  1.5304 -0.3003
  398MOL    H8348517   3.253   2.533   4.382  1.7867 -2.6621  0.5149
  398MOL    H8448518   3.418   2.740   4.360 -0.2299 -0.8417  2.0598
  398MOL    H8548519   3.344   2.766   4.204  1.1407  1.4732  1.1220
  398MOL    C8648520   3.205   2.810   4.349 -0.1545  0.4152  0.0158
  398MOL    C8748521   3.241   2.953   4.372 -0.0961 -0.3305 -0.8483
  398MOL    H8848522   3.124   2.803   4.276 -0.3687  0.6839  0.2294
  398MOL    H8948523   3.168   2.774   4.445 -2.2367  2.1485 -0.0982
  398MOL    H9048524   3.328   2.950   4.438 -1.4752 -2.0660  0.9429
  398MOL    H9148525   3.274   2.999   4.279 -0.9828 -0.4216 -1.2095
  398MOL    C9248526   3.126   3.033   4.438 -0.1613  0.1894 -0.0828
  398MOL    C9348527   3.140   3.184   4.416 -0.1116 -0.4535 -0.0991
  398MOL    H9448528   3.034   3.011   4.385  0.3397 -2.4572  0.0752
  398MOL    H9548529   3.109   2.999   4.540  1.3812  1.8945  0.7719
  398MOL    H9648530   3.217   3.222   4.484 -1.0866 -1.0263  1.3528
  398MOL    H9748531   3.173   3.200   4.314 -0.8965  1.1029 -0.1169
  398MOL    C9848532   2.995   3.251   4.430 -0.6092  0.1540  0.1531
  398MOL    C9948533   3.004   3.403   4.408  0.3092 -0.4413  0.1288
  398MOL   H10048534   2.939   3.211   4.346 -2.6940 -1.7251  2.3525
  398MOL   H10148535   2.946   3.228   4.525  0.5842 -0.8016  0.5547
  398MOL   H10248536   3.082   3.445   4.472  1.5459 -0.0850 -1.5785
  398MOL   H10348537   3.041   3.418   4.307 -1.8709  0.9518 -0.5190
  398MOL   C10448538   2.854   3.448   4.433 -0.7278 -0.5110  0.0402
  398MOL   C10548539   2.844   3.602   4.452  0.5232  0.5984  0.3330
  398MOL   H10648540   2.794   3.409   4.351 -2.2767  0.3545  0.7429
  398MOL   H10748541   2.805   3.401   4.518  0.1052 -0.8561  0.3358
  398MOL   H10848542   2.903   3.621   4.541  0.1015  1.2787  0.4686
  398MOL   H10948543   2.900   3.645   4.369  0.4889 -1.2318 -0.6786
  398MOL   C11048544   2.707   3.663   4.459  0.0398 -0.0384  0.5056
  398MOL   C11148545   2.629   3.633   4.589 -0.4018 -0.0570 -0.5130
  398MOL   H11248546   2.726   3.770   4.445  1.1147 -0.3849 -0.7968
  398MOL   H11348547   2.663   3.637   4.362  0.7923 -0.1974  0.2035
  398MOL   H11448548   2.639   3.529   4.618  1.7026  0.2400 -0.1106
  398MOL   H11548549   2.680   3.693   4.664  0.8370 -1.2305 -0.4128
  398MOL   C11648550   2.483   3.670   4.586  0.2135  0.5541 -0.1448
  398MOL   C11748551   2.451   3.819   4.583 -0.0993 -0.0433  0.1283
  398MOL   H11848552   2.445   3.612   4.502 -0.2294 -3.1114  2.4868
  398MOL   H11948553   2.433   3.623   4.671 -0.7077  1.3036 -0.2696
  398MOL   H12048554   2.492   3.872   4.497  0.4358 -0.1711  0.3009
  398MOL   H12148555   2.344   3.840   4.589 -0.6698 -2.6822 -0.2073
  398MOL   H12248556   2.486   3.876   4.670 -2.8754  0.6951  0.8081
  399MOL     C148557   6.195   1.447   6.629  0.4049  0.1761  0.3792
  399MOL     C248558   6.050   1.413   6.666  0.6271 -0.7999  0.4310
  399MOL     H348559   6.264   1.469   6.711 -0.5613 -0.8062  1.4669
  399MOL     H448560   6.197   1.539   6.570  0.4634  0.2469  0.4894
  399MOL     H548561   6.008   1.505   6.707  1.2071 -0.9331  1.3218
  399MOL     H648562   5.995   1.388   6.575 -0.0638  1.3593  0.2062
  399MOL     H748563   6.240   1.369   6.568 -0.0142 -0.4470  0.8721
  399MOL     C848564   6.035   1.309   6.779  0.5323 -0.0048  0.5194
  399MOL     C948565   5.890   1.296   6.818 -0.1212  0.0710  0.6135
  399MOL    H1048566   6.094   1.221   6.750  0.7959  0.4665 -0.4116
  399MOL    H1148567   6.095   1.358   6.855  1.0448  0.2393 -0.0327
  399MOL    H1248568   5.879   1.241   6.912 -1.0462  0.8627  0.9703
  399MOL    H1348569   5.856   1.395   6.847 -1.6050 -0.7535  1.7558
  399MOL    C1448570   5.800   1.220   6.714 -0.5783 -0.5515 -0.1656
  399MOL    C1548571   5.818   1.066   6.718 -0.2103 -0.1837  0.5657
  399MOL    H1648572   5.700   1.244   6.751 -0.8242 -1.3593 -0.3043
  399MOL    H1748573   5.809   1.258   6.612  0.9023 -0.7501 -0.1166
  399MOL    H1848574   5.922   1.036   6.705 -0.2683 -1.5583  3.1059
  399MOL    H1948575   5.787   1.030   6.815  0.5767 -2.5797 -0.0357
  399MOL    C2048576   5.730   0.988   6.617 -0.0104 -0.2208  0.0491
  399MOL    C2148577   5.728   0.834   6.617  0.5678  0.0817  0.3526
  399MOL    H2248578   5.630   1.027   6.634 -0.1830 -0.5423 -0.2264
  399MOL    H2348579   5.764   1.020   6.518 -3.2583  1.5673 -0.5551
  399MOL    H2448580   5.827   0.790   6.624  0.2482 -0.9797 -1.6520
  399MOL    H2548581   5.671   0.807   6.707 -0.5736  1.0971 -0.0457
  399MOL    C2648582   5.640   0.779   6.497 -0.1743 -0.1481  0.3369
  399MOL    C2748583   5.644   0.628   6.484 -0.0185  0.6048 -0.5002
  399MOL    H2848584   5.539   0.820   6.509  0.5690  1.6411  0.5146
  399MOL    H2948585   5.679   0.837   6.414 -0.0477  0.5332  0.8749
  399MOL    H3048586   5.741   0.579   6.487 -0.5352 -0.3869  0.8676
  399MOL    H3148587   5.583   0.593   6.568  0.3838 -0.2311 -0.5551
  399MOL    C3248588   5.572   0.582   6.359  0.2067  0.3052  0.7365
  399MOL    C3348589   5.589   0.443   6.318  0.1904  0.6619  1.3384
  399MOL    H3448590   5.465   0.601   6.362  0.0050 -0.5699 -0.4191
  399MOL    H3548591   5.611   0.651   6.283  0.1664 -1.1268 -0.6135
  399MOL    H3648592   5.690   0.432   6.278 -0.2759  0.1363  0.2824
  399MOL    H3748593   5.580   0.383   6.408  0.2387  0.7453  1.3990
  399MOL    C3848594   5.490   0.378   6.218  0.4883  0.4687  0.1158
  399MOL    C3948595   5.523   0.227   6.203 -0.7249  0.6748  0.1373
  399MOL    H4048596   5.386   0.388   6.249  0.4143  1.0471 -0.2925
  399MOL    H4148597   5.486   0.434   6.124  1.7424  3.4732  1.8003
  399MOL    H4248598   5.627   0.202   6.184 -0.9422 -0.4249  0.3904
  399MOL    H4348599   5.489   0.163   6.285  2.9693 -1.7999 -0.1727
  399MOL    C4448600   5.449   0.162   6.085  0.3697 -0.8598 -0.7709
  399MOL    C4548601   5.473   0.013   6.079  0.5008  0.3375 -0.0702
  399MOL    H4648602   5.343   0.182   6.100  0.8562 -0.3822  2.3339
  399MOL    H4748603   5.476   0.217   5.994  1.3244  0.9486  0.5585
  399MOL    H4848604   5.580   7.685   6.079  0.4776  0.1382 -2.7952
  399MOL    H4948605   5.430   7.671   6.174 -0.3461  4.2660  1.0703
  399MOL    C5048606   5.393   7.645   5.961 -0.5266 -0.3721  0.9584
  399MOL    C5148607   5.400   7.492   5.971  0.3386 -0.9389 -0.5919
  399MOL    H5248608   5.289   7.677   5.963 -0.1398  0.8505  2.6353
  399MOL    H5348609   5.423   7.688   5.865  1.3754  2.6727  2.8215
  399MOL    H5448610   5.493   7.463   6.020  0.3943  1.1692  0.6160
  399MOL    H5548611   5.311   7.464   6.028  0.2187  1.1281  0.3047
  399MOL    C5648612   5.381   7.421   5.838 -0.1604 -0.1621 -0.0394
  399MOL    C5748613   5.347   7.267   5.856  0.2682  0.1673  0.2071
  399MOL    H5848614   5.307   7.464   5.771  1.0603 -0.2831 -1.4971
  399MOL    H5948615   5.476   7.431   5.784  1.0095 -1.5364  1.7045
  399MOL    H6048616   5.400   7.214   5.936 -1.1922 -1.3467  0.1787
  399MOL    H6148617   5.243   7.256   5.886  0.9619 -0.5284  2.4797
  399MOL    C6248618   5.367   7.187   5.728  0.4641 -0.1423  0.3489
  399MOL    C6348619   5.327   7.042   5.735 -0.1079 -0.0208  0.3931
  399MOL    H6448620   5.324   7.232   5.638  0.4367  1.1843  1.0158
  399MOL    H6548621   5.474   7.188   5.708  0.1001 -0.1360 -1.6978
  399MOL    H6648622   5.355   7.003   5.833 -0.4825 -1.4568 -0.0540
  399MOL    H6748623   5.218   7.039   5.743  0.0083 -0.0510  2.0415
  399MOL    C6848624   5.372   6.956   5.614 -0.2922 -0.5178  0.0100
  399MOL    C6948625   5.276   6.844   5.575  0.0961  0.9722 -0.2537
  399MOL    H7048626   5.375   7.016   5.523 -2.7830 -0.1324  0.1397
  399MOL    H7148627   5.469   6.920   5.648 -0.4486 -0.1727  0.8273
  399MOL    H7248628   5.237   6.787   5.659  1.2375 -0.2709 -0.5455
  399MOL    H7348629   5.190   6.894   5.530 -0.0885  1.4699  0.6501
  399MOL    C7448630   5.327   6.759   5.461 -0.0139  0.9674  0.0724
  399MOL    C7548631   5.237   6.650   5.422  0.5627 -0.4648  0.2963
  399MOL    H7648632   5.375   6.813   5.379  1.9906 -1.7833 -0.6289
  399MOL    H7748633   5.420   6.713   5.495 -0.3750  0.6210  0.5861
  399MOL    H7848634   5.178   6.616   5.507  0.6408 -2.4944 -0.4404
  399MOL    H7948635   5.154   6.692   5.366  1.1909  0.9853  0.4269
  399MOL    C8048636   5.301   6.535   5.339  0.6499 -0.5085  0.6949
  399MOL    C8148637   5.205   6.421   5.309  0.5998 -0.1594 -0.6490
  399MOL    H8248638   5.317   6.584   5.243 -1.0503 -1.6185 -0.1797
  399MOL    H8348639   5.396   6.492   5.370  1.7141 -1.0154 -2.9792
  399MOL    H8448640   5.154   6.378   5.395  0.6828 -0.4524 -0.7449
  399MOL    H8548641   5.115   6.466   5.267 -0.6938 -2.8333 -0.8502
  399MOL    C8648642   5.259   6.313   5.217  0.1531 -0.3799 -0.5568
  399MOL    C8748643   5.146   6.214   5.182  0.5298  0.1105  0.3158
  399MOL    H8848644   5.297   6.345   5.120 -0.6154  0.6495 -0.5346
  399MOL    H8948645   5.342   6.264   5.267  0.0059  0.7258  0.7966
  399MOL    H9048646   5.082   6.185   5.265 -0.4403 -1.7328 -1.0630
  399MOL    H9148647   5.069   6.252   5.115  0.1145  0.1281  0.8007
  399MOL    C9248648   5.212   6.093   5.115 -0.4816 -0.0155 -0.5851
  399MOL    C9348649   5.111   6.013   5.039  0.1029  0.5244  0.0807
  399MOL    H9448650   5.294   6.128   5.053 -0.9481  2.3092  0.0614
  399MOL    H9548651   5.266   6.023   5.178 -4.0316 -0.4081  2.1706
  399MOL    H9648652   5.045   5.959   5.106 -1.0674  0.5042 -1.0639
  399MOL    H9748653   5.054   6.084   4.979 -1.7840  0.2685  1.5368
  399MOL    C9848654   5.182   5.899   4.956 -0.0103  0.6438  0.1812
  399MOL    C9948655   5.086   5.830   4.866  0.4912  0.1744 -0.6251
  399MOL   H10048656   5.259   5.948   4.896  0.3417  2.0035  1.7228
  399MOL   H10148657   5.223   5.823   5.023  1.1466 -0.2588 -1.5171
  399MOL   H10248658   4.991   5.815   4.918  1.2702  0.1216  0.7996
  399MOL   H10348659   5.061   5.898   4.785 -1.5529  1.4821  1.0508
  399MOL   C10448660   5.139   5.705   4.798 -0.5453 -0.3804 -0.0975
  399MOL   C10548661   5.032   5.632   4.717 -0.0603  0.1356  0.4802
  399MOL   H10648662   5.216   5.721   4.723 -0.0237 -0.8374  0.3339
  399MOL   H10748663   5.186   5.638   4.872  0.6478  1.7741  1.1564
  399MOL   H10848664   4.965   5.603   4.798 -2.0053  2.3046 -0.2858
  399MOL   H10948665   4.981   5.708   4.658  0.1599 -0.7126 -0.8013
  399MOL   C11048666   5.091   5.518   4.626  0.8156  0.0598  0.6739
  399MOL   C11148667   4.979   5.446   4.565 -0.4348  0.4344  0.2069
  399MOL   H11248668   5.156   5.555   4.547 -0.8170  0.4763 -0.4945
  399MOL   H11348669   5.147   5.453   4.693 -0.1461 -3.4312 -1.7379
  399MOL   H11448670   4.896   5.444   4.635  0.9287  0.7020  1.8675
  399MOL   H11548671   4.940   5.501   4.480  1.7940  1.3687 -0.2481
  399MOL   C11648672   5.015   5.309   4.512  0.0589  0.0564 -0.7096
  399MOL   C11748673   5.114   5.307   4.398  0.1303  0.6525 -0.4149
  399MOL   H11848674   5.052   5.242   4.591 -0.3077 -0.1400 -0.7040
  399MOL   H11948675   4.921   5.267   4.478  0.7774 -0.7146 -1.7560
  399MOL   H12048676   5.207   5.357   4.429 -0.2445  0.5413  0.9201
  399MOL   H12148677   5.131   5.203   4.373  1.3282  0.4882  0.9615
  399MOL   H12248678   5.073   5.362   4.313  0.3534  0.3299 -0.7319
  400MOL     C148679   5.285   3.589   0.081  0.4922 -0.3020 -0.0411
  400MOL     C248680   5.156   3.671   0.050 -0.4530  0.2106 -0.0593
  400MOL     H348681   5.286   3.482   0.063 -2.0723 -0.3380 -0.1554
  400MOL     H448682   5.321   3.608   0.182 -1.9655 -2.3898  1.2708
  400MOL     H548683   5.179   3.777   0.039  1.8245 -0.3234 -0.8172
  400MOL     H648684   5.123   3.653   7.640 -1.0575  0.5418  0.0767
  400MOL     H748685   5.365   3.628   0.017 -0.6627  2.3000  0.0487
  400MOL     C848686   5.034   3.637   0.141 -0.2112  0.6309 -0.1166
  400MOL     C948687   5.049   3.706   0.275  0.3679  0.0745  0.0859
  400MOL    H1048688   4.941   3.668   0.092 -0.0054 -0.0380 -0.9403
  400MOL    H1148689   5.017   3.529   0.142  0.2407  0.5472 -0.9759
  400MOL    H1248690   5.136   3.671   0.330 -0.4530  0.6548  1.7895
  400MOL    H1348691   5.068   3.813   0.264 -1.9192  0.5084  0.1381
  400MOL    C1448692   4.926   3.680   0.365 -0.5658  0.6232  0.4373
  400MOL    C1548693   4.916   3.760   0.497  0.5344  0.1381  1.0665
  400MOL    H1648694   4.832   3.716   0.322 -0.7070  0.9577  1.0275
  400MOL    H1748695   4.908   3.572   0.366  0.9714  0.2851 -2.4511
  400MOL    H1848696   4.932   3.867   0.486  0.1287  0.2304  1.3703
  400MOL    H1948697   4.813   3.746   0.530 -0.4592  1.0020 -1.5753
  400MOL    C2048698   5.025   3.703   0.593  0.7008  0.2948  0.5934
  400MOL    C2148699   5.005   3.771   0.727 -0.1534 -0.8816 -0.6658
  400MOL    H2248700   5.018   3.597   0.616 -0.0606 -0.4116 -2.6299
  400MOL    H2348701   5.127   3.726   0.559  0.0425  1.9547 -0.3201
  400MOL    H2448702   4.987   3.878   0.721 -0.4216 -0.9260 -0.6319
  400MOL    H2548703   4.920   3.735   0.784  0.9474  0.5406  1.9624
  400MOL    C2648704   5.132   3.748   0.820  0.2479  0.1239  0.2833
  400MOL    C2748705   5.102   3.797   0.960 -0.1610  0.0228  0.4963
  400MOL    H2848706   5.181   3.650   0.811 -1.6311 -0.5242 -4.4447
  400MOL    H2948707   5.211   3.803   0.769 -0.2635 -1.5289 -2.3860
  400MOL    H3048708   5.192   3.798   1.022 -1.3233  0.4359  2.2363
  400MOL    H3148709   5.085   3.905   0.956 -0.0087  0.2378  4.0844
  400MOL    C3248710   4.998   3.709   1.033  0.6506  0.2616  0.4523
  400MOL    C3348711   4.994   3.732   1.190 -0.5829 -0.4183  0.0589
  400MOL    H3448712   4.894   3.711   1.002  0.0773  3.2064  2.4101
  400MOL    H3548713   5.036   3.607   1.023  0.0213  0.1501 -0.9477
  400MOL    H3648714   5.090   3.759   1.234  0.4945 -1.4101 -1.6189
  400MOL    H3748715   4.935   3.823   1.203  0.4117  0.6119 -2.2048
  400MOL    C3848716   4.924   3.617   1.261  0.0776  0.1855 -0.2116
  400MOL    C3948717   4.941   3.621   1.417  1.1183 -0.4505  1.0241
  400MOL    H4048718   4.818   3.605   1.239  0.3106  0.5929 -1.5668
  400MOL    H4148719   4.962   3.515   1.248  0.1321 -0.1499  2.3234
  400MOL    H4248720   5.049   3.616   1.429  1.3755 -2.5300 -1.6964
  400MOL    H4348721   4.910   3.716   1.461  0.5694 -0.0625 -0.1923
  400MOL    C4448722   4.884   3.505   1.503  1.1681  0.3186  1.6934
  400MOL    C4548723   4.938   3.488   1.642  0.4719 -0.0908  0.3807
  400MOL    H4648724   4.778   3.531   1.508  1.6327  2.8046 -0.1768
  400MOL    H4748725   4.892   3.413   1.445  2.0728  2.2577 -1.3978
  400MOL    H4848726   5.046   3.475   1.650  0.2851 -1.2440  1.2608
  400MOL    H4948727   4.921   3.581   1.697 -2.3188 -0.1221 -0.3509
  400MOL    C5048728   4.864   3.372   1.709 -0.5593  0.1240  0.6933
  400MOL    C5148729   4.902   3.346   1.852 -0.1480  0.6039  0.1331
  400MOL    H5248730   4.756   3.379   1.701 -0.4812  0.2604 -0.3569
  400MOL    H5348731   4.877   3.286   1.642 -0.7179  2.2436 -2.1659
  400MOL    H5448732   5.004   3.306   1.852  0.2139  1.5234  0.2218
  400MOL    H5548733   4.904   3.439   1.908  1.0379  0.8489 -0.3047
  400MOL    C5648734   4.813   3.235   1.920  0.7461  0.2640  0.3087
  400MOL    C5748735   4.673   3.293   1.954  0.5868 -0.4680 -0.3647
  400MOL    H5848736   4.823   3.147   1.855  0.9577 -4.0799  5.8127
  400MOL    H5948737   4.863   3.204   2.012  2.1396 -1.6508 -1.0345
  400MOL    H6048738   4.687   3.376   2.023  0.5372 -1.1244  0.4418
  400MOL    H6148739   4.609   3.324   1.871  0.6850  1.6911  0.3244
  400MOL    C6248740   4.579   3.199   2.027 -0.1444 -0.5924  0.8555
  400MOL    C6348741   4.450   3.270   2.072 -0.4197 -0.2586 -0.1088
  400MOL    H6448742   4.557   3.110   1.968  0.6215  1.2297 -2.2729
  400MOL    H6548743   4.628   3.165   2.119  2.1562  3.8315  1.4390
  400MOL    H6648744   4.472   3.338   2.155 -0.5435  1.9083 -1.7974
  400MOL    H6748745   4.413   3.330   1.988  2.7876  1.5280 -0.3381
  400MOL    C6848746   4.342   3.170   2.124 -0.3152 -0.0225  0.0322
  400MOL    C6948747   4.207   3.238   2.130 -0.4187  0.3704  0.5923
  400MOL    H7048748   4.329   3.082   2.060 -1.4191 -0.4197  0.7920
  400MOL    H7148749   4.361   3.137   2.226 -3.4980  0.8653  0.9843
  400MOL    H7248750   4.197   3.329   2.189  0.5005  1.1583 -0.4514
  400MOL    H7348751   4.164   3.275   2.036  0.5289  0.3360  0.1419
  400MOL    C7448752   4.104   3.136   2.179  0.2272 -0.6956  0.2118
  400MOL    C7548753   3.961   3.194   2.190 -0.5667 -0.2489 -0.0511
  400MOL    H7648754   4.100   3.061   2.101 -0.1777 -1.9345  1.4023
  400MOL    H7748755   4.138   3.082   2.268 -1.0735 -1.2915  0.3588
  400MOL    H7848756   3.974   3.283   2.253 -1.0343 -0.1806 -0.0497
  400MOL    H7948757   3.932   3.232   2.092  0.0548  1.5071  0.4176
  400MOL    C8048758   3.855   3.104   2.257 -0.0394  0.3928 -0.0026
  400MOL    C8148759   3.720   3.160   2.306  0.5475  0.0416  0.0658
  400MOL    H8248760   3.836   3.019   2.190 -0.7831  0.2197  0.4257
  400MOL    H8348761   3.906   3.064   2.345  0.0052  2.1832  0.7914
  400MOL    H8448762   3.745   3.241   2.374 -1.4272  0.5836  0.1817
  400MOL    H8548763   3.664   3.204   2.223 -0.8649 -0.9253  0.4939
  400MOL    C8648764   3.643   3.051   2.383  0.3982 -0.1641 -0.5861
  400MOL    C8748765   3.502   3.099   2.410  0.1206 -0.6200  0.3434
  400MOL    H8848766   3.660   2.957   2.331  0.4347 -0.4418 -0.0815
  400MOL    H8948767   3.703   3.032   2.472 -0.0748  0.9331 -0.0250
  400MOL    H9048768   3.505   3.180   2.483 -0.7678  0.7319 -1.0864
  400MOL    H9148769   3.459   3.140   2.319  1.1818 -0.6708 -0.1909
  400MOL    C9248770   3.412   2.992   2.467 -0.0319 -0.5252 -0.8486
  400MOL    C9348771   3.279   3.052   2.512 -0.3574  0.0277  0.4711
  400MOL    H9448772   3.389   2.910   2.399 -0.6433  1.1220 -2.6988
  400MOL    H9548773   3.461   2.964   2.560  1.3385  1.4873 -0.9155
  400MOL    H9648774   3.281   3.136   2.581 -0.6996  0.0917  0.4031
  400MOL    H9748775   3.211   3.088   2.434  0.0073  0.7721  0.4979
  400MOL    C9848776   3.194   2.947   2.599 -0.0874 -0.3363  0.6750
  400MOL    C9948777   3.064   3.018   2.644  0.0860  0.0771  0.2516
  400MOL   H10048778   3.160   2.862   2.540 -1.5782  0.0818  0.9345
  400MOL   H10148779   3.251   2.917   2.687  0.5235 -1.1547  0.0115
  400MOL   H10248780   3.095   3.103   2.705  0.2640  2.1802 -2.6817
  400MOL   H10348781   3.020   3.064   2.555  1.6361  1.6330  0.2515
  400MOL   C10448782   2.959   2.923   2.708 -0.3790  0.0741  0.4009
  400MOL   C10548783   2.810   2.962   2.682  0.0568  0.3345 -0.9213
  400MOL   H10648784   2.974   2.822   2.671  0.8403 -0.2990  1.8513
  400MOL   H10748785   2.981   2.923   2.815 -3.2478  4.4793  1.1135
  400MOL   H10848786   2.798   3.070   2.669 -0.2305  0.3309 -0.6864
  400MOL   H10948787   2.781   2.927   2.584 -2.3883  1.4658 -0.6354
  400MOL   C11048788   2.722   2.908   2.792  1.0739  0.1297  0.1229
  400MOL   C11148789   2.683   2.994   2.909  0.4881  0.1932 -0.2087
  400MOL   H11248790   2.627   2.877   2.749 -0.0943  2.5906  0.8670
  400MOL   H11348791   2.758   2.811   2.826  3.6988  1.1804  0.4595
  400MOL   H11448792   2.778   3.037   2.940 -0.0897  0.9509  0.5865
  400MOL   H11548793   2.617   3.077   2.884 -0.1068 -0.5010 -0.9594
  400MOL   C11648794   2.618   2.929   3.032  0.6826 -0.4135 -0.0078
  400MOL   C11748795   2.485   2.867   2.998 -0.1961  0.0360 -0.2276
  400MOL   H11848796   2.683   2.849   3.069  1.5735 -0.9691 -2.6288
  400MOL   H11948797   2.605   2.993   3.118 -0.0992  0.7493 -0.9768
  400MOL   H12048798   2.482   2.801   2.912  1.7735  0.5666 -0.7181
  400MOL   H12148799   2.459   2.805   3.084 -1.4510 -0.7300 -1.1312
  400MOL   H12248800   2.398   2.931   2.982 -1.6679 -2.7753 -4.4324
  401MOL     C148801   4.287   0.053   0.883  0.1795  0.0726  0.0527
  401MOL     C248802   4.360   0.175   0.849  0.2709  0.3199  0.6005
  401MOL     H348803   4.359   7.667   0.859 -0.5501 -1.3565  2.3065
  401MOL     H448804   4.193   0.023   0.836  0.2368 -1.7632  1.0755
  401MOL     H548805   4.396   0.184   0.746 -0.0501  2.3739  0.6556
  401MOL     H648806   4.293   0.260   0.851 -1.1801 -0.7509 -1.0345
  401MOL     H748807   4.264   0.032   0.987  0.9505  0.0338  0.2152
  401MOL     C848808   4.482   0.199   0.936  0.7476  0.3054  0.0549
  401MOL     C948809   4.590   0.285   0.883 -0.5404 -0.4524  0.0305
  401MOL    H1048810   4.442   0.256   1.020  1.0479  1.1948 -0.3985
  401MOL    H1148811   4.516   0.102   0.969 -0.4239  0.1819  0.9312
  401MOL    H1248812   4.625   0.249   0.786  0.1762  2.6306 -0.9185
  401MOL    H1348813   4.550   0.384   0.861  1.8272  0.9569  1.7674
  401MOL    C1448814   4.714   0.295   0.977 -0.4534  0.6197  0.9257
  401MOL    C1548815   4.832   0.373   0.916 -0.1551  0.1916 -0.0499
  401MOL    H1648816   4.688   0.314   1.081 -0.5068 -0.0994  1.0472
  401MOL    H1748817   4.764   0.198   0.978  1.1447  1.4225  1.3630
  401MOL    H1848818   4.799   0.462   0.863 -0.6518  1.2571  2.0009
  401MOL    H1948819   4.876   0.415   1.006  1.3494 -2.0635  0.3081
  401MOL    C2048820   4.941   0.295   0.840 -0.5716 -0.9097  0.1645
  401MOL    C2148821   5.063   0.371   0.796  0.2279  0.0932  0.2563
  401MOL    H2248822   4.981   0.212   0.899  0.1393  0.4784  1.6794
  401MOL    H2348823   4.893   0.259   0.749  2.2245 -1.7836 -1.0217
  401MOL    H2448824   5.027   0.463   0.750  2.9740  1.0247 -0.1488
  401MOL    H2548825   5.110   0.403   0.890  1.2426 -0.0259 -0.2058
  401MOL    C2648826   5.168   0.278   0.726  0.0777  0.5140  0.1979
  401MOL    C2748827   5.145   0.262   0.576  0.6222  0.1085  0.1338
  401MOL    H2848828   5.255   0.342   0.742  0.2762  0.6364 -1.2996
  401MOL    H2948829   5.176   0.183   0.779 -3.9928  1.1510  2.1751
  401MOL    H3048830   5.060   0.196   0.555 -1.3360  2.1390  1.4276
  401MOL    H3148831   5.117   0.364   0.548  0.6392  0.3691  1.0673
  401MOL    C3248832   5.271   0.234   0.490  0.5273 -0.3445  0.5578
  401MOL    C3348833   5.237   0.193   0.340  0.2411  0.0350 -0.3932
  401MOL    H3448834   5.347   0.311   0.495 -2.4241  2.7184  0.2066
  401MOL    H3548835   5.321   0.148   0.537  0.2303 -1.6441 -1.4518
  401MOL    H3648836   5.185   0.274   0.289 -0.8627 -0.2897  0.1860
  401MOL    H3748837   5.331   0.190   0.286  0.5044 -1.5429  0.1225
  401MOL    C3848838   5.163   0.059   0.317  0.4945  0.3818 -0.1827
  401MOL    C3948839   5.246   7.633   0.375 -0.0413  0.0467  0.1820
  401MOL    H4048840   5.064   0.071   0.360  0.6814 -0.0417  0.3631
  401MOL    H4148841   5.154   0.046   0.209  2.1054 -0.8811 -0.1944
  401MOL    H4248842   5.253   7.636   0.484  2.2411 -4.3181  0.2650
  401MOL    H4348843   5.195   7.537   0.362 -1.3619  0.7458  0.0372
  401MOL    C4448844   5.389   7.623   0.308 -0.3160  0.1935  0.4688
  401MOL    C4548845   5.386   7.597   0.153  0.0755 -0.1401 -0.2467
  401MOL    H4648846   5.452   0.017   0.328  0.3349 -0.2705  0.4094
  401MOL    H4748847   5.444   7.546   0.360  0.8947  1.4627  1.1061
  401MOL    H4848848   5.315   7.520   0.122  0.1711 -0.2085 -0.2970
  401MOL    H4948849   5.365   7.687   0.095  1.0663  0.2793  0.0392
  401MOL    C5048850   5.521   7.555   0.102 -0.0029  0.3438 -0.1493
  401MOL    C5148851   5.563   7.408   0.110 -0.0515 -0.1483 -0.8398
  401MOL    H5248852   5.516   7.566   7.686 -1.1539  1.2167 -0.0111
  401MOL    H5348853   5.597   7.619   0.147  0.9313  0.5689 -2.0191
  401MOL    H5448854   5.562   7.389   0.217 -0.3780 -1.5184 -1.0786
  401MOL    H5548855   5.487   7.343   0.067 -1.7460  1.3023 -0.0830
  401MOL    C5648856   5.700   7.386   0.051 -0.2335 -0.0085  0.3064
  401MOL    C5748857   5.754   7.253   0.090 -0.0398  0.4846  0.4112
  401MOL    H5848858   5.696   7.388   7.635  2.8058 -1.3842  0.0990
  401MOL    H5948859   5.764   7.465   0.090  0.7982 -1.6178  1.9817
  401MOL    H6048860   5.862   7.252   0.073  0.0628 -0.3353  1.0686
  401MOL    H6148861   5.755   7.237   0.198  0.3879 -0.1698  0.3152
  401MOL    C6248862   5.689   7.139   0.010  0.1048 -0.4269 -0.0133
  401MOL    C6348863   5.689   7.007   0.080 -0.2859  0.0291 -0.5619
  401MOL    H6448864   5.584   7.163   7.686 -0.2789 -2.1116 -0.0952
  401MOL    H6548865   5.742   7.137   7.607 -1.6443 -0.1963 -1.0086
  401MOL    H6648866   5.789   6.976   0.110  0.0344 -0.0123 -1.6557
  401MOL    H6748867   5.643   7.026   0.177  0.8941  2.3369 -0.4264
  401MOL    C6848868   5.609   6.897   0.004 -0.0120  0.1613 -0.4100
  401MOL    C6948869   5.636   6.765   0.066  0.0507  0.0517  1.0553
  401MOL    H7048870   5.508   6.933   0.024 -0.7190 -2.0185  0.1099
  401MOL    H7148871   5.625   6.905   7.588  2.2038 -0.0227 -0.1284
  401MOL    H7248872   5.742   6.747   0.052  0.2131  1.5161  0.3426
  401MOL    H7348873   5.618   6.771   0.174 -0.7665 -0.0337  0.9267
  401MOL    C7448874   5.558   6.653   7.686 -0.2841  0.0713 -0.4782
  401MOL    C7548875   5.567   6.511   0.046 -0.5860 -0.5734 -0.7393
  401MOL    H7648876   5.452   6.678   7.690 -0.1812  0.7370 -1.7354
  401MOL    H7748877   5.594   6.647   7.584  1.8985  0.3944  0.2526
  401MOL    H7848878   5.572   6.503   0.154 -1.4372  3.1126 -0.3688
  401MOL    H7948879   5.495   6.442   0.003 -0.4636 -0.2823 -1.4214
  401MOL    C8048880   5.708   6.446   0.006 -0.2611  0.4484  0.4024
  401MOL    C8148881   5.724   6.294   0.037  0.1492 -0.5249 -0.3418
  401MOL    H8248882   5.721   6.461   7.591 -1.0073 -0.4174  0.1801
  401MOL    H8348883   5.785   6.507   0.053  0.1065  1.5724 -1.6091
  401MOL    H8448884   5.703   6.272   0.142  0.6409 -0.8598 -0.3084
  401MOL    H8548885   5.642   6.251   7.672  0.8951  0.3970 -2.1290
  401MOL    C8648886   5.857   6.229   7.680 -0.1331 -0.2747 -0.1817
  401MOL    C8748887   5.881   6.087   0.048  0.6381  0.5104  0.4875
  401MOL    H8848888   5.855   6.227   7.571  1.7097  1.4702 -0.2741
  401MOL    H8948889   5.948   6.287   0.005  0.0762 -0.8695  0.7305
  401MOL    H9048890   5.894   6.088   0.156  1.0441  0.4920  0.4397
  401MOL    H9148891   5.786   6.035   0.034  0.2144  1.4010 -0.0885
  401MOL    C9248892   6.006   6.025   7.672  0.3043  0.1828 -0.3619
  401MOL    C9348893   6.028   5.875   0.011 -0.7276  0.6534 -0.0251
  401MOL    H9448894   5.991   6.035   7.565 -0.6263  4.5562  0.1130
  401MOL    H9548895   6.098   6.075   0.011  1.0441 -1.4801  0.2396
  401MOL    H9648896   5.961   5.803   7.656 -0.4605 -0.6453  1.5346
  401MOL    H9748897   6.119   5.845   7.651 -1.3719  0.8484 -1.2945
  401MOL    C9848898   6.054   5.840   0.153  0.0949 -0.4021 -0.8664
  401MOL    C9948899   6.092   5.695   0.179 -1.0127  1.0234  0.3540
  401MOL   H10048900   6.122   5.905   0.208 -0.7193 -0.6345  0.4586
  401MOL   H10148901   5.966   5.871   0.210  1.7031  0.3340  1.2722
  401MOL   H10248902   6.001   5.645   0.212 -1.4514  0.7254 -1.3025
  401MOL   H10348903   6.120   5.642   0.088 -3.0278  2.3547 -1.0823
  401MOL   C10448904   6.209   5.684   0.280 -0.2722 -0.0497 -0.5321
  401MOL   C10548905   6.216   5.547   0.345  0.3026  0.1714  0.0152
  401MOL   H10648906   6.304   5.719   0.239 -0.2841 -1.6945 -1.9892
  401MOL   H10748907   6.192   5.746   0.368  2.5879  1.0609 -0.7147
  401MOL   H10848908   6.117   5.516   0.378 -0.1291 -1.6659 -2.8005
  401MOL   H10948909   6.233   5.467   0.273  1.5530  0.3041  0.1544
  401MOL   C11048910   6.328   5.536   0.449 -1.2931 -0.7562  0.0437
  401MOL   C11148911   6.348   5.396   0.517 -0.1150  0.1852 -0.3922
  401MOL   H11248912   6.418   5.569   0.396 -0.4078  1.7900  2.9647
  401MOL   H11348913   6.306   5.611   0.525  3.7317  0.5847  0.4060
  401MOL   H11448914   6.366   5.324   0.438  0.4107  0.1512 -0.2436
  401MOL   H11548915   6.437   5.410   0.578  0.9904 -0.3122 -1.8562
  401MOL   C11648916   6.229   5.348   0.603 -0.3477 -0.1521 -0.0467
  401MOL   C11748917   6.232   5.213   0.668 -0.1116  0.4052  0.7196
  401MOL   H11848918   6.227   5.418   0.687  0.2462 -0.6985  0.4174
  401MOL   H11948919   6.141   5.357   0.538 -0.8814 -2.5361  0.2930
  401MOL   H12048920   6.243   5.139   0.588  1.7863  1.1980  0.2080
  401MOL   H12148921   6.314   5.212   0.740 -0.6418  1.1238  1.3347
  401MOL   H12248922   6.149   5.201   0.737  1.1478 -2.5155  1.8096
  402MOL     C148923   0.369   6.106   4.286 -0.2709  0.5604  1.0801
  402MOL     C248924   0.321   6.118   4.425  0.1801 -0.7806 -0.2301
  402MOL     H348925   0.421   6.010   4.288 -0.5554  0.3291 -1.3560
  402MOL     H448926   0.435   6.188   4.257  0.7894 -1.0956 -1.3515
  402MOL     H548927   0.403   6.076   4.484  3.1278  2.3864 -1.8940
  402MOL     H648928   0.312   6.224   4.446 -1.6283 -0.9019 -0.3654
  402MOL     H748929   0.292   6.098   4.210 -0.0385 -0.8718  0.9777
  402MOL     C848930   0.181   6.052   4.456 -0.2022  0.0908 -0.4719
  402MOL     C948931   0.120   6.102   4.589 -0.0428 -0.3409  0.3398
  402MOL    H1048932   0.112   6.091   4.381 -1.5728  1.5389  1.4712
  402MOL    H1148933   0.195   5.945   4.444 -1.2737  0.1533 -2.4051
  402MOL    H1248934   0.182   6.070   4.673  1.0569 -1.6975 -0.9649
  402MOL    H1348935   0.111   6.210   4.580 -1.3584 -0.6511 -2.7383
  402MOL    C1448936   7.665   6.053   4.607  0.6597  0.0813 -0.0308
  402MOL    C1548937   7.565   6.129   4.513  0.4859  0.2040 -0.2889
  402MOL    H1648938   7.657   5.944   4.600 -1.2643  0.1581  0.4796
  402MOL    H1748939   7.650   6.074   4.713 -0.6867 -0.1112 -0.1691
  402MOL    H1848940   7.568   6.236   4.533 -1.5144  0.6219 -2.0748
  402MOL    H1948941   7.601   6.114   4.411 -0.0791 -0.5583 -0.3835
  402MOL    C2048942   7.427   6.064   4.527 -0.2238 -0.2579 -0.3607
  402MOL    C2148943   7.312   6.149   4.483  0.2599  0.5729  0.8401
  402MOL    H2248944   7.430   5.969   4.473  0.9827 -1.2143  1.3520
  402MOL    H2348945   7.414   6.031   4.630 -0.6330 -0.2244 -0.3993
  402MOL    H2448946   7.324   6.251   4.520 -0.0017  1.2140 -0.8052
  402MOL    H2548947   7.321   6.155   4.375 -0.5187  1.5241  0.8158
  402MOL    C2648948   7.182   6.080   4.525 -0.0158  0.3541  0.1390
  402MOL    C2748949   7.051   6.142   4.474 -0.0109 -0.0684  0.2767
  402MOL    H2848950   7.179   5.972   4.514 -0.5931  0.5732 -1.8777
  402MOL    H2948951   7.170   6.099   4.632 -1.8755  2.9177 -0.4566
  402MOL    H3048952   7.035   6.246   4.500  0.1209  0.5952 -2.1273
  402MOL    H3148953   7.049   6.147   4.365  1.8412  2.7264  0.3266
  402MOL    C3248954   6.920   6.056   4.495 -0.3416 -0.3939 -0.5629
  402MOL    C3348955   6.794   6.122   4.448  0.3083 -0.6940  1.1262
  402MOL    H3448956   6.929   5.957   4.451 -0.7026 -0.9574  0.6085
  402MOL    H3548957   6.912   6.028   4.600  0.9830  2.6399  0.4055
  402MOL    H3648958   6.711   6.060   4.483 -0.8818  0.1646 -0.1385
  402MOL    H3748959   6.779   6.220   4.493  1.5107 -0.3977  0.8961
  402MOL    C3848960   6.787   6.136   4.292 -0.2803 -0.0105  0.0255
  402MOL    C3948961   6.643   6.159   4.242  0.1231  0.0037  0.6107
  402MOL    H4048962   6.851   6.220   4.265 -2.1782  1.0333 -1.3155
  402MOL    H4148963   6.833   6.046   4.251  0.9922  0.7324 -0.2245
  402MOL    H4248964   6.587   6.075   4.284  0.7504 -0.8145 -0.1839
  402MOL    H4348965   6.611   6.251   4.292 -0.6468  0.3701 -0.5407
  402MOL    C4448966   6.626   6.178   4.090  0.5042  0.1861 -0.1587
  402MOL    C4548967   6.711   6.284   4.032  0.1068  0.1470 -0.1336
  402MOL    H4648968   6.653   6.083   4.043 -2.6338 -0.5613 -0.5746
  402MOL    H4748969   6.522   6.189   4.061  0.4667  0.5540  0.1174
  402MOL    H4848970   6.699   6.367   4.101  0.9120 -0.2058  0.4358
  402MOL    H4948971   6.813   6.247   4.019  1.2684  3.1864 -0.1653
  402MOL    C5048972   6.665   6.353   3.895 -0.3077 -0.7442 -0.5163
  402MOL    C5148973   6.647   6.263   3.774  0.3000  0.0600 -0.2480
  402MOL    H5248974   6.572   6.404   3.918  0.3005 -0.6604  1.8856
  402MOL    H5348975   6.733   6.433   3.868 -1.1253 -0.6981 -2.5499
  402MOL    H5448976   6.602   6.171   3.809  1.4367 -0.7763 -0.9650
  402MOL    H5548977   6.564   6.311   3.724 -2.0093 -1.5614  1.8978
  402MOL    C5648978   6.771   6.256   3.680 -0.4702  1.1625 -0.0137
  402MOL    C5748979   6.742   6.174   3.550  0.1198 -0.0914  0.3125
  402MOL    H5848980   6.817   6.352   3.655 -1.3843  0.8231 -3.1883
  402MOL    H5948981   6.847   6.201   3.734 -0.4813 -1.5444 -2.6604
  402MOL    H6048982   6.678   6.087   3.568 -2.5650  2.1642  2.0036
  402MOL    H6148983   6.688   6.244   3.485 -0.6836 -1.5741 -0.6642
  402MOL    C6248984   6.866   6.157   3.471  0.0476 -0.0463 -0.6035
  402MOL    C6348985   6.856   6.072   3.349 -0.1444  0.2759  0.0565
  402MOL    H6448986   6.900   6.257   3.444  0.5969 -0.3534 -1.0603
  402MOL    H6548987   6.939   6.111   3.538 -0.8878  0.3660  0.7231
  402MOL    H6648988   6.767   6.087   3.288  0.4173 -0.6695 -1.0243
  402MOL    H6748989   6.934   6.099   3.277 -0.0152  1.6412  0.6911
  402MOL    C6848990   6.856   5.921   3.394  0.8379  0.3607 -0.5180
  402MOL    C6948991   6.841   5.814   3.284 -0.5778  1.0455  0.1141
  402MOL    H7048992   6.949   5.913   3.450 -0.9767 -1.6162  2.4214
  402MOL    H7148993   6.773   5.902   3.463  0.8984 -0.0955 -0.5702
  402MOL    H7248994   6.754   5.836   3.222  0.0021  0.7000 -0.8462
  402MOL    H7348995   6.932   5.817   3.224 -0.3823  2.2691  0.4757
  402MOL    C7448996   6.835   5.677   3.343  0.4415 -0.2081  0.1571
  402MOL    C7548997   6.809   5.579   3.224  0.4914  0.3865 -0.4658
  402MOL    H7648998   6.927   5.647   3.394  0.8214  0.2741 -0.2460
  402MOL    H7748999   6.750   5.676   3.412  0.0521  0.7098 -0.3086
  402MOL    H7849000   6.709   5.606   3.191  0.3158 -0.0095 -0.2614
  402MOL    H7949001   6.878   5.575   3.140 -0.3030  1.9530 -1.2202
  402MOL    C8049002   6.803   5.431   3.279 -0.2408 -0.6510 -0.5297
  402MOL    C8149003   6.759   5.334   3.170 -0.2321  0.1659  0.2981
  402MOL    H8249004   6.893   5.394   3.328 -0.7329 -3.5716 -1.6995
  402MOL    H8349005   6.737   5.427   3.365  0.2989  0.0814 -0.0742
  402MOL    H8449006   6.674   5.367   3.112  1.8389 -0.2799 -3.1183
  402MOL    H8549007   6.839   5.341   3.096  0.0426  2.3348  0.7680
  402MOL    C8649008   6.738   5.190   3.230 -0.5666  0.4628 -0.5605
  402MOL    C8749009   6.701   5.081   3.129 -0.2232  0.8270 -0.2889
  402MOL    H8849010   6.827   5.164   3.289  0.1622  0.9674 -1.4175
  402MOL    H8949011   6.658   5.188   3.303 -1.5337 -0.1473 -1.6234
  402MOL    H9049012   6.604   5.085   3.079  0.4977 -1.0794 -1.9248
  402MOL    H9149013   6.779   5.089   3.053 -0.2571 -0.8047 -0.5065
  402MOL    C9249014   6.709   4.936   3.200 -0.2044 -0.3671 -0.4415
  402MOL    C9349015   6.658   4.826   3.109 -0.5765 -0.7591 -0.2185
  402MOL    H9449016   6.813   4.913   3.224 -0.3796 -0.3822  0.2904
  402MOL    H9549017   6.654   4.936   3.294 -0.8142 -1.5682 -0.7847
  402MOL    H9649018   6.553   4.830   3.079 -0.8633  1.8415  1.0256
  402MOL    H9749019   6.731   4.831   3.028  0.5073 -0.6105  0.7575
  402MOL    C9849020   6.669   4.695   3.169  0.5866  0.1661 -1.1617
  402MOL    C9949021   6.646   4.577   3.070  0.2857  0.3810  0.9959
  402MOL   H10049022   6.770   4.680   3.209  0.2029 -0.3526 -0.3862
  402MOL   H10149023   6.600   4.687   3.253  0.5653  1.5159 -1.0399
  402MOL   H10249024   6.556   4.594   3.011  1.0096  0.3600 -0.1274
  402MOL   H10349025   6.737   4.569   3.011  0.1972  1.6733  0.6657
  402MOL   C10449026   6.624   4.445   3.144  0.0398 -0.3466  0.1642
  402MOL   C10549027   6.602   4.328   3.045  0.4985 -0.1173 -0.6538
  402MOL   H10649028   6.715   4.438   3.204  1.2111  0.6819 -1.4814
  402MOL   H10749029   6.540   4.445   3.213  0.4263 -0.4839  0.6440
  402MOL   H10849030   6.517   4.359   2.986 -0.3308  1.7252  1.4276
  402MOL   H10949031   6.688   4.315   2.980  0.5517 -0.3620 -0.5371
  402MOL   C11049032   6.562   4.199   3.112 -0.2461 -0.4685  0.8779
  402MOL   C11149033   6.517   4.088   3.006  0.4673 -0.2730 -1.1203
  402MOL   H11249034   6.651   4.172   3.170  0.7663 -1.1614 -0.9751
  402MOL   H11349035   6.483   4.205   3.187 -2.2592  0.5606 -1.2759
  402MOL   H11449036   6.414   4.122   2.990 -0.4383 -0.5300  3.3912
  402MOL   H11549037   6.584   4.104   2.922  0.0959  0.4970 -1.2810
  402MOL   C11649038   6.512   3.943   3.065 -0.3151 -0.2001 -0.1643
  402MOL   C11749039   6.436   3.847   2.972  0.1345  0.0228  0.7853
  402MOL   H11849040   6.611   3.901   3.082 -0.9065 -1.9887 -0.9976
  402MOL   H11949041   6.459   3.940   3.160  1.5187 -1.9693  0.8255
  402MOL   H12049042   6.477   3.848   2.871  0.4814  0.3603  0.9283
  402MOL   H12149043   6.455   3.742   2.993 -0.0567 -0.3371 -0.7530
  402MOL   H12249044   6.329   3.870   2.970 -0.1274 -1.2354 -0.0695
  403MOL     C149045   3.013   1.746   3.976  0.2431  0.0657  0.1974
  403MOL     C249046   3.050   1.764   4.120  0.0711  0.3033 -0.8354
  403MOL     H349047   3.086   1.684   3.926 -1.0843 -0.5237 -1.0336
  403MOL     H449048   3.003   1.840   3.922 -2.1318  0.3696  1.0981
  403MOL     H549049   2.963   1.789   4.182  0.7919 -1.5657  0.9746
  403MOL     H649050   3.075   1.663   4.152 -0.8502 -0.3306 -2.0638
  403MOL     H749051   2.916   1.699   3.967  0.8381 -1.1050 -0.1074
  403MOL     C849052   3.167   1.860   4.155 -0.5946 -0.7069  0.3624
  403MOL     C949053   3.298   1.817   4.092 -0.4618  0.4055  0.0763
  403MOL    H1049054   3.140   1.952   4.103  1.1434 -1.1828 -1.4541
  403MOL    H1149055   3.164   1.877   4.262 -1.0100  3.3601 -0.2190
  403MOL    H1249056   3.284   1.824   3.984  1.9583  1.3436 -0.2301
  403MOL    H1349057   3.378   1.891   4.102  0.1398 -0.2131 -0.0910
  403MOL    C1449058   3.348   1.680   4.140 -0.6822  0.3972  0.2156
  403MOL    C1549059   3.465   1.628   4.064 -0.5452  0.5093  0.3424
  403MOL    H1649060   3.380   1.691   4.244 -1.0695 -1.1386  0.5157
  403MOL    H1749061   3.269   1.604   4.150 -2.4999  2.1481 -0.6149
  403MOL    H1849062   3.434   1.645   3.961  1.4822 -1.5722 -0.6877
  403MOL    H1949063   3.563   1.676   4.068  0.3591 -1.3270  1.0009
  403MOL    C2049064   3.496   1.481   4.099 -0.4343  0.2627 -0.1501
  403MOL    C2149065   3.591   1.410   3.999  0.4572 -0.0976  0.6953
  403MOL    H2249066   3.535   1.476   4.200  1.0196 -0.5522 -0.7264
  403MOL    H2349067   3.411   1.416   4.115  1.5183 -2.4370 -0.2813
  403MOL    H2449068   3.538   1.415   3.903  0.1245 -2.0518  0.7524
  403MOL    H2549069   3.686   1.462   4.012  1.2682 -0.6390 -2.5855
  403MOL    C2649070   3.611   1.266   4.029 -0.3455  0.5600 -0.0273
  403MOL    C2749071   3.727   1.211   3.953 -0.5028  0.3983  0.2708
  403MOL    H2849072   3.627   1.268   4.137 -3.9125 -0.6231  0.5848
  403MOL    H2949073   3.517   1.217   4.004  1.2818 -2.1645 -1.1091
  403MOL    H3049074   3.730   1.239   3.848 -0.2930 -1.0443 -0.1071
  403MOL    H3149075   3.813   1.246   4.011  0.2108 -0.8757 -0.0079
  403MOL    C3249076   3.746   1.057   3.969 -0.7067  0.6178  0.0722
  403MOL    C3349077   3.840   0.987   3.871  0.6089  0.3284  0.1579
  403MOL    H3449078   3.766   1.034   4.074 -3.6039 -3.6622 -0.1388
  403MOL    H3549079   3.646   1.015   3.955 -1.4134  2.0788  0.6707
  403MOL    H3649080   3.821   1.018   3.769  0.9599  1.4415  0.4194
  403MOL    H3749081   3.939   1.031   3.883  1.0606 -0.8502  0.8637
  403MOL    C3849082   3.846   0.838   3.885 -0.5172  0.8449  0.3823
  403MOL    C3949083   3.730   0.773   3.799  0.1348  0.0817 -0.4532
  403MOL    H4049084   3.938   0.804   3.839 -0.3746 -0.4465  1.6060
  403MOL    H4149085   3.843   0.791   3.983 -2.0706 -0.0904 -0.0924
  403MOL    H4249086   3.643   0.796   3.862  1.0644  1.0079  0.5189
  403MOL    H4349087   3.705   0.821   3.704  1.8017  0.0776 -0.9006
  403MOL    C4449088   3.742   0.621   3.780  0.4019  0.3775  0.2730
  403MOL    C4549089   3.619   0.553   3.711 -0.5264 -0.4961 -0.6801
  403MOL    H4649090   3.834   0.605   3.724  0.8321  2.1909  0.4322
  403MOL    H4749091   3.757   0.576   3.878  0.2521 -1.8976 -0.7092
  403MOL    H4849092   3.638   0.446   3.716 -2.0334 -0.7526  0.0870
  403MOL    H4949093   3.531   0.569   3.773 -0.9467  0.5202 -1.5272
  403MOL    C5049094   3.583   0.598   3.574 -0.5592 -0.6844  0.4220
  403MOL    C5149095   3.511   0.501   3.483 -0.9309 -0.2662 -0.0930
  403MOL    H5249096   3.526   0.690   3.588  0.2800 -0.1694  0.5135
  403MOL    H5349097   3.676   0.621   3.522 -0.2578 -1.2816  0.6965
  403MOL    H5449098   3.563   0.406   3.472  1.8246  1.2977 -0.9712
  403MOL    H5549099   3.419   0.479   3.537 -0.4167  0.1800  0.9852
  403MOL    C5649100   3.477   0.555   3.347 -0.2353 -0.3023  0.0707
  403MOL    C5749101   3.413   0.451   3.262  0.6020  0.4537  0.7496
  403MOL    H5849102   3.407   0.639   3.347 -0.9374 -0.8744 -0.9038
  403MOL    H5949103   3.568   0.588   3.297 -0.1674 -0.8561 -0.1744
  403MOL    H6049104   3.465   0.355   3.272  0.4538  0.3063  0.1167
  403MOL    H6149105   3.312   0.424   3.292  0.2943 -0.9048 -1.4148
  403MOL    C6249106   3.387   0.493   3.120  0.2509 -0.9614 -0.2444
  403MOL    C6349107   3.338   0.382   3.030  0.2024 -0.1902  0.3045
  403MOL    H6449108   3.309   0.567   3.103 -0.4487 -1.0657  2.2617
  403MOL    H6549109   3.480   0.535   3.080  0.1997  1.2107  1.7980
  403MOL    H6649110   3.409   0.300   3.030 -0.5903 -0.8837 -0.1225
  403MOL    H6749111   3.249   0.340   3.076  0.6235  0.7153  1.9669
  403MOL    C6849112   3.308   0.417   2.879  0.2298  0.6200 -0.4652
  403MOL    C6949113   3.433   0.462   2.801 -0.2271  0.2948  0.3672
  403MOL    H7049114   3.265   0.327   2.835 -0.4132  0.9751 -0.5729
  403MOL    H7149115   3.233   0.494   2.857 -0.7771 -0.1001  0.3609
  403MOL    H7249116   3.489   0.544   2.846 -0.7259  0.0471  1.4466
  403MOL    H7349117   3.511   0.386   2.798 -0.6830 -0.2029  1.0985
  403MOL    C7449118   3.398   0.483   2.654 -0.0891  0.1608  0.4035
  403MOL    C7549119   3.513   0.547   2.586 -0.2809  0.0796  0.5456
  403MOL    H7649120   3.364   0.389   2.611  1.9648 -0.7071  0.6556
  403MOL    H7749121   3.316   0.553   2.637  0.6347  0.7806 -0.6124
  403MOL    H7849122   3.531   0.653   2.607  0.7585 -0.3810  2.0093
  403MOL    H7949123   3.601   0.492   2.617 -0.7138 -0.3857  0.9448
  403MOL    C8049124   3.510   0.531   2.436 -0.1414  0.7040 -0.4138
  403MOL    C8149125   3.641   0.589   2.362  0.1265  0.6557  0.3917
  403MOL    H8249126   3.500   0.423   2.424 -0.1040  0.6024  0.4439
  403MOL    H8349127   3.422   0.579   2.393 -1.4380 -0.3914  0.9884
  403MOL    H8449128   3.649   0.694   2.389  0.3626  0.8772 -0.5285
  403MOL    H8549129   3.732   0.542   2.401  1.8497  2.0755 -1.7629
  403MOL    C8649130   3.631   0.562   2.217 -0.3375 -0.1178  0.1582
  403MOL    C8749131   3.751   0.605   2.137  0.3678  0.0362  0.1000
  403MOL    H8849132   3.618   0.454   2.205  1.7582 -0.5918  1.8338
  403MOL    H8949133   3.539   0.604   2.176 -0.3510 -0.1422  0.1639
  403MOL    H9049134   3.754   0.713   2.153  1.5080  0.2958 -1.6901
  403MOL    H9149135   3.843   0.562   2.177 -1.1055 -1.3596  2.0798
  403MOL    C9249136   3.739   0.585   1.983  0.4501  0.1706 -0.0935
  403MOL    C9349137   3.760   0.437   1.945  0.3839 -0.5325 -0.3344
  403MOL    H9449138   3.644   0.623   1.946 -1.4434 -2.9242  1.3941
  403MOL    H9549139   3.825   0.629   1.933 -0.7837 -0.0987 -2.5136
  403MOL    H9649140   3.724   0.375   2.028 -1.3861  0.6600 -0.1766
  403MOL    H9749141   3.696   0.405   1.863 -0.0926 -0.9091  0.1752
  403MOL    C9849142   3.906   0.416   1.912  0.9495 -0.3533 -0.0090
  403MOL    C9949143   3.938   0.262   1.904 -0.8576  0.6965 -0.1364
  403MOL   H10049144   3.915   0.463   1.815 -0.9825  2.7090  1.2351
  403MOL   H10149145   3.981   0.454   1.982  0.2241  1.0894 -0.0206
  403MOL   H10249146   3.926   0.221   2.004 -0.1838  0.2780 -0.2239
  403MOL   H10349147   3.866   0.207   1.843  0.1700 -0.5202 -0.2623
  403MOL   C10449148   4.081   0.212   1.856 -0.2030 -0.2467 -0.3215
  403MOL   C10549149   4.097   0.062   1.832  0.3406  0.1396 -0.0230
  403MOL   H10649150   4.113   0.278   1.775 -0.4973  0.3856  0.0691
  403MOL   H10749151   4.146   0.231   1.942  0.2866 -1.4506 -0.4235
  403MOL   H10849152   4.097   0.020   1.933 -1.2067  1.0108  0.3513
  403MOL   H10949153   4.007   0.034   1.778  0.7183  1.9886 -1.6362
  403MOL   C11049154   4.221   0.038   1.747 -0.2663  0.0302 -0.1853
  403MOL   C11149155   4.182   0.049   1.602 -0.0174 -0.6040  0.6054
  403MOL   H11249156   4.309   0.093   1.781  0.4432 -2.2658  1.8191
  403MOL   H11349157   4.252   7.627   1.768 -1.4437 -0.1813  0.6020
  403MOL   H11449158   4.128   7.655   1.561  1.3974 -0.1818 -2.3099
  403MOL   H11549159   4.112   0.130   1.578 -0.7432 -1.3830  0.0786
  403MOL   C11649160   4.303   0.079   1.520  0.0929  0.4319  0.1573
  403MOL   C11749161   4.279   0.069   1.368 -0.6110  0.3375  0.1422
  403MOL   H11849162   4.334   0.178   1.554  0.4718 -0.3545  2.1683
  403MOL   H11949163   4.377   0.007   1.554 -0.3524 -1.2218 -2.2590
  403MOL   H12049164   4.366   0.111   1.318  1.8674 -3.3741  1.1509
  403MOL   H12149165   4.276   7.655   1.342  2.3629  0.3266 -0.2505
  403MOL   H12249166   4.182   0.103   1.331 -0.3217 -0.4634 -1.4087
  404MOL     C149167   1.385   4.903   0.690 -0.8920  0.1882  0.1951
  404MOL     C249168   1.251   4.941   0.763 -0.7298  0.2881 -0.2036
  404MOL     H349169   1.438   4.823   0.741 -1.0274 -0.5668 -0.8259
  404MOL     H449170   1.457   4.986   0.693 -0.1317 -0.5049  1.4503
  404MOL     H549171   1.196   5.008   0.697  1.8300  0.0879 -2.6002
  404MOL     H649172   1.174   4.864   0.765 -1.5775  1.1398  0.0304
  404MOL     H749173   1.378   4.866   0.587 -2.6983 -1.3057  0.8384
  404MOL     C849174   1.273   4.995   0.909  0.3191  0.0060 -0.5099
  404MOL     C949175   1.141   5.029   0.989  0.0015 -0.2875  0.3647
  404MOL    H1049176   1.340   4.924   0.958 -0.1007 -0.1112 -0.0958
  404MOL    H1149177   1.342   5.078   0.904 -0.9259  1.1192  0.3737
  404MOL    H1249178   1.099   5.114   0.935  1.2918  0.6435  0.8180
  404MOL    H1349179   1.067   4.951   0.972 -2.3124  2.0089 -0.3753
  404MOL    C1449180   1.176   5.062   1.137  0.9816 -0.0629  0.4146
  404MOL    C1549181   1.186   4.952   1.240 -0.7387 -0.7029 -0.2344
  404MOL    H1649182   1.257   5.134   1.132  0.6324  0.3400  0.5150
  404MOL    H1749183   1.100   5.129   1.179  1.2529  1.5042 -1.5235
  404MOL    H1849184   1.083   4.928   1.267  0.0317  0.3172  3.8394
  404MOL    H1949185   1.235   4.865   1.196 -1.9973 -2.1736  1.1939
  404MOL    C2049186   1.251   5.006   1.370  0.2261 -0.0617 -0.4321
  404MOL    C2149187   1.337   4.895   1.432  0.5246 -0.4884 -0.3115
  404MOL    H2249188   1.318   5.090   1.348  0.7260 -0.4388 -0.3443
  404MOL    H2349189   1.184   5.042   1.448  1.2554 -1.8194  1.3127
  404MOL    H2449190   1.271   4.823   1.480  1.2340  0.6507  2.4982
  404MOL    H2549191   1.401   4.840   1.363 -0.5802 -2.5380  0.2562
  404MOL    C2649192   1.419   4.956   1.546  0.1585  0.1791 -0.0991
  404MOL    C2749193   1.485   4.844   1.629  0.6681  0.0387 -0.2031
  404MOL    H2849194   1.497   5.022   1.508 -0.8241  1.9130  0.8592
  404MOL    H2949195   1.360   5.020   1.611 -0.0997  1.0492 -1.1749
  404MOL    H3049196   1.404   4.778   1.657 -0.1419  0.1343 -2.2123
  404MOL    H3149197   1.540   4.780   1.560  3.0871 -1.0527  2.6336
  404MOL    C3249198   1.563   4.884   1.749 -0.1113 -0.7646  0.1461
  404MOL    C3349199   1.640   4.772   1.814  0.5016 -0.4825 -1.0872
  404MOL    H3449200   1.620   4.974   1.724 -0.4228  0.4560  3.6130
  404MOL    H3549201   1.496   4.924   1.824  0.3304  0.3207 -0.0288
  404MOL    H3649202   1.568   4.693   1.834  0.3167  0.3872  1.8557
  404MOL    H3749203   1.702   4.725   1.737  0.6159 -1.0274 -0.6650
  404MOL    C3849204   1.715   4.818   1.934  0.3093 -0.0732 -0.1779
  404MOL    C3949205   1.824   4.722   1.978  0.4388 -0.5945  0.0043
  404MOL    H4049206   1.750   4.922   1.939 -1.4936  0.4753  2.0838
  404MOL    H4149207   1.644   4.817   2.017  0.5279  0.6433  0.0295
  404MOL    H4249208   1.770   4.627   1.971  0.5504 -0.5622 -1.6247
  404MOL    H4349209   1.893   4.725   1.894 -0.4373  1.1074 -0.6817
  404MOL    C4449210   1.884   4.735   2.119 -0.3628 -0.3981 -0.0128
  404MOL    C4549211   2.023   4.678   2.120 -1.0953 -0.2284 -0.5497
  404MOL    H4649212   1.888   4.844   2.133  2.1956 -0.4653  0.1228
  404MOL    H4749213   1.820   4.690   2.194 -1.5854  0.6970 -0.3908
  404MOL    H4849214   2.092   4.736   2.059  0.0438 -0.7172  0.2348
  404MOL    H4949215   2.058   4.695   2.222  0.9030  1.7783 -1.5366
  404MOL    C5049216   2.040   4.529   2.069  0.1748  0.4699 -0.4178
  404MOL    C5149217   2.167   4.460   2.111 -0.4198  0.0048  0.0372
  404MOL    H5249218   1.966   4.459   2.110  0.7484 -0.0803 -0.3163
  404MOL    H5349219   2.023   4.541   1.962 -0.9684 -0.2879 -0.3285
  404MOL    H5449220   2.255   4.520   2.088 -0.6972  0.6949  0.7311
  404MOL    H5549221   2.161   4.463   2.220  0.6215 -0.8414  0.1187
  404MOL    C5649222   2.183   4.323   2.059 -0.0848  0.4225 -0.2219
  404MOL    C5749223   2.283   4.222   2.125  0.1894  0.0925  0.2892
  404MOL    H5849224   2.092   4.265   2.051  0.8177 -0.8379 -1.7275
  404MOL    H5949225   2.208   4.332   1.953  3.2265 -2.6525  0.1929
  404MOL    H6049226   2.385   4.260   2.118  0.7602 -1.5929 -0.6698
  404MOL    H6149227   2.261   4.217   2.232  0.9642  2.7564  0.6068
  404MOL    C6249228   2.282   4.079   2.066  0.5600 -0.1298  0.5115
  404MOL    C6349229   2.151   3.993   2.082 -0.2474 -0.8147 -0.2584
  404MOL    H6449230   2.306   4.094   1.961 -0.0905  0.2466  0.4162
  404MOL    H6549231   2.372   4.032   2.106  0.6823  0.0712  0.4729
  404MOL    H6649232   2.083   4.044   2.013  0.2427  0.9778  0.5435
  404MOL    H6749233   2.175   3.893   2.046  0.3805 -0.5360 -0.6384
  404MOL    C6849234   2.098   3.985   2.224 -0.2733 -0.7331 -0.2741
  404MOL    C6949235   1.990   3.878   2.242  0.0878 -0.1168 -0.5404
  404MOL    H7049236   2.184   3.954   2.284  1.2365  0.3676 -1.8238
  404MOL    H7149237   2.064   4.081   2.262  2.7322 -0.7895  2.7887
  404MOL    H7249238   1.916   3.886   2.163 -1.3430  0.2410  0.7999
  404MOL    H7349239   2.034   3.780   2.257  1.2378  0.7136  1.9319
  404MOL    C7449240   1.923   3.905   2.377  0.8394  0.8741 -0.1446
  404MOL    C7549241   1.815   3.810   2.420  0.2888  0.0803  0.3933
  404MOL    H7649242   2.007   3.910   2.446  1.2070  0.8078 -0.5836
  404MOL    H7749243   1.883   4.007   2.375  0.7184  0.8300  0.0342
  404MOL    H7849244   1.728   3.819   2.354  2.2820  0.8407 -2.2469
  404MOL    H7949245   1.858   3.711   2.405  1.1952  0.1072  2.7231
  404MOL    C8049246   1.768   3.834   2.561  0.3376  0.5868  0.0347
  404MOL    C8149247   1.664   3.725   2.601  0.3871 -0.3766  0.3935
  404MOL    H8249248   1.847   3.836   2.636 -1.3186 -0.2949  1.8634
  404MOL    H8349249   1.714   3.929   2.563 -1.5216 -0.4351  0.1885
  404MOL    H8449250   1.596   3.775   2.670  0.6195 -1.5533  1.4923
  404MOL    H8549251   1.611   3.690   2.512  0.0659  0.0013  0.4311
  404MOL    C8649252   1.725   3.598   2.655  0.1020  0.8394 -0.1728
  404MOL    C8749253   1.620   3.506   2.686  0.5637 -0.1816  0.1128
  404MOL    H8849254   1.794   3.557   2.581  2.3047  3.2572  0.4686
  404MOL    H8949255   1.796   3.614   2.736  3.1377 -0.1460 -2.5099
  404MOL    H9049256   1.562   3.536   2.773  1.9390  0.3036  0.8785
  404MOL    H9149257   1.538   3.508   2.614 -0.4803 -2.4721  1.1912
  404MOL    C9249258   1.660   3.360   2.709 -0.4766 -0.1919 -0.4750
  404MOL    C9349259   1.550   3.270   2.759  0.0204  0.0125  0.7512
  404MOL    H9449260   1.719   3.329   2.623 -0.0031  0.6518 -0.4604
  404MOL    H9549261   1.740   3.371   2.782 -0.7901 -0.4845 -0.0840
  404MOL    H9649262   1.496   3.319   2.839  0.6296  1.0331  0.5542
  404MOL    H9749263   1.476   3.260   2.680 -1.6461  0.2477  2.2557
  404MOL    C9849264   1.615   3.136   2.794  1.0116  0.3696  0.4710
  404MOL    C9949265   1.518   3.013   2.790  1.2247  0.0922 -0.1026
  404MOL   H10049266   1.690   3.111   2.719 -0.0694  1.7992 -1.1258
  404MOL   H10149267   1.676   3.144   2.884  1.3361 -0.8049  0.3692
  404MOL   H10249268   1.456   3.017   2.701  1.7379  1.3846 -0.4067
  404MOL   H10349269   1.579   2.923   2.780 -0.7161 -1.2937  0.1271
  404MOL   C10449270   1.417   3.008   2.902 -0.6802 -0.5407 -0.5104
  404MOL   C10549271   1.322   2.883   2.905 -0.2207  0.4728  0.2646
  404MOL   H10649272   1.469   3.003   2.998  1.8911 -0.0039 -1.8226
  404MOL   H10749273   1.352   3.095   2.912  1.6186  0.8990  2.7775
  404MOL   H10849274   1.255   2.886   2.819 -0.5701 -1.6055  0.4361
  404MOL   H10949275   1.375   2.790   2.881 -1.6782 -0.5041  0.7757
  404MOL   C11049276   1.234   2.875   3.034  0.3596 -0.0666 -0.1423
  404MOL   C11149277   1.142   2.756   3.028  0.4705 -0.4599  0.0285
  404MOL   H11249278   1.301   2.873   3.120  0.7949 -0.2050 -0.4854
  404MOL   H11349279   1.186   2.972   3.043  0.7112  0.0207  0.7943
  404MOL   H11449280   1.069   2.763   2.946  1.1926  0.7959 -0.5269
  404MOL   H11549281   1.200   2.666   3.008 -1.5469 -1.8091  0.1105
  404MOL   C11649282   1.064   2.729   3.158  0.0893 -0.2528  0.2322
  404MOL   C11749283   0.967   2.619   3.137 -0.3555 -0.1821 -0.2149
  404MOL   H11849284   1.140   2.704   3.232  1.9486  2.0792 -0.8378
  404MOL   H11949285   0.999   2.811   3.186  0.8960  0.4091  0.1663
  404MOL   H12049286   0.925   2.569   3.224  0.5743 -0.4641  0.0799
  404MOL   H12149287   0.889   2.655   3.069  1.3267 -0.2976 -2.2623
  404MOL   H12249288   1.016   2.545   3.074  1.9638  0.5964  0.6423
  405MOL     C149289   3.763   6.555   0.459  0.1801  0.3121 -0.4492
  405MOL     C249290   3.779   6.641   0.337 -0.5685  0.2585  0.4275
  405MOL     H349291   3.744   6.623   0.543  0.8385  0.5174 -0.4666
  405MOL     H449292   3.852   6.497   0.481 -0.7898 -0.6161  1.1333
  405MOL     H549293   3.858   6.711   0.365 -1.2895  0.5896  1.6215
  405MOL     H649294   3.817   6.581   0.253 -0.9547  0.8308 -0.1606
  405MOL     H749295   3.672   6.496   0.447  0.7964 -0.5171 -1.0660
  405MOL     C849296   3.645   6.715   0.306  0.1190  0.0989 -0.0571
  405MOL     C949297   3.648   6.811   0.183 -0.6748 -0.6930 -0.5932
  405MOL    H1049298   3.572   6.637   0.287  0.3981 -0.6652  1.9330
  405MOL    H1149299   3.615   6.775   0.392  0.6513 -1.7056  1.4072
  405MOL    H1249300   3.738   6.871   0.174 -1.1822 -0.0834 -1.7621
  405MOL    H1349301   3.653   6.751   0.092 -1.0436 -1.1116 -0.3402
  405MOL    C1449302   3.529   6.910   0.173  0.2813 -0.6766 -0.3584
  405MOL    C1549303   3.533   7.027   0.077 -0.4473  0.5831  0.3337
  405MOL    H1649304   3.445   6.850   0.139  0.3688 -0.3694 -1.1375
  405MOL    H1749305   3.487   6.949   0.265 -1.3398 -1.6678 -0.6685
  405MOL    H1849306   3.608   7.098   0.111  1.0568 -1.2268  0.8206
  405MOL    H1949307   3.555   6.996   7.667 -2.3156 -1.5335  0.5535
  405MOL    C2049308   3.401   7.102   0.063  0.0911 -0.0118  0.7427
  405MOL    C2149309   3.344   7.170   0.192 -0.7368  0.4718  0.2384
  405MOL    H2249310   3.419   7.181   7.681 -0.3576  0.5190  1.1926
  405MOL    H2349311   3.320   7.039   0.029  0.3343 -0.3957  0.8753
  405MOL    H2449312   3.296   7.093   0.252 -0.6602  0.1286 -0.1334
  405MOL    H2549313   3.417   7.234   0.242 -0.3901  1.8280 -1.9242
  405MOL    C2649314   3.239   7.271   0.156 -0.5065 -0.6227 -0.0818
  405MOL    C2749315   3.122   7.211   0.075 -0.1288 -0.0774 -1.1277
  405MOL    H2849316   3.194   7.321   0.242  0.7975  1.0034 -0.3295
  405MOL    H2949317   3.289   7.349   0.099 -2.3425 -0.9277 -2.2065
  405MOL    H3049318   3.051   7.293   0.064 -0.7555 -0.6324 -1.2447
  405MOL    H3149319   3.139   7.173   7.666 -0.4545  0.4591 -1.3878
  405MOL    C3249320   3.045   7.102   0.156  0.0359 -0.6343 -0.6593
  405MOL    C3349321   2.913   7.065   0.097 -0.6444 -0.5129  0.0855
  405MOL    H3449322   3.095   7.005   0.158  1.2092 -0.0077  1.6113
  405MOL    H3549323   3.042   7.131   0.260  2.2918  1.0833 -1.0245
  405MOL    H3649324   2.847   7.151   0.108 -1.5210 -0.7710 -2.7645
  405MOL    H3749325   2.919   7.047   7.681 -0.7789  0.3455 -0.0622
  405MOL    C3849326   2.856   6.938   0.155  0.6929  0.4469  0.0746
  405MOL    C3949327   2.736   6.881   0.072  0.4570  0.0216  0.3840
  405MOL    H4049328   2.934   6.864   0.170  0.0841  0.2362  2.3708
  405MOL    H4149329   2.829   6.964   0.257  1.1738  2.1000 -0.2014
  405MOL    H4249330   2.661   6.957   0.093  0.0379 -0.6195  1.2807
  405MOL    H4349331   2.758   6.884   7.658 -1.9351  0.3734 -0.1308
  405MOL    C4449332   2.693   6.742   0.115 -0.7757 -0.1897 -0.5255
  405MOL    C4549333   2.578   6.682   0.035  0.3395  0.1361 -0.6003
  405MOL    H4649334   2.780   6.676   0.107 -0.9228 -0.7362  2.0623
  405MOL    H4749335   2.665   6.736   0.220  0.0925  0.2140 -0.2717
  405MOL    H4849336   2.614   6.680   7.624  1.3931 -1.2713 -0.2237
  405MOL    H4949337   2.576   6.577   0.066  1.7222  0.8626  2.0436
  405MOL    C5049338   2.447   6.762   0.052  0.2429  0.1036 -0.2826
  405MOL    C5149339   2.339   6.709   7.652 -0.7956 -0.1735  0.0305
  405MOL    H5249340   2.421   6.765   0.158 -1.4871  1.8740 -0.7275
  405MOL    H5349341   2.460   6.867   0.026  2.0812 -0.4307 -1.6957
  405MOL    H5449342   2.381   6.707   7.551 -0.9054  1.3247 -0.0511
  405MOL    H5549343   2.317   6.609   7.689 -0.5320 -0.8420 -1.5751
  405MOL    C5649344   2.216   6.800   7.654 -0.9958 -0.5511 -0.0274
  405MOL    C5749345   2.114   6.780   7.543  0.0726 -0.0508 -0.0227
  405MOL    H5849346   2.169   6.797   0.061 -1.6592  0.8028 -0.2804
  405MOL    H5949347   2.244   6.905   7.650  1.1777 -0.9867  2.3109
  405MOL    H6049348   2.161   6.796   7.446 -1.7113 -1.0463 -1.0821
  405MOL    H6149349   2.088   6.674   7.551 -0.9674  0.3381  2.1382
  405MOL    C6249350   1.983   6.866   7.557 -0.7247  0.2042 -0.1742
  405MOL    C6349351   1.885   6.837   7.438  0.4209 -0.4745 -1.0300
  405MOL    H6449352   1.936   6.843   7.652 -0.9632 -0.4688 -0.4486
  405MOL    H6549353   2.002   6.973   7.563 -0.8343  0.2062  0.1382
  405MOL    H6649354   1.921   6.879   7.344  0.1100 -0.7719 -1.2850
  405MOL    H6749355   1.868   6.730   7.422  1.3721 -0.6044 -1.2257
  405MOL    C6849356   1.746   6.902   7.464  0.4036  0.4983  0.3050
  405MOL    C6949357   1.647   6.860   7.353  0.5934 -0.6490 -0.3158
  405MOL    H7049358   1.711   6.871   7.562 -0.4568  3.3902  0.9570
  405MOL    H7149359   1.748   7.011   7.465  0.0288  0.4955  0.9984
  405MOL    H7249360   1.670   6.903   7.256 -0.3900  1.3789  0.3366
  405MOL    H7349361   1.665   6.754   7.334  0.2964 -0.8253  0.3619
  405MOL    C7449362   1.499   6.884   7.389 -0.1170  0.5120  0.3202
  405MOL    C7549363   1.403   6.871   7.274 -0.4868 -0.0810  0.3748
  405MOL    H7649364   1.487   6.802   7.460 -0.5378 -0.0950 -0.4512
  405MOL    H7749365   1.494   6.981   7.439  2.3479 -0.4355  2.5055
  405MOL    H7849366   1.418   6.966   7.222 -3.2202 -0.5635 -1.3771
  405MOL    H7949367   1.415   6.800   7.192  2.9018  2.7396 -1.7045
  405MOL    C8049368   1.262   6.882   7.319  0.9189 -0.3803  0.3412
  405MOL    C8149369   1.220   6.748   7.378  0.5996  0.4631 -0.4703
  405MOL    H8249370   1.243   6.959   7.394 -1.9381  1.4984 -2.1498
  405MOL    H8349371   1.190   6.901   7.239 -0.2917  1.2546  1.7752
  405MOL    H8449372   1.233   6.669   7.304 -2.2116 -0.0310 -0.5292
  405MOL    H8549373   1.288   6.721   7.459  0.7943 -0.6878 -0.9948
  405MOL    C8649374   1.067   6.753   7.421 -0.3127 -0.5904  0.1380
  405MOL    C8749375   1.019   6.611   7.422  0.9802 -0.7584 -0.4758
  405MOL    H8849376   1.066   6.793   7.522  1.7982 -1.5249  0.5673
  405MOL    H8949377   1.006   6.810   7.350  0.4905  1.9440  1.4184
  405MOL    H9049378   1.042   6.560   7.329  0.4535 -0.3377 -0.8403
  405MOL    H9149379   1.079   6.550   7.490  1.2515 -0.5820 -0.5563
  405MOL    C9249380   0.873   6.591   7.459 -0.3688 -0.2452 -0.0709
  405MOL    C9349381   0.822   6.452   7.488 -0.4485 -0.5272  0.0124
  405MOL    H9449382   0.868   6.647   7.553  0.3402 -1.5572  0.7677
  405MOL    H9549383   0.812   6.656   7.396  1.3107 -0.7223 -2.2433
  405MOL    H9649384   0.853   6.381   7.411 -1.9301 -1.7370  0.5169
  405MOL    H9749385   0.870   6.423   7.581 -0.8527  1.6394  0.9260
  405MOL    C9849386   0.677   6.458   7.486 -0.1553  0.4131  0.2181
  405MOL    C9949387   0.606   6.333   7.523  0.3151 -0.0145  0.5506
  405MOL   H10049388   0.652   6.536   7.557 -2.1871  0.6486 -0.7241
  405MOL   H10149389   0.648   6.487   7.385 -0.7186  1.1372  0.5816
  405MOL   H10249390   0.621   6.251   7.453  2.6572 -1.0633  2.1879
  405MOL   H10349391   0.649   6.295   7.616  0.0789  1.0361  1.1090
  405MOL   C10449392   0.456   6.356   7.535 -0.0189 -0.3898 -0.6441
  405MOL   C10549393   0.399   6.221   7.580 -0.2614 -0.3475  0.8153
  405MOL   H10649394   0.431   6.430   7.612 -0.6692 -1.6545  0.3962
  405MOL   H10749395   0.429   6.384   7.434 -0.6398 -0.0126 -0.3783
  405MOL   H10849396   0.440   6.142   7.517  1.2900 -0.4284  1.9237
  405MOL   H10949397   0.431   6.205   7.682  1.5794  2.0086  0.6447
  405MOL   C11049398   0.250   6.224   7.573 -0.3909 -0.8400  0.4560
  405MOL   C11149399   0.178   6.108   7.654  0.4843  0.0391 -0.6487
  405MOL   H11249400   0.209   6.315   7.618 -1.2313 -0.6171 -0.7499
  405MOL   H11349401   0.215   6.233   7.470  0.4919 -1.5440  0.0854
  405MOL   H11449402   0.203   6.006   7.622  0.9923 -0.1951  0.4792
  405MOL   H11549403   0.207   6.110   0.067 -1.1659  2.0320 -0.2056
  405MOL   C11649404   0.026   6.131   7.644 -0.0538 -0.0383 -0.0018
  405MOL   C11749405   7.639   6.003   7.689 -0.2333 -0.1065 -0.0753
  405MOL   H11849406   7.690   6.210   0.022  0.0385  1.0568 -1.1873
  405MOL   H11949407   7.683   6.151   7.543  0.1338 -0.9398 -0.2421
  405MOL   H12049408   7.657   5.924   7.617 -3.6890 -1.1469  0.0919
  405MOL   H12149409   7.671   5.971   0.096  0.5159  0.2386 -0.2070
  405MOL   H12249410   7.530   6.013   0.002 -0.2122  0.4156 -0.5588
  406MOL     C149411   5.216   4.798   4.974  0.1045  0.0802 -0.3766
  406MOL     C249412   5.248   4.824   5.120 -0.4549 -0.3230  0.3215
  406MOL     H349413   5.168   4.702   4.957  2.2858 -1.0156 -0.5788
  406MOL     H449414   5.310   4.796   4.919  0.0372  0.5634 -0.5171
  406MOL     H549415   5.309   4.743   5.160  1.1515  1.3846  1.4120
  406MOL     H649416   5.302   4.918   5.116  1.7439 -1.5969 -0.9466
  406MOL     H749417   5.162   4.881   4.929  1.9056  0.2497 -2.3046
  406MOL     C849418   5.137   4.846   5.221  0.1217  0.0068  0.4982
  406MOL     C949419   5.180   4.902   5.360 -0.6629 -0.2418 -0.1822
  406MOL    H1049420   5.081   4.917   5.160  0.9295 -1.2576 -1.7886
  406MOL    H1149421   5.083   4.752   5.229  0.9778 -0.6136 -0.8155
  406MOL    H1249422   5.089   4.906   5.419 -0.5738 -2.5162  0.1635
  406MOL    H1349423   5.262   4.839   5.396 -0.6551 -0.1419 -0.0254
  406MOL    C1449424   5.240   5.049   5.357 -0.3228 -0.5114  0.0507
  406MOL    C1549425   5.289   5.102   5.496  0.9469 -0.0289 -1.1145
  406MOL    H1649426   5.319   5.049   5.282 -1.2140 -1.7549 -0.9160
  406MOL    H1749427   5.157   5.114   5.326 -0.8395 -1.3163 -0.2960
  406MOL    H1849428   5.209   5.086   5.567 -0.2578 -0.8696 -2.6477
  406MOL    H1949429   5.382   5.054   5.528  0.8294  0.4497 -0.0548
  406MOL    C2049430   5.299   5.256   5.490 -0.4301 -0.4506 -0.1636
  406MOL    C2149431   5.341   5.297   5.627 -0.4028  0.0802  0.1465
  406MOL    H2249432   5.385   5.283   5.429  2.2288  1.3451  4.1210
  406MOL    H2349433   5.213   5.302   5.442 -0.0205 -0.0976 -0.5694
  406MOL    H2449434   5.275   5.257   5.704  2.1263 -1.1192  1.7716
  406MOL    H2549435   5.441   5.260   5.651  0.5182  1.3298 -1.6172
  406MOL    C2649436   5.346   5.454   5.637 -0.5559  0.0566 -0.8388
  406MOL    C2749437   5.410   5.505   5.772  0.4563  0.6680  0.0663
  406MOL    H2849438   5.399   5.493   5.551  0.9735  2.4560  1.1369
  406MOL    H2949439   5.245   5.494   5.629 -1.0679 -1.1969 -0.7514
  406MOL    H3049440   5.348   5.456   5.847  1.6570 -2.4051 -0.8743
  406MOL    H3149441   5.511   5.464   5.781 -1.0730 -4.6621 -4.0321
  406MOL    C3249442   5.409   5.657   5.791  0.4439 -0.1364 -0.6203
  406MOL    C3349443   5.455   5.702   5.927 -0.1453 -0.2059 -0.4096
  406MOL    H3449444   5.475   5.699   5.715  1.3761 -0.1544  0.1618
  406MOL    H3549445   5.312   5.698   5.764  1.1564  1.3349 -0.9810
  406MOL    H3649446   5.382   5.680   6.005  0.0286  0.2871 -0.1038
  406MOL    H3749447   5.549   5.649   5.939 -0.4846 -0.7812 -0.2251
  406MOL    C3849448   5.470   5.856   5.930 -1.2072 -0.0677 -0.4547
  406MOL    C3949449   5.525   5.903   6.065 -0.3522 -0.0368 -0.2156
  406MOL    H4049450   5.528   5.885   5.842  1.0980  0.7066  1.2608
  406MOL    H4149451   5.375   5.903   5.906 -1.9229  0.2230  2.8060
  406MOL    H4249452   5.459   5.879   6.148 -2.5007 -0.1872 -1.9034
  406MOL    H4349453   5.620   5.852   6.082 -0.5756 -0.6680 -0.8448
  406MOL    C4449454   5.549   6.064   6.055 -0.0051  0.2957 -0.1288
  406MOL    C4549455   5.637   6.111   6.168 -0.5445  0.2097  0.1979
  406MOL    H4649456   5.583   6.097   5.958  0.2101  0.5995  0.0527
  406MOL    H4749457   5.452   6.113   6.068  0.1431  0.5089  0.1899
  406MOL    H4849458   5.608   6.078   6.268  2.6728  0.5256  1.3163
  406MOL    H4949459   5.732   6.057   6.162 -0.9982 -0.7202  1.2123
  406MOL    C5049460   5.658   6.263   6.160  0.2781  0.5595 -0.1162
  406MOL    C5149461   5.752   6.330   6.267  0.1480 -0.9332  0.0727
  406MOL    H5249462   5.681   6.289   6.057 -2.1966 -0.2930 -0.9140
  406MOL    H5349463   5.557   6.301   6.178  0.6267  0.6927  1.7405
  406MOL    H5449464   5.712   6.316   6.368  2.1489 -0.7138  0.9113
  406MOL    H5549465   5.845   6.275   6.273  0.4317 -0.3664  0.9973
  406MOL    C5649466   5.779   6.476   6.237  0.5435  0.0952 -0.9545
  406MOL    C5749467   5.856   6.545   6.361  0.0848  0.0228 -0.0801
  406MOL    H5849468   5.834   6.480   6.143  1.4717  2.0794 -0.3561
  406MOL    H5949469   5.686   6.530   6.222  0.7947  0.6689 -0.4853
  406MOL    H6049470   5.865   6.645   6.318 -0.4416  0.7338  1.4449
  406MOL    H6149471   5.797   6.559   6.451  0.6767  1.2192  0.1212
  406MOL    C6249472   5.993   6.483   6.389 -0.4874  0.2043 -0.5906
  406MOL    C6349473   6.068   6.547   6.512  0.4167 -0.1293  0.9691
  406MOL    H6449474   5.983   6.377   6.409 -1.1619  0.3669 -0.0350
  406MOL    H6549475   6.044   6.494   6.294 -0.8156  2.7614 -0.5271
  406MOL    H6649476   6.048   6.654   6.514  0.3624 -0.0766 -1.0130
  406MOL    H6749477   6.008   6.529   6.601 -1.0820  0.7330  0.1526
  406MOL    C6849478   6.217   6.503   6.520 -0.7973  0.0886  0.4630
  406MOL    C6949479   6.297   6.596   6.613 -0.2169  0.1415 -0.4770
  406MOL    H7049480   6.218   6.403   6.562 -1.4936 -0.2926 -0.4108
  406MOL    H7149481   6.254   6.500   6.418 -0.1434 -2.6191  0.7362
  406MOL    H7249482   6.280   6.702   6.590 -0.7726 -0.4050 -2.6760
  406MOL    H7349483   6.260   6.597   6.716  5.4628 -2.0383  1.7468
  406MOL    C7449484   6.447   6.578   6.627 -0.1799  0.1538 -0.0622
  406MOL    C7549485   6.526   6.596   6.491  0.0939  0.4444 -1.1450
  406MOL    H7649486   6.478   6.655   6.697 -1.5049  0.3271  0.3446
  406MOL    H7749487   6.472   6.480   6.668 -0.3398 -0.0242 -0.3854
  406MOL    H7849488   6.494   6.534   6.407 -1.3259  0.7003 -0.8100
  406MOL    H7949489   6.484   6.691   6.457 -4.0976 -0.5850  0.8545
  406MOL    C8049490   6.675   6.616   6.504  0.3807  0.3366 -0.5147
  406MOL    C8149491   6.747   6.478   6.497  0.2785 -0.1676 -0.2838
  406MOL    H8249492   6.712   6.688   6.432  0.8427  2.4623  1.8063
  406MOL    H8349493   6.692   6.658   6.603 -0.1548  1.6446 -0.9671
  406MOL    H8449494   6.693   6.399   6.550 -0.0446  0.0561 -0.2744
  406MOL    H8549495   6.747   6.426   6.401  1.2944 -1.5691  0.4579
  406MOL    C8649496   6.899   6.489   6.541 -0.4343  0.2590 -0.0503
  406MOL    C8749497   6.987   6.375   6.480 -0.4775 -0.6512  0.2093
  406MOL    H8849498   6.928   6.593   6.521 -1.3338  1.0509  2.5424
  406MOL    H8949499   6.905   6.483   6.650  2.0968  2.1890 -0.0164
  406MOL    H9049500   6.931   6.282   6.494 -1.8989 -0.2880 -2.8107
  406MOL    H9149501   7.010   6.379   6.374 -2.6272  0.4412 -0.2317
  406MOL    C9249502   7.118   6.347   6.550 -0.1712 -0.1393  0.3498
  406MOL    C9349503   7.224   6.464   6.540  0.1850 -0.6499  0.2102
  406MOL    H9449504   7.097   6.324   6.655 -0.5805 -1.4646 -0.0102
  406MOL    H9549505   7.154   6.258   6.497 -1.1925 -0.2774 -0.1154
  406MOL    H9649506   7.247   6.492   6.438 -1.7995  3.5529  0.8059
  406MOL    H9749507   7.184   6.551   6.592  1.4107  0.4832 -0.7253
  406MOL    C9849508   7.354   6.429   6.615 -0.3738 -0.1231  0.5193
  406MOL    C9949509   7.471   6.524   6.609 -0.4714  0.7673 -0.6021
  406MOL   H10049510   7.342   6.393   6.717 -0.2345 -0.8956  0.2623
  406MOL   H10149511   7.385   6.340   6.561  1.5809  1.2594 -0.6806
  406MOL   H10249512   7.509   6.558   6.512  0.1099  1.7957 -0.0283
  406MOL   H10349513   7.438   6.606   6.673 -0.1311  1.4880 -1.3373
  406MOL   C10449514   7.599   6.451   6.653  1.2762 -0.2334 -0.6602
  406MOL   C10549515   0.032   6.546   6.670 -0.4375 -0.0014  0.6302
  406MOL   H10649516   7.585   6.391   6.743  0.9771  2.5482  1.1947
  406MOL   H10749517   7.625   6.377   6.576 -0.0598 -1.3434 -0.0497
  406MOL   H10849518   0.035   6.610   6.582 -1.5601 -0.4809  0.2468
  406MOL   H10949519   0.022   6.618   6.751 -1.4010  1.7374 -0.9909
  406MOL   C11049520   0.177   6.489   6.690 -0.8041 -0.1868 -0.0292
  406MOL   C11149521   0.300   6.590   6.714  0.8988  0.0100  0.5455
  406MOL   H11249522   0.171   6.419   6.774 -0.7706  0.3941  0.4588
  406MOL   H11349523   0.210   6.420   6.612 -0.2989  0.8263 -0.7132
  406MOL   H11449524   0.311   6.652   6.625  2.1486 -0.3759  0.4147
  406MOL   H11549525   0.280   6.675   6.780 -0.3698 -1.0030  1.5058
  406MOL   C11649526   0.439   6.530   6.760  0.1207  0.6520  0.0057
  406MOL   C11749527   0.535   6.634   6.809  0.2170 -0.3322 -0.3248
  406MOL   H11849528   0.418   6.461   6.843  1.2010 -0.1881 -0.4036
  406MOL   H11949529   0.475   6.459   6.685  0.8306  1.1256 -0.0993
  406MOL   H12049530   0.630   6.591   6.842 -0.1003  0.0556  1.1169
  406MOL   H12149531   0.544   6.708   6.730 -0.1374 -0.0829 -0.1334
  406MOL   H12249532   0.494   6.698   6.887 -0.4599  1.2421 -1.9463
  407MOL     C149533   1.862   2.835   4.359  0.3300  0.1789  0.2390
  407MOL     C249534   1.844   2.726   4.469  0.0020  0.0710  0.4202
  407MOL     H349535   1.964   2.835   4.322  0.6783  0.1382  1.1778
  407MOL     H449536   1.856   2.934   4.403 -2.6829 -0.0813  0.5459
  407MOL     H549537   1.885   2.636   4.424  2.6562  1.1312  0.6189
  407MOL     H649538   1.908   2.751   4.554  1.2782  0.0498 -0.5282
  407MOL     H749539   1.794   2.831   4.274  0.7931  1.9226 -0.2325
  407MOL     C849540   1.693   2.706   4.503  0.4544  0.1409  0.1636
  407MOL     C949541   1.689   2.605   4.616 -0.3379 -0.8235  0.5263
  407MOL    H1049542   1.632   2.795   4.520 -1.8851 -1.1751 -1.1248
  407MOL    H1149543   1.646   2.671   4.411 -1.9156  0.0972  1.3456
  407MOL    H1249544   1.750   2.516   4.597 -0.4118 -1.0318  1.2668
  407MOL    H1349545   1.740   2.652   4.701  0.9204 -0.3134 -0.4835
  407MOL    C1449546   1.546   2.573   4.642  0.6109 -0.0022  0.1806
  407MOL    C1549547   1.518   2.500   4.767  0.1124 -0.6815  0.6600
  407MOL    H1649548   1.493   2.668   4.636  0.0579 -0.2698  0.7185
  407MOL    H1749549   1.519   2.512   4.556  0.9895  1.4285 -0.9793
  407MOL    H1849550   1.574   2.406   4.773  2.9546  0.9691  1.0214
  407MOL    H1949551   1.547   2.554   4.856 -1.8672 -1.0827  1.5671
  407MOL    C2049552   1.366   2.471   4.769 -0.5453 -0.7612 -0.0829
  407MOL    C2149553   1.320   2.405   4.903  0.2753 -0.3490  1.1643
  407MOL    H2249554   1.299   2.552   4.741  0.4172  0.0865  0.0393
  407MOL    H2349555   1.350   2.390   4.697 -0.4896 -2.4211  1.7390
  407MOL    H2449556   1.380   2.319   4.933  1.9145  0.8975  1.5489
  407MOL    H2549557   1.334   2.484   4.976 -0.9775  1.6536 -0.7214
  407MOL    C2649558   1.175   2.356   4.893 -1.0859 -0.1947 -0.2420
  407MOL    C2749559   1.136   2.285   5.029 -0.6798 -0.0984  0.0259
  407MOL    H2849560   1.129   2.453   4.877  0.7361  0.6897 -0.2372
  407MOL    H2949561   1.157   2.310   4.796  1.0129 -1.2646 -0.1606
  407MOL    H3049562   1.198   2.197   5.048  2.7992  2.0578 -0.8869
  407MOL    H3149563   1.162   2.357   5.107  2.6490  0.6519 -1.6794
  407MOL    C3249564   0.986   2.260   5.035 -0.2389 -0.0456  0.1875
  407MOL    C3349565   0.935   2.194   5.166  0.9172  0.2691 -0.2665
  407MOL    H3449566   0.934   2.352   5.007  0.2481  0.4052  0.7551
  407MOL    H3549567   0.953   2.204   4.947  2.9982  0.2025 -1.2406
  407MOL    H3649568   0.986   2.098   5.177  0.3742  0.0594  0.4925
  407MOL    H3749569   0.954   2.263   5.248  0.3183  1.3585 -1.0301
  407MOL    C3849570   0.781   2.163   5.166  0.3433  0.3135 -0.0801
  407MOL    C3949571   0.748   2.088   5.299  0.9966  0.2409 -0.3932
  407MOL    H4049572   0.721   2.253   5.153 -0.5685  0.1180  2.5446
  407MOL    H4149573   0.760   2.100   5.080 -1.0952 -0.8224  1.0825
  407MOL    H4249574   0.818   2.005   5.308 -1.3976 -1.5678  2.3795
  407MOL    H4349575   0.741   2.156   5.384 -0.3734 -0.5757  0.1638
  407MOL    C4449576   0.605   2.037   5.280 -0.6365  0.0597 -0.3880
  407MOL    C4549577   0.552   1.952   5.400  0.1668  0.0816 -0.5154
  407MOL    H4649578   0.537   2.122   5.266  0.8562  1.4676  0.7631
  407MOL    H4749579   0.597   1.979   5.189  1.4649 -0.0837 -0.5017
  407MOL    H4849580   0.609   1.859   5.401 -1.4238 -0.9125 -0.6468
  407MOL    H4949581   0.578   1.998   5.496 -0.7288  0.9996 -0.7023
  407MOL    C5049582   0.407   1.898   5.393 -0.1729  0.0975 -0.2773
  407MOL    C5149583   0.343   1.878   5.531  0.3256 -0.0181 -0.0383
  407MOL    H5249584   0.342   1.973   5.348  0.3045  1.1375  0.7264
  407MOL    H5349585   0.403   1.804   5.338  1.4330  0.5012 -1.1454
  407MOL    H5449586   0.401   1.806   5.588 -0.8922 -1.0960 -0.1276
  407MOL    H5549587   0.335   1.971   5.587  1.1318 -0.6279  1.1120
  407MOL    C5649588   0.203   1.828   5.521  0.4472 -0.0848 -0.4441
  407MOL    C5749589   0.139   1.793   5.659 -0.5188  0.7228  0.0961
  407MOL    H5849590   0.146   1.905   5.469  1.5493 -0.3006 -1.9880
  407MOL    H5949591   0.205   1.734   5.465 -0.4759  0.9633 -2.2815
  407MOL    H6049592   0.212   1.739   5.720 -0.8024  3.0510  2.5973
  407MOL    H6149593   0.119   1.885   5.713 -2.9554 -0.3156  1.0664
  407MOL    C6249594   0.004   1.715   5.625 -0.3032  0.4144  0.2082
  407MOL    C6349595   7.617   1.695   5.750 -0.0985 -0.1505 -0.7755
  407MOL    H6449596   7.647   1.786   5.558 -0.5988 -2.3944 -2.6564
  407MOL    H6549597   0.006   1.627   5.561  1.7655  0.3385  0.3511
  407MOL    H6649598   7.686   1.655   5.825 -0.9971 -0.1401  0.0744
  407MOL    H6749599   7.590   1.795   5.784  1.0448  0.5817 -1.9869
  407MOL    C6849600   7.493   1.604   5.744 -0.4888 -0.4933 -0.1916
  407MOL    C6949601   7.373   1.662   5.662  0.5913  0.8501  0.1384
  407MOL    H7049602   7.519   1.505   5.707  0.5282  0.2042 -1.3679
  407MOL    H7149603   7.469   1.589   5.849 -1.0408  2.3744  0.1428
  407MOL    H7249604   7.291   1.608   5.708  0.3523 -0.6116 -1.8995
  407MOL    H7349605   7.350   1.766   5.684 -0.0600 -0.0400  3.8282
  407MOL    C7449606   7.387   1.613   5.519  0.1325 -0.9178  0.7209
  407MOL    C7549607   7.284   1.673   5.419  0.1842 -0.3921 -0.0496
  407MOL    H7649608   7.486   1.639   5.484 -0.5252  0.1476 -0.4012
  407MOL    H7749609   7.374   1.505   5.518  1.1041 -1.0525  1.8944
  407MOL    H7849610   7.197   1.692   5.481  0.8395 -0.0472  0.7777
  407MOL    H7949611   7.328   1.766   5.382 -0.9270  0.8601  1.6995
  407MOL    C8049612   7.242   1.581   5.309 -0.0035 -0.2556 -0.3849
  407MOL    C8149613   7.365   1.540   5.229 -0.1980 -0.3022 -0.6860
  407MOL    H8249614   7.194   1.492   5.349  2.1751 -0.9827  0.6880
  407MOL    H8349615   7.165   1.625   5.245 -1.2004 -2.0597 -0.2276
  407MOL    H8449616   7.405   1.635   5.193  1.3847 -0.2302  1.1753
  407MOL    H8549617   7.450   1.498   5.283 -0.3903 -0.0671 -0.1993
  407MOL    C8649618   7.327   1.449   5.117  0.1336  0.2115 -0.0128
  407MOL    C8749619   7.449   1.424   5.027  0.3080  0.2344 -0.4230
  407MOL    H8849620   7.288   1.363   5.171  0.7084 -0.8990 -1.3388
  407MOL    H8949621   7.245   1.490   5.059 -1.4093 -3.8627 -0.8686
  407MOL    H9049622   7.493   1.515   4.986  0.6447  0.8364  1.2384
  407MOL    H9149623   7.524   1.393   5.099 -0.5142  0.1604  0.4092
  407MOL    C9249624   7.424   1.315   4.921  0.0522 -0.6220  0.0657
  407MOL    C9349625   7.549   1.255   4.862 -0.4371  0.3318 -0.0494
  407MOL    H9449626   7.366   1.235   4.967  0.8591  0.2801  2.8065
  407MOL    H9549627   7.360   1.358   4.843  0.7195  0.4239  0.0771
  407MOL    H9649628   7.592   1.336   4.803  4.4283 -1.5291  0.7441
  407MOL    H9749629   7.615   1.236   4.946  1.5557 -1.6341 -1.9819
  407MOL    C9849630   7.530   1.128   4.781 -0.4809  0.2589  0.7303
  407MOL    C9949631   7.666   1.045   4.748 -0.1625 -0.1700  0.2390
  407MOL   H10049632   7.462   1.060   4.834 -1.9459  2.0308  1.1698
  407MOL   H10149633   7.464   1.140   4.695 -2.0515  0.9835  2.0110
  407MOL   H10249634   7.634   0.954   4.698 -1.4906 -0.5045  1.6682
  407MOL   H10349635   0.031   1.102   4.674  1.8216 -0.5385  1.4295
  407MOL   C10449636   0.063   1.013   4.871  0.8470 -0.0506 -0.1677
  407MOL   C10549637   0.179   0.918   4.836 -0.0982  0.0123  0.2648
  407MOL   H10649638   0.101   1.097   4.929  1.2389 -0.8373  0.7471
  407MOL   H10749639   7.681   0.966   4.937  1.4052  1.1650  1.3347
  407MOL   H10849640   0.215   0.870   4.927  1.7515  1.1731  0.1663
  407MOL   H10949641   0.141   0.834   4.777  1.8401 -1.5146  1.1451
  407MOL   C11049642   0.291   0.982   4.753  0.5091  0.3272  0.2133
  407MOL   C11149643   0.403   0.890   4.713 -0.4712 -0.1988 -0.1904
  407MOL   H11249644   0.248   1.025   4.663 -0.2587 -1.9447 -0.5336
  407MOL   H11349645   0.330   1.060   4.819  0.7113 -0.3963  0.9556
  407MOL   H11449646   0.440   0.835   4.800 -0.6047 -0.0869 -0.0622
  407MOL   H11549647   0.355   0.808   4.659 -1.0331 -1.6741  2.4511
  407MOL   C11649648   0.511   0.963   4.622 -0.0928 -0.1226 -0.4228
  407MOL   C11749649   0.629   0.873   4.588 -0.1730 -0.3930  0.1504
  407MOL   H11849650   0.463   1.001   4.532 -1.3761 -0.3298  0.1502
  407MOL   H11949651   0.547   1.046   4.684 -0.2352 -2.5610  3.0890
  407MOL   H12049652   0.695   0.936   4.528 -2.5395  2.6961  0.6820
  407MOL   H12149653   0.670   0.828   4.678  2.1719  0.4883 -0.4380
  407MOL   H12249654   0.594   0.792   4.524 -0.6413 -0.4075  0.4223
  408MOL     C149655   4.572   7.287   0.397  0.3165 -0.7131 -0.0501
  408MOL     C249656   4.691   7.198   0.357  0.0436 -0.4774  0.7694
  408MOL     H349657   4.566   7.369   0.326 -1.3945  0.9544  1.9848
  408MOL     H449658   4.579   7.329   0.497  2.8849  1.2146 -0.9669
  408MOL     H549659   4.662   7.157   0.260 -1.2413  0.6694  0.6428
  408MOL     H649660   4.781   7.255   0.339  0.1793 -0.8245  0.3175
  408MOL     H749661   4.478   7.235   0.379 -0.7845  0.8516  1.0970
  408MOL     C849662   4.734   7.094   0.465 -0.0117 -0.0913  0.7425
  408MOL     C949663   4.853   7.007   0.418 -1.0511  0.2235 -0.6931
  408MOL    H1049664   4.766   7.153   0.551 -1.3591  0.2681  1.0119
  408MOL    H1149665   4.649   7.029   0.485 -1.3211  0.8122 -1.7394
  408MOL    H1249666   4.835   6.965   0.319 -2.4761 -1.6976  0.3593
  408MOL    H1349667   4.933   7.076   0.389 -0.1521 -0.8733 -0.8709
  408MOL    C1449668   4.906   6.902   0.514 -0.0338  0.4993 -1.3411
  408MOL    C1549669   5.017   6.822   0.440 -0.1933 -0.5477 -0.3185
  408MOL    H1649670   4.937   6.944   0.610 -0.5194 -1.6797 -0.2097
  408MOL    H1749671   4.823   6.837   0.542 -0.1552  2.3589  3.2062
  408MOL    H1849672   4.978   6.795   0.342  0.7279 -0.4299 -0.7263
  408MOL    H1949673   5.096   6.895   0.420 -2.4114  2.5137  1.6998
  408MOL    C2049674   5.065   6.697   0.506 -0.3337 -0.1564  0.4415
  408MOL    C2149675   5.194   6.648   0.440  0.6980 -0.2846  0.8120
  408MOL    H2249676   5.096   6.712   0.610 -0.8498 -1.1147  0.7414
  408MOL    H2349677   4.987   6.621   0.513 -0.1186 -0.4743 -0.5580
  408MOL    H2449678   5.173   6.625   0.336 -0.0506  1.6608  0.5112
  408MOL    H2549679   5.266   6.729   0.432 -0.1375  0.3404 -0.5413
  408MOL    C2649680   5.260   6.536   0.510 -0.1891  0.2144 -0.0553
  408MOL    C2749681   5.355   6.456   0.421 -0.2455 -0.0427 -0.1490
  408MOL    H2849682   5.315   6.586   0.590  0.3682  0.8451 -0.8221
  408MOL    H2949683   5.191   6.474   0.568  2.5628 -1.4876  1.4970
  408MOL    H3049684   5.316   6.415   0.327 -0.3972 -1.8862  0.6951
  408MOL    H3149685   5.427   6.533   0.394 -0.6579 -0.0368 -1.2611
  408MOL    C3249686   5.426   6.341   0.496 -0.4423 -0.3855  0.1269
  408MOL    C3349687   5.559   6.277   0.436 -0.0229 -0.3095  0.1039
  408MOL    H3449688   5.435   6.381   0.597 -1.0505  1.1746 -0.4269
  408MOL    H3549689   5.357   6.257   0.505 -0.3211 -0.3807  1.2122
  408MOL    H3649690   5.556   6.266   0.328  0.2217 -2.5114  0.3020
  408MOL    H3749691   5.627   6.362   0.442  1.0205 -0.9905 -1.8014
  408MOL    C3849692   5.606   6.160   0.521  0.0463 -0.7437  0.0296
  408MOL    C3949693   5.736   6.102   0.468  0.5830 -0.1197  0.0576
  408MOL    H4049694   5.613   6.183   0.628 -0.0299 -1.7126  0.2455
  408MOL    H4149695   5.528   6.085   0.507  0.9562 -1.3777 -1.7905
  408MOL    H4249696   5.715   6.052   0.374 -1.0384 -2.3664  1.5484
  408MOL    H4349697   5.813   6.175   0.444  0.6888 -0.0084  0.7085
  408MOL    C4449698   5.791   6.007   0.572 -0.2016 -0.0617 -0.5984
  408MOL    C4549699   5.923   5.940   0.526 -0.7905  0.2964 -0.1186
  408MOL    H4649700   5.786   6.065   0.664  0.7274 -0.2192 -0.4398
  408MOL    H4749701   5.718   5.931   0.600  0.5279 -0.8339 -0.7746
  408MOL    H4849702   5.895   5.889   0.434  4.6316  0.8177 -2.2603
  408MOL    H4949703   5.999   6.010   0.492 -0.0179 -0.8401 -0.7700
  408MOL    C5049704   5.983   5.848   0.629  0.0277 -0.5443 -0.8638
  408MOL    C5149705   6.042   5.914   0.755  0.0097  0.5244  0.3585
  408MOL    H5249706   5.903   5.786   0.670 -1.6634  1.5394 -0.9327
  408MOL    H5349707   6.059   5.790   0.577  0.8626  0.3489 -0.6636
  408MOL    H5449708   6.119   5.988   0.734 -1.4755  2.4796  1.6939
  408MOL    H5549709   5.974   5.984   0.802 -1.9119 -1.3810  0.5286
  408MOL    C5649710   6.092   5.817   0.853 -0.6996  0.5457  0.4914
  408MOL    C5749711   6.135   5.887   0.984  0.7086 -0.2554  0.7891
  408MOL    H5849712   6.008   5.752   0.875  0.0998 -0.7234 -0.1825
  408MOL    H5949713   6.169   5.754   0.809 -1.2685  1.3190 -1.7081
  408MOL    H6049714   6.090   5.986   0.993  2.3403  0.6654 -0.5815
  408MOL    H6149715   6.098   5.824   1.064  0.8035  0.2956  1.2656
  408MOL    C6249716   6.281   5.924   0.984 -0.2069 -0.9973 -0.0529
  408MOL    C6349717   6.321   6.021   1.099 -0.1320 -0.1841  0.9743
  408MOL    H6449718   6.347   5.838   0.994 -0.8246 -1.7149 -1.9280
  408MOL    H6549719   6.309   5.979   0.894  0.1731 -1.9722 -0.5397
  408MOL    H6649720   6.269   6.116   1.093  0.7954  0.3336  1.1134
  408MOL    H6749721   6.314   5.969   1.195  2.0174 -1.1465  0.6437
  408MOL    C6849722   6.461   6.062   1.092 -0.1671  0.4009 -0.3389
  408MOL    C6949723   6.488   6.181   1.181  0.0719 -0.3072 -0.0923
  408MOL    H7049724   6.528   5.980   1.120 -0.6035 -0.2520 -1.1883
  408MOL    H7149725   6.481   6.100   0.992 -0.3129  3.5626  0.7879
  408MOL    H7249726   6.426   6.264   1.147 -0.4573 -0.5899  0.1777
  408MOL    H7349727   6.449   6.156   1.280 -0.5648  3.2446  0.6070
  408MOL    C7449728   6.636   6.210   1.179  0.2420 -0.4982 -0.1966
  408MOL    C7549729   6.677   6.325   1.276  0.1284  0.1238 -0.2244
  408MOL    H7649730   6.696   6.123   1.206  1.6153 -0.0662 -1.7642
  408MOL    H7749731   6.663   6.250   1.081 -1.3218  1.2257  0.0515
  408MOL    H7849732   6.782   6.347   1.255  0.0195  0.6379 -0.2364
  408MOL    H7949733   6.620   6.415   1.252  0.6604  0.7279  0.7253
  408MOL    C8049734   6.652   6.286   1.421  0.5487 -0.2367 -0.6881
  408MOL    C8149735   6.683   6.397   1.522  0.8639 -0.7762 -0.2667
  408MOL    H8249736   6.548   6.262   1.440  0.9690 -0.6933  1.1441
  408MOL    H8349737   6.709   6.202   1.463  0.5937  0.3904  0.5130
  408MOL    H8449738   6.789   6.422   1.512  0.2886  2.0473  0.2969
  408MOL    H8549739   6.624   6.486   1.498 -0.3659 -2.0251 -1.9789
  408MOL    C8649740   6.648   6.366   1.669 -0.4215  0.1523  0.5563
  408MOL    C8749741   6.650   6.490   1.763 -0.6372 -0.5906 -0.2762
  408MOL    H8849742   6.545   6.330   1.661 -0.0214 -1.0100  0.5099
  408MOL    H8949743   6.702   6.279   1.707  2.2060  0.5150 -2.1800
  408MOL    H9049744   6.726   6.559   1.725 -0.5747 -0.1451  0.6292
  408MOL    H9149745   6.564   6.550   1.733  0.2842  2.3011  2.5969
  408MOL    C9249746   6.645   6.455   1.912  0.1780  1.3632  0.6133
  408MOL    C9349747   6.617   6.581   2.001 -0.1708 -0.3063 -0.3466
  408MOL    H9449748   6.566   6.384   1.937  0.6755  0.0732 -1.3727
  408MOL    H9549749   6.745   6.413   1.927  0.2539  0.9786 -0.9765
  408MOL    H9649750   6.686   6.661   1.974 -0.9994  1.4070  2.3428
  408MOL    H9749751   6.518   6.616   1.973 -0.0101 -0.8063 -1.5555
  408MOL    C9849752   6.609   6.550   2.153  0.3508  0.2859  0.2097
  408MOL    C9949753   6.556   6.668   2.237  0.5444  0.0892 -0.1243
  408MOL   H10049754   6.555   6.459   2.176  0.1707  0.7837  1.8439
  408MOL   H10149755   6.710   6.534   2.193 -0.7481 -1.0677  2.5634
  408MOL   H10249756   6.589   6.766   2.203 -0.1194  0.1053 -0.7332
  408MOL   H10349757   6.448   6.666   2.219  0.7775  2.1188 -1.9361
  408MOL   C10449758   6.585   6.663   2.384  0.3000 -0.5825  0.4346
  408MOL   C10549759   6.501   6.564   2.462  0.3141 -0.3063  0.6287
  408MOL   H10649760   6.685   6.665   2.426  0.2618  2.9221  0.5389
  408MOL   H10749761   6.554   6.764   2.410  2.2255  0.6366 -1.8035
  408MOL   H10849762   6.402   6.546   2.422 -0.9531 -1.0187  3.8975
  408MOL   H10949763   6.557   6.472   2.446 -0.1818 -0.9073  2.2367
  408MOL   C11049764   6.468   6.590   2.612  0.1127 -0.0667  0.3216
  408MOL   C11149765   6.410   6.467   2.679  0.4252  0.0332 -0.2641
  408MOL   H11249766   6.566   6.625   2.644  0.0550 -0.0857  0.5144
  408MOL   H11349767   6.412   6.680   2.637 -1.2411 -0.9809  0.6147
  408MOL   H11449768   6.486   6.389   2.672  0.2690 -0.0442 -1.0787
  408MOL   H11549769   6.381   6.486   2.783  3.4455 -0.2435  0.6796
  408MOL   C11649770   6.278   6.415   2.619 -0.2375  1.1230 -0.0863
  408MOL   C11749771   6.205   6.304   2.702  0.4399  0.5483  0.0819
  408MOL   H11849772   6.219   6.506   2.611 -1.3751  0.3723 -0.2550
  408MOL   H11949773   6.297   6.388   2.515  1.4105 -2.6899  1.1098
  408MOL   H12049774   6.109   6.269   2.664  0.1070  1.7840 -0.2122
  408MOL   H12149775   6.276   6.223   2.721  0.4297  0.7223  0.8901
  408MOL   H12249776   6.175   6.341   2.800  1.2941 -0.1922  0.6326
  409MOL     C149777   3.435   4.800   2.251  0.9543  0.2766  0.1406
  409MOL     C249778   3.531   4.681   2.250  0.3184 -0.1940 -0.8711
  409MOL     H349779   3.460   4.875   2.325  1.2822 -0.4677  0.7927
  409MOL     H449780   3.331   4.768   2.247  0.8439  0.4859  1.2835
  409MOL     H549781   3.631   4.726   2.259  0.5656 -0.9438  0.3154
  409MOL     H649782   3.525   4.625   2.344  1.7621  0.0652 -0.5981
  409MOL     H749783   3.443   4.844   2.152  1.9218 -1.1047 -0.4192
  409MOL     C849784   3.509   4.578   2.138  0.6064  0.0939  0.6947
  409MOL     C949785   3.606   4.459   2.157  0.3153 -0.2117  0.3399
  409MOL    H1049786   3.404   4.548   2.138  0.9128 -1.1081 -2.3147
  409MOL    H1149787   3.518   4.628   2.042 -3.5338  0.8745  0.5914
  409MOL    H1249788   3.707   4.492   2.134  1.5606 -2.3617  2.5030
  409MOL    H1349789   3.591   4.426   2.260  3.0139  1.0977  1.1805
  409MOL    C1449790   3.572   4.347   2.053  0.1641  0.3708  0.5067
  409MOL    C1549791   3.574   4.379   1.903  0.1877 -0.4179  0.4694
  409MOL    H1649792   3.649   4.273   2.077 -1.4714 -0.6971  2.6964
  409MOL    H1749793   3.480   4.302   2.092  1.4037 -2.9998 -0.2823
  409MOL    H1849794   3.534   4.289   1.858  3.1962 -1.2545 -0.6856
  409MOL    H1949795   3.510   4.465   1.883 -0.1291 -0.3511  1.7196
  409MOL    C2049796   3.714   4.410   1.850 -0.5728  0.1122  0.2737
  409MOL    C2149797   3.726   4.407   1.703  0.1748  0.1788  0.1604
  409MOL    H2249798   3.730   4.508   1.894 -0.8741 -0.4589  1.6949
  409MOL    H2349799   3.801   4.357   1.889  0.4805  1.8350  0.3108
  409MOL    H2449800   3.640   4.446   1.649  1.0385  0.5533 -0.9485
  409MOL    H2549801   3.811   4.463   1.663  0.0478  0.3745  0.1640
  409MOL    C2649802   3.723   4.253   1.666  0.2013  0.2382  0.2604
  409MOL    C2749803   3.745   4.239   1.512  0.0760  0.6138 -0.2559
  409MOL    H2849804   3.806   4.205   1.719  0.1297 -0.6712 -0.4321
  409MOL    H2949805   3.638   4.192   1.697 -0.0940 -0.0416 -1.0378
  409MOL    H3049806   3.668   4.295   1.459 -0.0721 -0.3275 -1.0560
  409MOL    H3149807   3.849   4.262   1.489 -0.0404  1.8067  0.3974
  409MOL    C3249808   3.732   4.101   1.453 -0.2264 -0.0650 -0.5923
  409MOL    C3349809   3.773   4.094   1.306 -0.2964 -0.2724  0.1873
  409MOL    H3449810   3.803   4.046   1.515 -0.8694 -0.6592 -0.3806
  409MOL    H3549811   3.633   4.063   1.478  0.2201 -1.5550 -1.0054
  409MOL    H3649812   3.863   4.155   1.294 -0.6520  0.2923  0.3667
  409MOL    H3749813   3.817   3.999   1.277  0.6879 -0.1435  1.2434
  409MOL    C3849814   3.664   4.139   1.205 -0.3859  0.6470 -0.7080
  409MOL    C3949815   3.705   4.165   1.063 -0.0357  0.5338 -0.5463
  409MOL    H4049816   3.575   4.077   1.198  0.8528 -1.2310 -0.1686
  409MOL    H4149817   3.633   4.236   1.243  2.1144  0.8736  0.8996
  409MOL    H4249818   3.796   4.226   1.065  2.6362 -3.2627  0.4379
  409MOL    H4349819   3.723   4.062   1.032  0.4386  0.7316 -0.9401
  409MOL    C4449820   3.600   4.230   0.978  1.0997 -0.3639 -0.3859
  409MOL    C4549821   3.639   4.238   0.833  0.1825 -0.5966  0.3861
  409MOL    H4649822   3.513   4.165   0.990  0.8228  0.1055  0.1306
  409MOL    H4749823   3.564   4.323   1.020 -2.7147 -0.4584 -3.1447
  409MOL    H4849824   3.726   4.303   0.822 -0.0894 -0.4813 -1.2451
  409MOL    H4949825   3.675   4.139   0.807  1.4612 -0.2487  0.7859
  409MOL    C5049826   3.529   4.272   0.734  0.5121  0.3637 -0.6995
  409MOL    C5149827   3.580   4.269   0.588 -0.1556 -0.1232 -0.2639
  409MOL    H5249828   3.449   4.198   0.746  1.4115 -0.2914  1.5759
  409MOL    H5349829   3.494   4.374   0.755 -0.7610  0.0853 -1.4190
  409MOL    H5449830   3.665   4.334   0.564  1.2561 -0.9250  2.4007
  409MOL    H5549831   3.615   4.168   0.568 -0.2548 -0.1823 -0.1329
  409MOL    C5649832   3.462   4.284   0.485 -0.4231  0.6343  0.8171
  409MOL    C5749833   3.498   4.240   0.335  0.0510 -0.0329  0.7484
  409MOL    H5849834   3.381   4.219   0.519 -0.0737 -0.2170  0.0465
  409MOL    H5949835   3.428   4.388   0.486 -0.3236  0.6652  1.5228
  409MOL    H6049836   3.562   4.321   0.301  0.9241 -0.7550  0.6602
  409MOL    H6149837   3.539   4.139   0.338 -1.4186 -0.6647  0.3637
  409MOL    C6249838   3.370   4.250   0.254  0.0253  0.1685  0.3892
  409MOL    C6349839   3.381   4.223   0.107 -0.3455 -0.4542 -0.5503
  409MOL    H6449840   3.299   4.175   0.289  0.0716 -0.0875 -0.0663
  409MOL    H6549841   3.329   4.349   0.274  1.5286  0.8056  0.4158
  409MOL    H6649842   3.429   4.311   0.063 -1.7745  1.3723  1.4737
  409MOL    H6749843   3.430   4.128   0.088 -1.1738 -1.3896  1.8886
  409MOL    C6849844   3.250   4.223   0.034  0.2471  0.0493 -0.2454
  409MOL    C6949845   3.262   4.198   7.578 -0.5632  0.0563 -0.0873
  409MOL    H7049846   3.185   4.147   0.077  1.6702 -0.5396  0.9276
  409MOL    H7149847   3.199   4.318   0.046  1.8693  0.6302  2.6225
  409MOL    H7249848   3.307   4.285   7.530 -0.1351 -0.0069  0.1937
  409MOL    H7349849   3.327   4.113   7.562  0.9995  1.1693  0.2687
  409MOL    C7449850   3.125   4.167   7.513 -0.2312 -0.2037  0.9824
  409MOL    C7549851   3.138   4.128   7.365 -0.1821 -0.3563  0.0945
  409MOL    H7649852   3.072   4.092   7.572 -2.6826  0.6981 -0.0026
  409MOL    H7749853   3.049   4.245   7.521  1.0395  1.0429  1.0267
  409MOL    H7849854   3.180   4.210   7.307  3.5686 -1.5029  1.0637
  409MOL    H7949855   3.208   4.044   7.360  1.7638  1.0558  2.1596
  409MOL    C8049856   3.004   4.091   7.307  0.1761  0.3335 -0.7971
  409MOL    C8149857   3.012   4.006   7.183  0.3701 -0.1341  0.4462
  409MOL    H8249858   2.942   4.045   7.384 -0.0597  2.4375  0.3219
  409MOL    H8349859   2.948   4.177   7.271  1.1152  0.1750 -2.6852
  409MOL    H8449860   3.090   4.042   7.117  1.0480 -0.5130  1.0293
  409MOL    H8549861   3.039   3.904   7.210  1.0212 -0.4321 -1.2950
  409MOL    C8649862   2.883   3.990   7.100 -0.1227 -0.0394 -0.2975
  409MOL    C8749863   2.892   3.905   6.971  0.3610  0.1660 -0.2868
  409MOL    H8849864   2.800   3.953   7.160 -0.5692  1.5082  0.0548
  409MOL    H8949865   2.849   4.090   7.075 -0.4770  0.2045  1.0920
  409MOL    H9049866   2.792   3.913   6.929  0.5862  5.8291 -0.1344
  409MOL    H9149867   2.947   3.957   6.892  1.2925 -1.9475 -1.0720
  409MOL    C9249868   2.956   3.768   6.986  0.8541  0.0048 -0.0824
  409MOL    C9349869   2.941   3.683   6.855 -0.1273 -0.5963 -0.3263
  409MOL    H9449870   3.062   3.783   7.005  0.9104  0.5255 -0.7978
  409MOL    H9549871   2.909   3.711   7.067  0.0348  0.5462 -0.1658
  409MOL    H9649872   2.843   3.659   6.812 -0.5663  0.4738  0.0654
  409MOL    H9749873   2.974   3.748   6.774 -1.4505  0.2805 -0.1873
  409MOL    C9849874   3.026   3.556   6.864 -0.4321 -0.0490 -0.9931
  409MOL    C9949875   2.958   3.429   6.927 -0.1432  0.1910  0.2234
  409MOL   H10049876   3.072   3.537   6.767  0.6260  0.8667 -0.6876
  409MOL   H10149877   3.110   3.576   6.931  0.2103  1.1844 -2.1378
  409MOL   H10249878   3.044   3.374   6.965 -0.8016  1.4675  3.7898
  409MOL   H10349879   2.910   3.455   7.022 -4.1563  1.9205 -2.1326
  409MOL   C10449880   2.870   3.346   6.832 -0.3821 -0.2777  0.3546
  409MOL   C10549881   2.848   3.205   6.887  0.4005  0.1289  0.3334
  409MOL   H10649882   2.773   3.396   6.828  0.2458  1.0393  1.1811
  409MOL   H10749883   2.918   3.339   6.734 -1.0418  1.9291 -0.1483
  409MOL   H10849884   2.942   3.153   6.869  1.0330  1.9891 -2.0516
  409MOL   H10949885   2.848   3.216   6.995 -1.0989 -2.5355  0.6244
  409MOL   C11049886   2.726   3.139   6.822  0.1012 -0.0176 -0.0685
  409MOL   C11149887   2.685   3.002   6.883  0.6367  0.0568 -0.2583
  409MOL   H11249888   2.637   3.200   6.832 -0.8092 -1.0314 -1.7422
  409MOL   H11349889   2.748   3.124   6.716  0.9637 -1.3318  0.2814
  409MOL   H11449890   2.601   2.966   6.824  0.0643 -0.7332  1.0073
  409MOL   H11549891   2.762   2.927   6.861 -0.3980 -1.0074 -0.3116
  409MOL   C11649892   2.652   3.011   7.036  0.0913 -0.1797  0.3538
  409MOL   C11749893   2.618   2.873   7.088  0.1603  0.1653  0.1186
  409MOL   H11849894   2.739   3.048   7.091 -0.4251  0.1425  0.9526
  409MOL   H11949895   2.569   3.079   7.055 -1.1088 -1.0630 -1.5763
  409MOL   H12049896   2.519   2.844   7.052  0.5932 -1.3944  0.1603
  409MOL   H12149897   2.687   2.793   7.060  0.0887 -0.0768  0.6397
  409MOL   H12249898   2.600   2.872   7.195 -3.6634  0.5367 -0.4486
   7.69192   7.69192   7.69192
