;
; Gromacs include topology (itp) file.
; For Molecular Group XYZ
; Force field scheme: opls2005
; Produced from DL_FIELD v4.11
;


[ moleculetype ]
; name    nrexcl
XYZ    3

[ atoms ]
; nr   type   resnr   residu    atom    cgnr    charge    mass
    1       CYA    1  MOL      C1     1  -0.1200000   12.0115
    2       CYA    1  MOL      C2     2  -0.1200000   12.0115
    3       CYA    1  MOL      C3     3  -0.0600000   12.0115
    4        CT    1  MOL      C4     4   0.1450000   12.0115
    5       OAL    1  MOL      O5     5  -0.6830000   15.9994
    6       CYA    1  MOL      C6     6  -0.1200000   12.0115
    7       CYA    1  MOL      C7     7  -0.1200000   12.0115
    8       CYA    1  MOL      C8     8  -0.0600000   12.0115
    9        CT    1  MOL      C9     9   0.1900000   12.0115
   10       OES    1  MOL     O10    10  -0.3300000   15.9994
   11       CO4    1  MOL     C11    11   0.6250000   12.0115
   12         O    1  MOL     O12    12  -0.4300000   15.9994
   13        CA    1  MOL     C13    13  -0.1150000   12.0115
   14        CA    1  MOL     C14    14  -0.1150000   12.0115
   15        CA    1  MOL     C15    15  -0.1150000   12.0115
   16        CA    1  MOL     C16    16  -0.1150000   12.0115
   17       CO4    1  MOL     C17    17   0.6250000   12.0115
   18         O    1  MOL     O18    18  -0.4300000   15.9994
   19       OES    1  MOL     O19    19  -0.0800000   15.9994
   20        CA    1  MOL     C20    20  -0.1150000   12.0115
   21        CA    1  MOL     C21    21  -0.1150000   12.0115
   22        HC    1  MOL     H22    22   0.0600000    1.0080
   23        HC    1  MOL     H23    23   0.0600000    1.0080
   24        HC    1  MOL     H24    24   0.0600000    1.0080
   25        HC    1  MOL     H25    25   0.0600000    1.0080
   26        HC    1  MOL     H26    26   0.0600000    1.0080
   27        HC    1  MOL     H27    27   0.0600000    1.0080
   28        HC    1  MOL     H28    28   0.0600000    1.0080
   29        HC    1  MOL     H29    29   0.0600000    1.0080
   30        HC    1  MOL     H30    30   0.0600000    1.0080
   31        HC    1  MOL     H31    31   0.0600000    1.0080
   32        HC    1  MOL     H32    32   0.0600000    1.0080
   33        HC    1  MOL     H33    33   0.0600000    1.0080
   34       HAE    1  MOL     H34    34   0.0300000    1.0080
   35       HAE    1  MOL     H35    35   0.0300000    1.0080
   36        HA    1  MOL     H36    36   0.1150000    1.0080
   37        HA    1  MOL     H37    37   0.1150000    1.0080
   38        HA    1  MOL     H38    38   0.1150000    1.0080
   39        HA    1  MOL     H39    39   0.1150000    1.0080
   40        HO    1  MOL     H40    40   0.4180000    1.0080
   41       CYA    1  MOL     C41    41  -0.1200000   12.0115
   42       CYA    1  MOL     C42    42  -0.1200000   12.0115
   43       CYA    1  MOL     C43    43  -0.0600000   12.0115
   44        CT    1  MOL     C44    44   0.0800000   12.0115
   45        OS    1  MOL     O45    45  -0.2000000   15.9994
   46       CYA    1  MOL     C46    46  -0.1200000   12.0115
   47       CYA    1  MOL     C47    47  -0.1200000   12.0115
   48       CYA    1  MOL     C48    48  -0.0600000   12.0115
   49        CT    1  MOL     C49    49   0.1900000   12.0115
   50       OES    1  MOL     O50    50  -0.3300000   15.9994
   51       CO4    1  MOL     C51    51   0.6250000   12.0115
   52         O    1  MOL     O52    52  -0.4300000   15.9994
   53        CA    1  MOL     C53    53  -0.1150000   12.0115
   54        CA    1  MOL     C54    54  -0.1150000   12.0115
   55        CA    1  MOL     C55    55  -0.1150000   12.0115
   56        CA    1  MOL     C56    56  -0.1150000   12.0115
   57       CO4    1  MOL     C57    57   0.6250000   12.0115
   58         O    1  MOL     O58    58  -0.4300000   15.9994
   59       OES    1  MOL     O59    59  -0.0800000   15.9994
   60        CA    1  MOL     C60    60  -0.1150000   12.0115
   61        CA    1  MOL     C61    61  -0.1150000   12.0115
   62        HC    1  MOL     H62    62   0.0600000    1.0080
   63        HC    1  MOL     H63    63   0.0600000    1.0080
   64        HC    1  MOL     H64    64   0.0600000    1.0080
   65        HC    1  MOL     H65    65   0.0600000    1.0080
   66        HC    1  MOL     H66    66   0.0600000    1.0080
   67        HC    1  MOL     H67    67   0.0600000    1.0080
   68        HC    1  MOL     H68    68   0.0600000    1.0080
   69        HC    1  MOL     H69    69   0.0600000    1.0080
   70        HC    1  MOL     H70    70   0.0600000    1.0080
   71        HC    1  MOL     H71    71   0.0600000    1.0080
   72        HC    1  MOL     H72    72   0.0600000    1.0080
   73        HC    1  MOL     H73    73   0.0600000    1.0080
   74       HAE    1  MOL     H74    74   0.0300000    1.0080
   75       HAE    1  MOL     H75    75   0.0300000    1.0080
   76        HA    1  MOL     H76    76   0.1150000    1.0080
   77        HA    1  MOL     H77    77   0.1150000    1.0080
   78        HA    1  MOL     H78    78   0.1150000    1.0080
   79        HA    1  MOL     H79    79   0.1150000    1.0080
   80       CYA    1  MOL     C80    80  -0.1200000   12.0115
   81       CYA    1  MOL     C81    81  -0.1200000   12.0115
   82       CYA    1  MOL     C82    82  -0.0600000   12.0115
   83        CT    1  MOL     C83    83   0.0800000   12.0115
   84        OS    1  MOL     O84    84  -0.2000000   15.9994
   85       CYA    1  MOL     C85    85  -0.1200000   12.0115
   86       CYA    1  MOL     C86    86  -0.1200000   12.0115
   87       CYA    1  MOL     C87    87  -0.0600000   12.0115
   88        CT    1  MOL     C88    88   0.1900000   12.0115
   89       OES    1  MOL     O89    89  -0.3300000   15.9994
   90       CO4    1  MOL     C90    90   0.6250000   12.0115
   91         O    1  MOL     O91    91  -0.4300000   15.9994
   92        CA    1  MOL     C92    92  -0.1150000   12.0115
   93        CA    1  MOL     C93    93  -0.1150000   12.0115
   94        CA    1  MOL     C94    94  -0.1150000   12.0115
   95        CA    1  MOL     C95    95  -0.1150000   12.0115
   96       CO4    1  MOL     C96    96   0.6250000   12.0115
   97         O    1  MOL     O97    97  -0.4300000   15.9994
   98       OES    1  MOL     O98    98  -0.0800000   15.9994
   99        CA    1  MOL     C99    99  -0.1150000   12.0115
  100        CA    1  MOL    C100   100  -0.1150000   12.0115
  101        HC    1  MOL    H101   101   0.0600000    1.0080
  102        HC    1  MOL    H102   102   0.0600000    1.0080
  103        HC    1  MOL    H103   103   0.0600000    1.0080
  104        HC    1  MOL    H104   104   0.0600000    1.0080
  105        HC    1  MOL    H105   105   0.0600000    1.0080
  106        HC    1  MOL    H106   106   0.0600000    1.0080
  107        HC    1  MOL    H107   107   0.0600000    1.0080
  108        HC    1  MOL    H108   108   0.0600000    1.0080
  109        HC    1  MOL    H109   109   0.0600000    1.0080
  110        HC    1  MOL    H110   110   0.0600000    1.0080
  111        HC    1  MOL    H111   111   0.0600000    1.0080
  112        HC    1  MOL    H112   112   0.0600000    1.0080
  113       HAE    1  MOL    H113   113   0.0300000    1.0080
  114       HAE    1  MOL    H114   114   0.0300000    1.0080
  115        HA    1  MOL    H115   115   0.1150000    1.0080
  116        HA    1  MOL    H116   116   0.1150000    1.0080
  117        HA    1  MOL    H117   117   0.1150000    1.0080
  118        HA    1  MOL    H118   118   0.1150000    1.0080
  119       CYA    1  MOL    C119   119  -0.1200000   12.0115
  120       CYA    1  MOL    C120   120  -0.1200000   12.0115
  121       CYA    1  MOL    C121   121  -0.0600000   12.0115
  122        CT    1  MOL    C122   122   0.0800000   12.0115
  123        OS    1  MOL    O123   123  -0.2000000   15.9994
  124       CYA    1  MOL    C124   124  -0.1200000   12.0115
  125       CYA    1  MOL    C125   125  -0.1200000   12.0115
  126       CYA    1  MOL    C126   126  -0.0600000   12.0115
  127        CT    1  MOL    C127   127   0.1900000   12.0115
  128       OES    1  MOL    O128   128  -0.3300000   15.9994
  129       CO4    1  MOL    C129   129   0.6250000   12.0115
  130         O    1  MOL    O130   130  -0.4300000   15.9994
  131        CA    1  MOL    C131   131  -0.1150000   12.0115
  132        CA    1  MOL    C132   132  -0.1150000   12.0115
  133        CA    1  MOL    C133   133  -0.1150000   12.0115
  134        CA    1  MOL    C134   134  -0.1150000   12.0115
  135       CO4    1  MOL    C135   135   0.6250000   12.0115
  136         O    1  MOL    O136   136  -0.4300000   15.9994
  137       OES    1  MOL    O137   137  -0.0800000   15.9994
  138        CA    1  MOL    C138   138  -0.1150000   12.0115
  139        CA    1  MOL    C139   139  -0.1150000   12.0115
  140        HC    1  MOL    H140   140   0.0600000    1.0080
  141        HC    1  MOL    H141   141   0.0600000    1.0080
  142        HC    1  MOL    H142   142   0.0600000    1.0080
  143        HC    1  MOL    H143   143   0.0600000    1.0080
  144        HC    1  MOL    H144   144   0.0600000    1.0080
  145        HC    1  MOL    H145   145   0.0600000    1.0080
  146        HC    1  MOL    H146   146   0.0600000    1.0080
  147        HC    1  MOL    H147   147   0.0600000    1.0080
  148        HC    1  MOL    H148   148   0.0600000    1.0080
  149        HC    1  MOL    H149   149   0.0600000    1.0080
  150        HC    1  MOL    H150   150   0.0600000    1.0080
  151        HC    1  MOL    H151   151   0.0600000    1.0080
  152       HAE    1  MOL    H152   152   0.0300000    1.0080
  153       HAE    1  MOL    H153   153   0.0300000    1.0080
  154        HA    1  MOL    H154   154   0.1150000    1.0080
  155        HA    1  MOL    H155   155   0.1150000    1.0080
  156        HA    1  MOL    H156   156   0.1150000    1.0080
  157        HA    1  MOL    H157   157   0.1150000    1.0080
  158       CYA    1  MOL    C158   158  -0.1200000   12.0115
  159       CYA    1  MOL    C159   159  -0.1200000   12.0115
  160       CYA    1  MOL    C160   160  -0.0600000   12.0115
  161        CT    1  MOL    C161   161   0.0800000   12.0115
  162        OS    1  MOL    O162   162  -0.2000000   15.9994
  163       CYA    1  MOL    C163   163  -0.1200000   12.0115
  164       CYA    1  MOL    C164   164  -0.1200000   12.0115
  165       CYA    1  MOL    C165   165  -0.0600000   12.0115
  166        CT    1  MOL    C166   166   0.1900000   12.0115
  167       OES    1  MOL    O167   167  -0.3300000   15.9994
  168       CO4    1  MOL    C168   168   0.6250000   12.0115
  169         O    1  MOL    O169   169  -0.4300000   15.9994
  170        CA    1  MOL    C170   170  -0.1150000   12.0115
  171        CA    1  MOL    C171   171  -0.1150000   12.0115
  172        CA    1  MOL    C172   172  -0.1150000   12.0115
  173        CA    1  MOL    C173   173  -0.1150000   12.0115
  174       CO4    1  MOL    C174   174   0.6250000   12.0115
  175         O    1  MOL    O175   175  -0.4300000   15.9994
  176       OES    1  MOL    O176   176  -0.0800000   15.9994
  177        CA    1  MOL    C177   177  -0.1150000   12.0115
  178        CA    1  MOL    C178   178  -0.1150000   12.0115
  179        HC    1  MOL    H179   179   0.0600000    1.0080
  180        HC    1  MOL    H180   180   0.0600000    1.0080
  181        HC    1  MOL    H181   181   0.0600000    1.0080
  182        HC    1  MOL    H182   182   0.0600000    1.0080
  183        HC    1  MOL    H183   183   0.0600000    1.0080
  184        HC    1  MOL    H184   184   0.0600000    1.0080
  185        HC    1  MOL    H185   185   0.0600000    1.0080
  186        HC    1  MOL    H186   186   0.0600000    1.0080
  187        HC    1  MOL    H187   187   0.0600000    1.0080
  188        HC    1  MOL    H188   188   0.0600000    1.0080
  189        HC    1  MOL    H189   189   0.0600000    1.0080
  190        HC    1  MOL    H190   190   0.0600000    1.0080
  191       HAE    1  MOL    H191   191   0.0300000    1.0080
  192       HAE    1  MOL    H192   192   0.0300000    1.0080
  193        HA    1  MOL    H193   193   0.1150000    1.0080
  194        HA    1  MOL    H194   194   0.1150000    1.0080
  195        HA    1  MOL    H195   195   0.1150000    1.0080
  196        HA    1  MOL    H196   196   0.1150000    1.0080
  197       CYA    1  MOL    C197   197  -0.1200000   12.0115
  198       CYA    1  MOL    C198   198  -0.1200000   12.0115
  199       CYA    1  MOL    C199   199  -0.0600000   12.0115
  200        CT    1  MOL    C200   200   0.0800000   12.0115
  201        OS    1  MOL    O201   201  -0.2000000   15.9994
  202       CYA    1  MOL    C202   202  -0.1200000   12.0115
  203       CYA    1  MOL    C203   203  -0.1200000   12.0115
  204       CYA    1  MOL    C204   204  -0.0600000   12.0115
  205        CT    1  MOL    C205   205   0.1900000   12.0115
  206       OES    1  MOL    O206   206  -0.3300000   15.9994
  207       CO4    1  MOL    C207   207   0.6250000   12.0115
  208         O    1  MOL    O208   208  -0.4300000   15.9994
  209        CA    1  MOL    C209   209  -0.1150000   12.0115
  210        CA    1  MOL    C210   210  -0.1150000   12.0115
  211        CA    1  MOL    C211   211  -0.1150000   12.0115
  212        CA    1  MOL    C212   212  -0.1150000   12.0115
  213       CO4    1  MOL    C213   213   0.6250000   12.0115
  214         O    1  MOL    O214   214  -0.4300000   15.9994
  215       OES    1  MOL    O215   215  -0.0800000   15.9994
  216        CA    1  MOL    C216   216  -0.1150000   12.0115
  217        CA    1  MOL    C217   217  -0.1150000   12.0115
  218        HC    1  MOL    H218   218   0.0600000    1.0080
  219        HC    1  MOL    H219   219   0.0600000    1.0080
  220        HC    1  MOL    H220   220   0.0600000    1.0080
  221        HC    1  MOL    H221   221   0.0600000    1.0080
  222        HC    1  MOL    H222   222   0.0600000    1.0080
  223        HC    1  MOL    H223   223   0.0600000    1.0080
  224        HC    1  MOL    H224   224   0.0600000    1.0080
  225        HC    1  MOL    H225   225   0.0600000    1.0080
  226        HC    1  MOL    H226   226   0.0600000    1.0080
  227        HC    1  MOL    H227   227   0.0600000    1.0080
  228        HC    1  MOL    H228   228   0.0600000    1.0080
  229        HC    1  MOL    H229   229   0.0600000    1.0080
  230       HAE    1  MOL    H230   230   0.0300000    1.0080
  231       HAE    1  MOL    H231   231   0.0300000    1.0080
  232        HA    1  MOL    H232   232   0.1150000    1.0080
  233        HA    1  MOL    H233   233   0.1150000    1.0080
  234        HA    1  MOL    H234   234   0.1150000    1.0080
  235        HA    1  MOL    H235   235   0.1150000    1.0080
  236       CYA    1  MOL    C236   236  -0.1200000   12.0115
  237       CYA    1  MOL    C237   237  -0.1200000   12.0115
  238       CYA    1  MOL    C238   238  -0.0600000   12.0115
  239        CT    1  MOL    C239   239   0.0800000   12.0115
  240        OS    1  MOL    O240   240  -0.2000000   15.9994
  241       CYA    1  MOL    C241   241  -0.1200000   12.0115
  242       CYA    1  MOL    C242   242  -0.1200000   12.0115
  243       CYA    1  MOL    C243   243  -0.0600000   12.0115
  244        CT    1  MOL    C244   244   0.1900000   12.0115
  245       OES    1  MOL    O245   245  -0.3300000   15.9994
  246       CO4    1  MOL    C246   246   0.6250000   12.0115
  247         O    1  MOL    O247   247  -0.4300000   15.9994
  248        CA    1  MOL    C248   248  -0.1150000   12.0115
  249        CA    1  MOL    C249   249  -0.1150000   12.0115
  250        CA    1  MOL    C250   250  -0.1150000   12.0115
  251        CA    1  MOL    C251   251  -0.1150000   12.0115
  252       CO4    1  MOL    C252   252   0.6250000   12.0115
  253         O    1  MOL    O253   253  -0.4300000   15.9994
  254       OES    1  MOL    O254   254  -0.0800000   15.9994
  255        CA    1  MOL    C255   255  -0.1150000   12.0115
  256        CA    1  MOL    C256   256  -0.1150000   12.0115
  257        HC    1  MOL    H257   257   0.0600000    1.0080
  258        HC    1  MOL    H258   258   0.0600000    1.0080
  259        HC    1  MOL    H259   259   0.0600000    1.0080
  260        HC    1  MOL    H260   260   0.0600000    1.0080
  261        HC    1  MOL    H261   261   0.0600000    1.0080
  262        HC    1  MOL    H262   262   0.0600000    1.0080
  263        HC    1  MOL    H263   263   0.0600000    1.0080
  264        HC    1  MOL    H264   264   0.0600000    1.0080
  265        HC    1  MOL    H265   265   0.0600000    1.0080
  266        HC    1  MOL    H266   266   0.0600000    1.0080
  267        HC    1  MOL    H267   267   0.0600000    1.0080
  268        HC    1  MOL    H268   268   0.0600000    1.0080
  269       HAE    1  MOL    H269   269   0.0300000    1.0080
  270       HAE    1  MOL    H270   270   0.0300000    1.0080
  271        HA    1  MOL    H271   271   0.1150000    1.0080
  272        HA    1  MOL    H272   272   0.1150000    1.0080
  273        HA    1  MOL    H273   273   0.1150000    1.0080
  274        HA    1  MOL    H274   274   0.1150000    1.0080
  275       CYA    1  MOL    C275   275  -0.1200000   12.0115
  276       CYA    1  MOL    C276   276  -0.1200000   12.0115
  277       CYA    1  MOL    C277   277  -0.0600000   12.0115
  278        CT    1  MOL    C278   278   0.0800000   12.0115
  279        OS    1  MOL    O279   279  -0.2000000   15.9994
  280       CYA    1  MOL    C280   280  -0.1200000   12.0115
  281       CYA    1  MOL    C281   281  -0.1200000   12.0115
  282       CYA    1  MOL    C282   282  -0.0600000   12.0115
  283        CT    1  MOL    C283   283   0.1900000   12.0115
  284       OES    1  MOL    O284   284  -0.3300000   15.9994
  285       CO4    1  MOL    C285   285   0.6250000   12.0115
  286         O    1  MOL    O286   286  -0.4300000   15.9994
  287        CA    1  MOL    C287   287  -0.1150000   12.0115
  288        CA    1  MOL    C288   288  -0.1150000   12.0115
  289        CA    1  MOL    C289   289  -0.1150000   12.0115
  290        CA    1  MOL    C290   290  -0.1150000   12.0115
  291       CO4    1  MOL    C291   291   0.6250000   12.0115
  292         O    1  MOL    O292   292  -0.4300000   15.9994
  293       OES    1  MOL    O293   293  -0.0800000   15.9994
  294        CA    1  MOL    C294   294  -0.1150000   12.0115
  295        CA    1  MOL    C295   295  -0.1150000   12.0115
  296        HC    1  MOL    H296   296   0.0600000    1.0080
  297        HC    1  MOL    H297   297   0.0600000    1.0080
  298        HC    1  MOL    H298   298   0.0600000    1.0080
  299        HC    1  MOL    H299   299   0.0600000    1.0080
  300        HC    1  MOL    H300   300   0.0600000    1.0080
  301        HC    1  MOL    H301   301   0.0600000    1.0080
  302        HC    1  MOL    H302   302   0.0600000    1.0080
  303        HC    1  MOL    H303   303   0.0600000    1.0080
  304        HC    1  MOL    H304   304   0.0600000    1.0080
  305        HC    1  MOL    H305   305   0.0600000    1.0080
  306        HC    1  MOL    H306   306   0.0600000    1.0080
  307        HC    1  MOL    H307   307   0.0600000    1.0080
  308       HAE    1  MOL    H308   308   0.0300000    1.0080
  309       HAE    1  MOL    H309   309   0.0300000    1.0080
  310        HA    1  MOL    H310   310   0.1150000    1.0080
  311        HA    1  MOL    H311   311   0.1150000    1.0080
  312        HA    1  MOL    H312   312   0.1150000    1.0080
  313        HA    1  MOL    H313   313   0.1150000    1.0080
  314       CYA    1  MOL    C314   314  -0.1200000   12.0115
  315       CYA    1  MOL    C315   315  -0.1200000   12.0115
  316       CYA    1  MOL    C316   316  -0.0600000   12.0115
  317        CT    1  MOL    C317   317   0.0800000   12.0115
  318        OS    1  MOL    O318   318  -0.2000000   15.9994
  319       CYA    1  MOL    C319   319  -0.1200000   12.0115
  320       CYA    1  MOL    C320   320  -0.1200000   12.0115
  321       CYA    1  MOL    C321   321  -0.0600000   12.0115
  322        CT    1  MOL    C322   322   0.1900000   12.0115
  323       OES    1  MOL    O323   323  -0.3300000   15.9994
  324       CO4    1  MOL    C324   324   0.6250000   12.0115
  325         O    1  MOL    O325   325  -0.4300000   15.9994
  326        CA    1  MOL    C326   326  -0.1150000   12.0115
  327        CA    1  MOL    C327   327  -0.1150000   12.0115
  328        CA    1  MOL    C328   328  -0.1150000   12.0115
  329        CA    1  MOL    C329   329  -0.1150000   12.0115
  330       CO4    1  MOL    C330   330   0.6250000   12.0115
  331         O    1  MOL    O331   331  -0.4300000   15.9994
  332       OES    1  MOL    O332   332  -0.0800000   15.9994
  333        CA    1  MOL    C333   333  -0.1150000   12.0115
  334        CA    1  MOL    C334   334  -0.1150000   12.0115
  335        HC    1  MOL    H335   335   0.0600000    1.0080
  336        HC    1  MOL    H336   336   0.0600000    1.0080
  337        HC    1  MOL    H337   337   0.0600000    1.0080
  338        HC    1  MOL    H338   338   0.0600000    1.0080
  339        HC    1  MOL    H339   339   0.0600000    1.0080
  340        HC    1  MOL    H340   340   0.0600000    1.0080
  341        HC    1  MOL    H341   341   0.0600000    1.0080
  342        HC    1  MOL    H342   342   0.0600000    1.0080
  343        HC    1  MOL    H343   343   0.0600000    1.0080
  344        HC    1  MOL    H344   344   0.0600000    1.0080
  345        HC    1  MOL    H345   345   0.0600000    1.0080
  346        HC    1  MOL    H346   346   0.0600000    1.0080
  347       HAE    1  MOL    H347   347   0.0300000    1.0080
  348       HAE    1  MOL    H348   348   0.0300000    1.0080
  349        HA    1  MOL    H349   349   0.1150000    1.0080
  350        HA    1  MOL    H350   350   0.1150000    1.0080
  351        HA    1  MOL    H351   351   0.1150000    1.0080
  352        HA    1  MOL    H352   352   0.1150000    1.0080
  353       CYA    1  MOL    C353   353  -0.1200000   12.0115
  354       CYA    1  MOL    C354   354  -0.1200000   12.0115
  355       CYA    1  MOL    C355   355  -0.0600000   12.0115
  356        CT    1  MOL    C356   356   0.0800000   12.0115
  357        OS    1  MOL    O357   357  -0.2000000   15.9994
  358       CYA    1  MOL    C358   358  -0.1200000   12.0115
  359       CYA    1  MOL    C359   359  -0.1200000   12.0115
  360       CYA    1  MOL    C360   360  -0.0600000   12.0115
  361        CT    1  MOL    C361   361   0.1900000   12.0115
  362       OES    1  MOL    O362   362  -0.3300000   15.9994
  363       CO4    1  MOL    C363   363   0.6250000   12.0115
  364         O    1  MOL    O364   364  -0.4300000   15.9994
  365        CA    1  MOL    C365   365  -0.1150000   12.0115
  366        CA    1  MOL    C366   366  -0.1150000   12.0115
  367        CA    1  MOL    C367   367  -0.1150000   12.0115
  368        CA    1  MOL    C368   368  -0.1150000   12.0115
  369       CO4    1  MOL    C369   369   0.6250000   12.0115
  370         O    1  MOL    O370   370  -0.4300000   15.9994
  371       OES    1  MOL    O371   371  -0.0800000   15.9994
  372        CA    1  MOL    C372   372  -0.1150000   12.0115
  373        CA    1  MOL    C373   373  -0.1150000   12.0115
  374        HC    1  MOL    H374   374   0.0600000    1.0080
  375        HC    1  MOL    H375   375   0.0600000    1.0080
  376        HC    1  MOL    H376   376   0.0600000    1.0080
  377        HC    1  MOL    H377   377   0.0600000    1.0080
  378        HC    1  MOL    H378   378   0.0600000    1.0080
  379        HC    1  MOL    H379   379   0.0600000    1.0080
  380        HC    1  MOL    H380   380   0.0600000    1.0080
  381        HC    1  MOL    H381   381   0.0600000    1.0080
  382        HC    1  MOL    H382   382   0.0600000    1.0080
  383        HC    1  MOL    H383   383   0.0600000    1.0080
  384        HC    1  MOL    H384   384   0.0600000    1.0080
  385        HC    1  MOL    H385   385   0.0600000    1.0080
  386       HAE    1  MOL    H386   386   0.0300000    1.0080
  387       HAE    1  MOL    H387   387   0.0300000    1.0080
  388        HA    1  MOL    H388   388   0.1150000    1.0080
  389        HA    1  MOL    H389   389   0.1150000    1.0080
  390        HA    1  MOL    H390   390   0.1150000    1.0080
  391        HA    1  MOL    H391   391   0.1150000    1.0080
  392       CYA    1  MOL    C392   392  -0.1200000   12.0115
  393       CYA    1  MOL    C393   393  -0.1200000   12.0115
  394       CYA    1  MOL    C394   394  -0.0600000   12.0115
  395        CT    1  MOL    C395   395   0.0800000   12.0115
  396        OS    1  MOL    O396   396  -0.2000000   15.9994
  397       CYA    1  MOL    C397   397  -0.1200000   12.0115
  398       CYA    1  MOL    C398   398  -0.1200000   12.0115
  399       CYA    1  MOL    C399   399  -0.0600000   12.0115
  400        CT    1  MOL    C400   400   0.1900000   12.0115
  401       OES    1  MOL    O401   401  -0.3300000   15.9994
  402       CO4    1  MOL    C402   402   0.6250000   12.0115
  403         O    1  MOL    O403   403  -0.4300000   15.9994
  404        CA    1  MOL    C404   404  -0.1150000   12.0115
  405        CA    1  MOL    C405   405  -0.1150000   12.0115
  406        CA    1  MOL    C406   406  -0.1150000   12.0115
  407        CA    1  MOL    C407   407  -0.1150000   12.0115
  408       CO4    1  MOL    C408   408   0.6250000   12.0115
  409         O    1  MOL    O409   409  -0.4300000   15.9994
  410       OES    1  MOL    O410   410  -0.0800000   15.9994
  411        CA    1  MOL    C411   411  -0.1150000   12.0115
  412        CA    1  MOL    C412   412  -0.1150000   12.0115
  413        HC    1  MOL    H413   413   0.0600000    1.0080
  414        HC    1  MOL    H414   414   0.0600000    1.0080
  415        HC    1  MOL    H415   415   0.0600000    1.0080
  416        HC    1  MOL    H416   416   0.0600000    1.0080
  417        HC    1  MOL    H417   417   0.0600000    1.0080
  418        HC    1  MOL    H418   418   0.0600000    1.0080
  419        HC    1  MOL    H419   419   0.0600000    1.0080
  420        HC    1  MOL    H420   420   0.0600000    1.0080
  421        HC    1  MOL    H421   421   0.0600000    1.0080
  422        HC    1  MOL    H422   422   0.0600000    1.0080
  423        HC    1  MOL    H423   423   0.0600000    1.0080
  424        HC    1  MOL    H424   424   0.0600000    1.0080
  425       HAE    1  MOL    H425   425   0.0300000    1.0080
  426       HAE    1  MOL    H426   426   0.0300000    1.0080
  427        HA    1  MOL    H427   427   0.1150000    1.0080
  428        HA    1  MOL    H428   428   0.1150000    1.0080
  429        HA    1  MOL    H429   429   0.1150000    1.0080
  430        HA    1  MOL    H430   430   0.1150000    1.0080
  431       CYA    1  MOL    C431   431  -0.1200000   12.0115
  432       CYA    1  MOL    C432   432  -0.1200000   12.0115
  433       CYA    1  MOL    C433   433  -0.0600000   12.0115
  434        CT    1  MOL    C434   434   0.0800000   12.0115
  435        OS    1  MOL    O435   435  -0.2000000   15.9994
  436       CYA    1  MOL    C436   436  -0.1200000   12.0115
  437       CYA    1  MOL    C437   437  -0.1200000   12.0115
  438       CYA    1  MOL    C438   438  -0.0600000   12.0115
  439        CT    1  MOL    C439   439   0.1900000   12.0115
  440       OES    1  MOL    O440   440  -0.3300000   15.9994
  441       CO4    1  MOL    C441   441   0.6250000   12.0115
  442         O    1  MOL    O442   442  -0.4300000   15.9994
  443        CA    1  MOL    C443   443  -0.1150000   12.0115
  444        CA    1  MOL    C444   444  -0.1150000   12.0115
  445        CA    1  MOL    C445   445  -0.1150000   12.0115
  446        CA    1  MOL    C446   446  -0.1150000   12.0115
  447       CO4    1  MOL    C447   447   0.6250000   12.0115
  448         O    1  MOL    O448   448  -0.4300000   15.9994
  449       OES    1  MOL    O449   449  -0.0800000   15.9994
  450        CA    1  MOL    C450   450  -0.1150000   12.0115
  451        CA    1  MOL    C451   451  -0.1150000   12.0115
  452        HC    1  MOL    H452   452   0.0600000    1.0080
  453        HC    1  MOL    H453   453   0.0600000    1.0080
  454        HC    1  MOL    H454   454   0.0600000    1.0080
  455        HC    1  MOL    H455   455   0.0600000    1.0080
  456        HC    1  MOL    H456   456   0.0600000    1.0080
  457        HC    1  MOL    H457   457   0.0600000    1.0080
  458        HC    1  MOL    H458   458   0.0600000    1.0080
  459        HC    1  MOL    H459   459   0.0600000    1.0080
  460        HC    1  MOL    H460   460   0.0600000    1.0080
  461        HC    1  MOL    H461   461   0.0600000    1.0080
  462        HC    1  MOL    H462   462   0.0600000    1.0080
  463        HC    1  MOL    H463   463   0.0600000    1.0080
  464       HAE    1  MOL    H464   464   0.0300000    1.0080
  465       HAE    1  MOL    H465   465   0.0300000    1.0080
  466        HA    1  MOL    H466   466   0.1150000    1.0080
  467        HA    1  MOL    H467   467   0.1150000    1.0080
  468        HA    1  MOL    H468   468   0.1150000    1.0080
  469        HA    1  MOL    H469   469   0.1150000    1.0080
  470       CYA    1  MOL    C470   470  -0.1200000   12.0115
  471       CYA    1  MOL    C471   471  -0.1200000   12.0115
  472       CYA    1  MOL    C472   472  -0.0600000   12.0115
  473        CT    1  MOL    C473   473   0.0800000   12.0115
  474        OS    1  MOL    O474   474  -0.2000000   15.9994
  475       CYA    1  MOL    C475   475  -0.1200000   12.0115
  476       CYA    1  MOL    C476   476  -0.1200000   12.0115
  477       CYA    1  MOL    C477   477  -0.0600000   12.0115
  478        CT    1  MOL    C478   478   0.1900000   12.0115
  479       OES    1  MOL    O479   479  -0.3300000   15.9994
  480       CO4    1  MOL    C480   480   0.6250000   12.0115
  481         O    1  MOL    O481   481  -0.4300000   15.9994
  482        CA    1  MOL    C482   482  -0.1150000   12.0115
  483        CA    1  MOL    C483   483  -0.1150000   12.0115
  484        CA    1  MOL    C484   484  -0.1150000   12.0115
  485        CA    1  MOL    C485   485  -0.1150000   12.0115
  486       CO4    1  MOL    C486   486   0.6250000   12.0115
  487         O    1  MOL    O487   487  -0.4300000   15.9994
  488       OES    1  MOL    O488   488  -0.0800000   15.9994
  489        CA    1  MOL    C489   489  -0.1150000   12.0115
  490        CA    1  MOL    C490   490  -0.1150000   12.0115
  491        HC    1  MOL    H491   491   0.0600000    1.0080
  492        HC    1  MOL    H492   492   0.0600000    1.0080
  493        HC    1  MOL    H493   493   0.0600000    1.0080
  494        HC    1  MOL    H494   494   0.0600000    1.0080
  495        HC    1  MOL    H495   495   0.0600000    1.0080
  496        HC    1  MOL    H496   496   0.0600000    1.0080
  497        HC    1  MOL    H497   497   0.0600000    1.0080
  498        HC    1  MOL    H498   498   0.0600000    1.0080
  499        HC    1  MOL    H499   499   0.0600000    1.0080
  500        HC    1  MOL    H500   500   0.0600000    1.0080
  501        HC    1  MOL    H501   501   0.0600000    1.0080
  502        HC    1  MOL    H502   502   0.0600000    1.0080
  503       HAE    1  MOL    H503   503   0.0300000    1.0080
  504       HAE    1  MOL    H504   504   0.0300000    1.0080
  505        HA    1  MOL    H505   505   0.1150000    1.0080
  506        HA    1  MOL    H506   506   0.1150000    1.0080
  507        HA    1  MOL    H507   507   0.1150000    1.0080
  508        HA    1  MOL    H508   508   0.1150000    1.0080
  509       CYA    1  MOL    C509   509  -0.1200000   12.0115
  510       CYA    1  MOL    C510   510  -0.1200000   12.0115
  511       CYA    1  MOL    C511   511  -0.0600000   12.0115
  512        CT    1  MOL    C512   512   0.0800000   12.0115
  513        OS    1  MOL    O513   513  -0.2000000   15.9994
  514       CYA    1  MOL    C514   514  -0.1200000   12.0115
  515       CYA    1  MOL    C515   515  -0.1200000   12.0115
  516       CYA    1  MOL    C516   516  -0.0600000   12.0115
  517        CT    1  MOL    C517   517   0.1900000   12.0115
  518       OES    1  MOL    O518   518  -0.3300000   15.9994
  519       CO4    1  MOL    C519   519   0.6250000   12.0115
  520         O    1  MOL    O520   520  -0.4300000   15.9994
  521        CA    1  MOL    C521   521  -0.1150000   12.0115
  522        CA    1  MOL    C522   522  -0.1150000   12.0115
  523        CA    1  MOL    C523   523  -0.1150000   12.0115
  524        CA    1  MOL    C524   524  -0.1150000   12.0115
  525       CO4    1  MOL    C525   525   0.6250000   12.0115
  526         O    1  MOL    O526   526  -0.4300000   15.9994
  527       OES    1  MOL    O527   527  -0.0800000   15.9994
  528        CA    1  MOL    C528   528  -0.1150000   12.0115
  529        CA    1  MOL    C529   529  -0.1150000   12.0115
  530        HC    1  MOL    H530   530   0.0600000    1.0080
  531        HC    1  MOL    H531   531   0.0600000    1.0080
  532        HC    1  MOL    H532   532   0.0600000    1.0080
  533        HC    1  MOL    H533   533   0.0600000    1.0080
  534        HC    1  MOL    H534   534   0.0600000    1.0080
  535        HC    1  MOL    H535   535   0.0600000    1.0080
  536        HC    1  MOL    H536   536   0.0600000    1.0080
  537        HC    1  MOL    H537   537   0.0600000    1.0080
  538        HC    1  MOL    H538   538   0.0600000    1.0080
  539        HC    1  MOL    H539   539   0.0600000    1.0080
  540        HC    1  MOL    H540   540   0.0600000    1.0080
  541        HC    1  MOL    H541   541   0.0600000    1.0080
  542       HAE    1  MOL    H542   542   0.0300000    1.0080
  543       HAE    1  MOL    H543   543   0.0300000    1.0080
  544        HA    1  MOL    H544   544   0.1150000    1.0080
  545        HA    1  MOL    H545   545   0.1150000    1.0080
  546        HA    1  MOL    H546   546   0.1150000    1.0080
  547        HA    1  MOL    H547   547   0.1150000    1.0080
  548       CYA    1  MOL    C548   548  -0.1200000   12.0115
  549       CYA    1  MOL    C549   549  -0.1200000   12.0115
  550       CYA    1  MOL    C550   550  -0.0600000   12.0115
  551        CT    1  MOL    C551   551   0.0800000   12.0115
  552        OS    1  MOL    O552   552  -0.2000000   15.9994
  553       CYA    1  MOL    C553   553  -0.1200000   12.0115
  554       CYA    1  MOL    C554   554  -0.1200000   12.0115
  555       CYA    1  MOL    C555   555  -0.0600000   12.0115
  556        CT    1  MOL    C556   556   0.1900000   12.0115
  557       OES    1  MOL    O557   557  -0.3300000   15.9994
  558       CO4    1  MOL    C558   558   0.6250000   12.0115
  559         O    1  MOL    O559   559  -0.4300000   15.9994
  560        CA    1  MOL    C560   560  -0.1150000   12.0115
  561        CA    1  MOL    C561   561  -0.1150000   12.0115
  562        CA    1  MOL    C562   562  -0.1150000   12.0115
  563        CA    1  MOL    C563   563  -0.1150000   12.0115
  564       CO4    1  MOL    C564   564   0.6250000   12.0115
  565         O    1  MOL    O565   565  -0.4300000   15.9994
  566       OES    1  MOL    O566   566  -0.0800000   15.9994
  567        CA    1  MOL    C567   567  -0.1150000   12.0115
  568        CA    1  MOL    C568   568  -0.1150000   12.0115
  569        HC    1  MOL    H569   569   0.0600000    1.0080
  570        HC    1  MOL    H570   570   0.0600000    1.0080
  571        HC    1  MOL    H571   571   0.0600000    1.0080
  572        HC    1  MOL    H572   572   0.0600000    1.0080
  573        HC    1  MOL    H573   573   0.0600000    1.0080
  574        HC    1  MOL    H574   574   0.0600000    1.0080
  575        HC    1  MOL    H575   575   0.0600000    1.0080
  576        HC    1  MOL    H576   576   0.0600000    1.0080
  577        HC    1  MOL    H577   577   0.0600000    1.0080
  578        HC    1  MOL    H578   578   0.0600000    1.0080
  579        HC    1  MOL    H579   579   0.0600000    1.0080
  580        HC    1  MOL    H580   580   0.0600000    1.0080
  581       HAE    1  MOL    H581   581   0.0300000    1.0080
  582       HAE    1  MOL    H582   582   0.0300000    1.0080
  583        HA    1  MOL    H583   583   0.1150000    1.0080
  584        HA    1  MOL    H584   584   0.1150000    1.0080
  585        HA    1  MOL    H585   585   0.1150000    1.0080
  586        HA    1  MOL    H586   586   0.1150000    1.0080
  587       CYA    1  MOL    C587   587  -0.1200000   12.0115
  588       CYA    1  MOL    C588   588  -0.1200000   12.0115
  589       CYA    1  MOL    C589   589  -0.0600000   12.0115
  590        CT    1  MOL    C590   590   0.0800000   12.0115
  591        OS    1  MOL    O591   591  -0.2000000   15.9994
  592       CYA    1  MOL    C592   592  -0.1200000   12.0115
  593       CYA    1  MOL    C593   593  -0.1200000   12.0115
  594       CYA    1  MOL    C594   594  -0.0600000   12.0115
  595        CT    1  MOL    C595   595   0.1900000   12.0115
  596       OES    1  MOL    O596   596  -0.3300000   15.9994
  597       CO4    1  MOL    C597   597   0.6250000   12.0115
  598         O    1  MOL    O598   598  -0.4300000   15.9994
  599        CA    1  MOL    C599   599  -0.1150000   12.0115
  600        CA    1  MOL    C600   600  -0.1150000   12.0115
  601        CA    1  MOL    C601   601  -0.1150000   12.0115
  602        CA    1  MOL    C602   602  -0.1150000   12.0115
  603       CO4    1  MOL    C603   603   0.6250000   12.0115
  604         O    1  MOL    O604   604  -0.4300000   15.9994
  605       OES    1  MOL    O605   605  -0.0800000   15.9994
  606        CA    1  MOL    C606   606  -0.1150000   12.0115
  607        CA    1  MOL    C607   607  -0.1150000   12.0115
  608        HC    1  MOL    H608   608   0.0600000    1.0080
  609        HC    1  MOL    H609   609   0.0600000    1.0080
  610        HC    1  MOL    H610   610   0.0600000    1.0080
  611        HC    1  MOL    H611   611   0.0600000    1.0080
  612        HC    1  MOL    H612   612   0.0600000    1.0080
  613        HC    1  MOL    H613   613   0.0600000    1.0080
  614        HC    1  MOL    H614   614   0.0600000    1.0080
  615        HC    1  MOL    H615   615   0.0600000    1.0080
  616        HC    1  MOL    H616   616   0.0600000    1.0080
  617        HC    1  MOL    H617   617   0.0600000    1.0080
  618        HC    1  MOL    H618   618   0.0600000    1.0080
  619        HC    1  MOL    H619   619   0.0600000    1.0080
  620       HAE    1  MOL    H620   620   0.0300000    1.0080
  621       HAE    1  MOL    H621   621   0.0300000    1.0080
  622        HA    1  MOL    H622   622   0.1150000    1.0080
  623        HA    1  MOL    H623   623   0.1150000    1.0080
  624        HA    1  MOL    H624   624   0.1150000    1.0080
  625        HA    1  MOL    H625   625   0.1150000    1.0080
  626       CYA    1  MOL    C626   626  -0.1200000   12.0115
  627       CYA    1  MOL    C627   627  -0.1200000   12.0115
  628       CYA    1  MOL    C628   628  -0.0600000   12.0115
  629        CT    1  MOL    C629   629   0.0800000   12.0115
  630        OS    1  MOL    O630   630  -0.2000000   15.9994
  631       CYA    1  MOL    C631   631  -0.1200000   12.0115
  632       CYA    1  MOL    C632   632  -0.1200000   12.0115
  633       CYA    1  MOL    C633   633  -0.0600000   12.0115
  634        CT    1  MOL    C634   634   0.1900000   12.0115
  635       OES    1  MOL    O635   635  -0.3300000   15.9994
  636       CO4    1  MOL    C636   636   0.6250000   12.0115
  637         O    1  MOL    O637   637  -0.4300000   15.9994
  638        CA    1  MOL    C638   638  -0.1150000   12.0115
  639        CA    1  MOL    C639   639  -0.1150000   12.0115
  640        CA    1  MOL    C640   640  -0.1150000   12.0115
  641        CA    1  MOL    C641   641  -0.1150000   12.0115
  642       CO4    1  MOL    C642   642   0.6250000   12.0115
  643         O    1  MOL    O643   643  -0.4300000   15.9994
  644       OES    1  MOL    O644   644  -0.0800000   15.9994
  645        CA    1  MOL    C645   645  -0.1150000   12.0115
  646        CA    1  MOL    C646   646  -0.1150000   12.0115
  647        HC    1  MOL    H647   647   0.0600000    1.0080
  648        HC    1  MOL    H648   648   0.0600000    1.0080
  649        HC    1  MOL    H649   649   0.0600000    1.0080
  650        HC    1  MOL    H650   650   0.0600000    1.0080
  651        HC    1  MOL    H651   651   0.0600000    1.0080
  652        HC    1  MOL    H652   652   0.0600000    1.0080
  653        HC    1  MOL    H653   653   0.0600000    1.0080
  654        HC    1  MOL    H654   654   0.0600000    1.0080
  655        HC    1  MOL    H655   655   0.0600000    1.0080
  656        HC    1  MOL    H656   656   0.0600000    1.0080
  657        HC    1  MOL    H657   657   0.0600000    1.0080
  658        HC    1  MOL    H658   658   0.0600000    1.0080
  659       HAE    1  MOL    H659   659   0.0300000    1.0080
  660       HAE    1  MOL    H660   660   0.0300000    1.0080
  661        HA    1  MOL    H661   661   0.1150000    1.0080
  662        HA    1  MOL    H662   662   0.1150000    1.0080
  663        HA    1  MOL    H663   663   0.1150000    1.0080
  664        HA    1  MOL    H664   664   0.1150000    1.0080
  665       CYA    1  MOL    C665   665  -0.1200000   12.0115
  666       CYA    1  MOL    C666   666  -0.1200000   12.0115
  667       CYA    1  MOL    C667   667  -0.0600000   12.0115
  668        CT    1  MOL    C668   668   0.0800000   12.0115
  669        OS    1  MOL    O669   669  -0.2000000   15.9994
  670       CYA    1  MOL    C670   670  -0.1200000   12.0115
  671       CYA    1  MOL    C671   671  -0.1200000   12.0115
  672       CYA    1  MOL    C672   672  -0.0600000   12.0115
  673        CT    1  MOL    C673   673   0.1900000   12.0115
  674       OES    1  MOL    O674   674  -0.3300000   15.9994
  675       CO4    1  MOL    C675   675   0.6250000   12.0115
  676         O    1  MOL    O676   676  -0.4300000   15.9994
  677        CA    1  MOL    C677   677  -0.1150000   12.0115
  678        CA    1  MOL    C678   678  -0.1150000   12.0115
  679        CA    1  MOL    C679   679  -0.1150000   12.0115
  680        CA    1  MOL    C680   680  -0.1150000   12.0115
  681       CO4    1  MOL    C681   681   0.6250000   12.0115
  682         O    1  MOL    O682   682  -0.4300000   15.9994
  683       OES    1  MOL    O683   683  -0.0800000   15.9994
  684        CA    1  MOL    C684   684  -0.1150000   12.0115
  685        CA    1  MOL    C685   685  -0.1150000   12.0115
  686        HC    1  MOL    H686   686   0.0600000    1.0080
  687        HC    1  MOL    H687   687   0.0600000    1.0080
  688        HC    1  MOL    H688   688   0.0600000    1.0080
  689        HC    1  MOL    H689   689   0.0600000    1.0080
  690        HC    1  MOL    H690   690   0.0600000    1.0080
  691        HC    1  MOL    H691   691   0.0600000    1.0080
  692        HC    1  MOL    H692   692   0.0600000    1.0080
  693        HC    1  MOL    H693   693   0.0600000    1.0080
  694        HC    1  MOL    H694   694   0.0600000    1.0080
  695        HC    1  MOL    H695   695   0.0600000    1.0080
  696        HC    1  MOL    H696   696   0.0600000    1.0080
  697        HC    1  MOL    H697   697   0.0600000    1.0080
  698       HAE    1  MOL    H698   698   0.0300000    1.0080
  699       HAE    1  MOL    H699   699   0.0300000    1.0080
  700        HA    1  MOL    H700   700   0.1150000    1.0080
  701        HA    1  MOL    H701   701   0.1150000    1.0080
  702        HA    1  MOL    H702   702   0.1150000    1.0080
  703        HA    1  MOL    H703   703   0.1150000    1.0080
  704       CYA    1  MOL    C704   704  -0.1200000   12.0115
  705       CYA    1  MOL    C705   705  -0.1200000   12.0115
  706       CYA    1  MOL    C706   706  -0.0600000   12.0115
  707        CT    1  MOL    C707   707   0.0800000   12.0115
  708        OS    1  MOL    O708   708  -0.2000000   15.9994
  709       CYA    1  MOL    C709   709  -0.1200000   12.0115
  710       CYA    1  MOL    C710   710  -0.1200000   12.0115
  711       CYA    1  MOL    C711   711  -0.0600000   12.0115
  712        CT    1  MOL    C712   712   0.1900000   12.0115
  713       OES    1  MOL    O713   713  -0.3300000   15.9994
  714       CO4    1  MOL    C714   714   0.6250000   12.0115
  715         O    1  MOL    O715   715  -0.4300000   15.9994
  716        CA    1  MOL    C716   716  -0.1150000   12.0115
  717        CA    1  MOL    C717   717  -0.1150000   12.0115
  718        CA    1  MOL    C718   718  -0.1150000   12.0115
  719        CA    1  MOL    C719   719  -0.1150000   12.0115
  720       CO4    1  MOL    C720   720   0.6250000   12.0115
  721         O    1  MOL    O721   721  -0.4300000   15.9994
  722       OES    1  MOL    O722   722  -0.0800000   15.9994
  723        CA    1  MOL    C723   723  -0.1150000   12.0115
  724        CA    1  MOL    C724   724  -0.1150000   12.0115
  725        HC    1  MOL    H725   725   0.0600000    1.0080
  726        HC    1  MOL    H726   726   0.0600000    1.0080
  727        HC    1  MOL    H727   727   0.0600000    1.0080
  728        HC    1  MOL    H728   728   0.0600000    1.0080
  729        HC    1  MOL    H729   729   0.0600000    1.0080
  730        HC    1  MOL    H730   730   0.0600000    1.0080
  731        HC    1  MOL    H731   731   0.0600000    1.0080
  732        HC    1  MOL    H732   732   0.0600000    1.0080
  733        HC    1  MOL    H733   733   0.0600000    1.0080
  734        HC    1  MOL    H734   734   0.0600000    1.0080
  735        HC    1  MOL    H735   735   0.0600000    1.0080
  736        HC    1  MOL    H736   736   0.0600000    1.0080
  737       HAE    1  MOL    H737   737   0.0300000    1.0080
  738       HAE    1  MOL    H738   738   0.0300000    1.0080
  739        HA    1  MOL    H739   739   0.1150000    1.0080
  740        HA    1  MOL    H740   740   0.1150000    1.0080
  741        HA    1  MOL    H741   741   0.1150000    1.0080
  742        HA    1  MOL    H742   742   0.1150000    1.0080
  743       CYA    1  MOL    C743   743  -0.1200000   12.0115
  744       CYA    1  MOL    C744   744  -0.1200000   12.0115
  745       CYA    1  MOL    C745   745  -0.0600000   12.0115
  746        CT    1  MOL    C746   746   0.0800000   12.0115
  747        OS    1  MOL    O747   747  -0.2000000   15.9994
  748       CYA    1  MOL    C748   748  -0.1200000   12.0115
  749       CYA    1  MOL    C749   749  -0.1200000   12.0115
  750       CYA    1  MOL    C750   750  -0.0600000   12.0115
  751        CT    1  MOL    C751   751   0.1900000   12.0115
  752       OES    1  MOL    O752   752  -0.3300000   15.9994
  753       CO4    1  MOL    C753   753   0.6250000   12.0115
  754         O    1  MOL    O754   754  -0.4300000   15.9994
  755        CA    1  MOL    C755   755  -0.1150000   12.0115
  756        CA    1  MOL    C756   756  -0.1150000   12.0115
  757        CA    1  MOL    C757   757  -0.1150000   12.0115
  758        CA    1  MOL    C758   758  -0.1150000   12.0115
  759         C    1  MOL    C759   759   0.6350000   12.0115
  760         O    1  MOL    O760   760  -0.4400000   15.9994
  761        OH    1  MOL    O761   761  -0.5300000   15.9994
  762        CA    1  MOL    C762   762  -0.1150000   12.0115
  763        CA    1  MOL    C763   763  -0.1150000   12.0115
  764        HC    1  MOL    H764   764   0.0600000    1.0080
  765        HC    1  MOL    H765   765   0.0600000    1.0080
  766        HC    1  MOL    H766   766   0.0600000    1.0080
  767        HC    1  MOL    H767   767   0.0600000    1.0080
  768        HC    1  MOL    H768   768   0.0600000    1.0080
  769        HC    1  MOL    H769   769   0.0600000    1.0080
  770        HC    1  MOL    H770   770   0.0600000    1.0080
  771        HC    1  MOL    H771   771   0.0600000    1.0080
  772        HC    1  MOL    H772   772   0.0600000    1.0080
  773        HC    1  MOL    H773   773   0.0600000    1.0080
  774        HC    1  MOL    H774   774   0.0600000    1.0080
  775        HC    1  MOL    H775   775   0.0600000    1.0080
  776       HAE    1  MOL    H776   776   0.0300000    1.0080
  777       HAE    1  MOL    H777   777   0.0300000    1.0080
  778        HA    1  MOL    H778   778   0.1150000    1.0080
  779        HA    1  MOL    H779   779   0.1150000    1.0080
  780        HA    1  MOL    H780   780   0.1150000    1.0080
  781        HA    1  MOL    H781   781   0.1150000    1.0080
  782        HO    1  MOL    H782   782   0.4500000    1.0080

[ bonds ]
      1      2   1      0.1529 224262.4000
      1      8   1      0.1529 224262.4000
      1     22   1      0.1090 284512.0000
      1     23   1      0.1090 284512.0000
      2      3   1      0.1529 224262.4000
      2     24   1      0.1090 284512.0000
      2     25   1      0.1090 284512.0000
      3      4   1      0.1529 224262.4000
      3      6   1      0.1529 224262.4000
      3     26   1      0.1090 284512.0000
      4      5   1      0.1410 267776.0000
      4     27   1      0.1090 284512.0000
      4     28   1      0.1090 284512.0000
      5     40   1      0.0945 462750.4000
      6      7   1      0.1529 224262.4000
      6     29   1      0.1090 284512.0000
      6     30   1      0.1090 284512.0000
      7      8   1      0.1529 224262.4000
      7     31   1      0.1090 284512.0000
      7     32   1      0.1090 284512.0000
      8      9   1      0.1529 224262.4000
      8     33   1      0.1090 284512.0000
      9     10   1      0.1410 267776.0000
      9     34   1      0.1090 284512.0000
      9     35   1      0.1090 284512.0000
     10     11   1      0.1327 179075.2000
     11     12   1      0.1229 476976.0000
     11     13   1      0.1470 259408.0000
     13     14   1      0.1400 392459.2000
     13     21   1      0.1400 392459.2000
     14     15   1      0.1400 392459.2000
     14     36   1      0.1080 307105.6000
     15     16   1      0.1400 392459.2000
     15     37   1      0.1080 307105.6000
     16     17   1      0.1470 259408.0000
     16     20   1      0.1400 392459.2000
     17     18   1      0.1229 476976.0000
     17     19   1      0.1327 179075.2000
     19     45   1      0.1492 205016.0000
     20     21   1      0.1400 392459.2000
     20     38   1      0.1080 307105.6000
     21     39   1      0.1080 307105.6000
     41     42   1      0.1529 224262.4000
     41     48   1      0.1529 224262.4000
     41     62   1      0.1090 284512.0000
     41     63   1      0.1090 284512.0000
     42     43   1      0.1529 224262.4000
     42     64   1      0.1090 284512.0000
     42     65   1      0.1090 284512.0000
     43     44   1      0.1529 224262.4000
     43     46   1      0.1529 224262.4000
     43     66   1      0.1090 284512.0000
     44     45   1      0.1410 267776.0000
     44     67   1      0.1090 284512.0000
     44     68   1      0.1090 284512.0000
     46     47   1      0.1529 224262.4000
     46     69   1      0.1090 284512.0000
     46     70   1      0.1090 284512.0000
     47     48   1      0.1529 224262.4000
     47     71   1      0.1090 284512.0000
     47     72   1      0.1090 284512.0000
     48     49   1      0.1529 224262.4000
     48     73   1      0.1090 284512.0000
     49     50   1      0.1410 267776.0000
     49     74   1      0.1090 284512.0000
     49     75   1      0.1090 284512.0000
     50     51   1      0.1327 179075.2000
     51     52   1      0.1229 476976.0000
     51     53   1      0.1470 259408.0000
     53     54   1      0.1400 392459.2000
     53     61   1      0.1400 392459.2000
     54     55   1      0.1400 392459.2000
     54     76   1      0.1080 307105.6000
     55     56   1      0.1400 392459.2000
     55     77   1      0.1080 307105.6000
     56     57   1      0.1470 259408.0000
     56     60   1      0.1400 392459.2000
     57     58   1      0.1229 476976.0000
     57     59   1      0.1327 179075.2000
     59     84   1      0.1492 205016.0000
     60     61   1      0.1400 392459.2000
     60     78   1      0.1080 307105.6000
     61     79   1      0.1080 307105.6000
     80     81   1      0.1529 224262.4000
     80     87   1      0.1529 224262.4000
     80    101   1      0.1090 284512.0000
     80    102   1      0.1090 284512.0000
     81     82   1      0.1529 224262.4000
     81    103   1      0.1090 284512.0000
     81    104   1      0.1090 284512.0000
     82     83   1      0.1529 224262.4000
     82     85   1      0.1529 224262.4000
     82    105   1      0.1090 284512.0000
     83     84   1      0.1410 267776.0000
     83    106   1      0.1090 284512.0000
     83    107   1      0.1090 284512.0000
     85     86   1      0.1529 224262.4000
     85    108   1      0.1090 284512.0000
     85    109   1      0.1090 284512.0000
     86     87   1      0.1529 224262.4000
     86    110   1      0.1090 284512.0000
     86    111   1      0.1090 284512.0000
     87     88   1      0.1529 224262.4000
     87    112   1      0.1090 284512.0000
     88     89   1      0.1410 267776.0000
     88    113   1      0.1090 284512.0000
     88    114   1      0.1090 284512.0000
     89     90   1      0.1327 179075.2000
     90     91   1      0.1229 476976.0000
     90     92   1      0.1470 259408.0000
     92     93   1      0.1400 392459.2000
     92    100   1      0.1400 392459.2000
     93     94   1      0.1400 392459.2000
     93    115   1      0.1080 307105.6000
     94     95   1      0.1400 392459.2000
     94    116   1      0.1080 307105.6000
     95     96   1      0.1470 259408.0000
     95     99   1      0.1400 392459.2000
     96     97   1      0.1229 476976.0000
     96     98   1      0.1327 179075.2000
     98    123   1      0.1492 205016.0000
     99    100   1      0.1400 392459.2000
     99    117   1      0.1080 307105.6000
    100    118   1      0.1080 307105.6000
    119    120   1      0.1529 224262.4000
    119    126   1      0.1529 224262.4000
    119    140   1      0.1090 284512.0000
    119    141   1      0.1090 284512.0000
    120    121   1      0.1529 224262.4000
    120    142   1      0.1090 284512.0000
    120    143   1      0.1090 284512.0000
    121    122   1      0.1529 224262.4000
    121    124   1      0.1529 224262.4000
    121    144   1      0.1090 284512.0000
    122    123   1      0.1410 267776.0000
    122    145   1      0.1090 284512.0000
    122    146   1      0.1090 284512.0000
    124    125   1      0.1529 224262.4000
    124    147   1      0.1090 284512.0000
    124    148   1      0.1090 284512.0000
    125    126   1      0.1529 224262.4000
    125    149   1      0.1090 284512.0000
    125    150   1      0.1090 284512.0000
    126    127   1      0.1529 224262.4000
    126    151   1      0.1090 284512.0000
    127    128   1      0.1410 267776.0000
    127    152   1      0.1090 284512.0000
    127    153   1      0.1090 284512.0000
    128    129   1      0.1327 179075.2000
    129    130   1      0.1229 476976.0000
    129    131   1      0.1470 259408.0000
    131    132   1      0.1400 392459.2000
    131    139   1      0.1400 392459.2000
    132    133   1      0.1400 392459.2000
    132    154   1      0.1080 307105.6000
    133    134   1      0.1400 392459.2000
    133    155   1      0.1080 307105.6000
    134    135   1      0.1470 259408.0000
    134    138   1      0.1400 392459.2000
    135    136   1      0.1229 476976.0000
    135    137   1      0.1327 179075.2000
    137    162   1      0.1492 205016.0000
    138    139   1      0.1400 392459.2000
    138    156   1      0.1080 307105.6000
    139    157   1      0.1080 307105.6000
    158    159   1      0.1529 224262.4000
    158    165   1      0.1529 224262.4000
    158    179   1      0.1090 284512.0000
    158    180   1      0.1090 284512.0000
    159    160   1      0.1529 224262.4000
    159    181   1      0.1090 284512.0000
    159    182   1      0.1090 284512.0000
    160    161   1      0.1529 224262.4000
    160    163   1      0.1529 224262.4000
    160    183   1      0.1090 284512.0000
    161    162   1      0.1410 267776.0000
    161    184   1      0.1090 284512.0000
    161    185   1      0.1090 284512.0000
    163    164   1      0.1529 224262.4000
    163    186   1      0.1090 284512.0000
    163    187   1      0.1090 284512.0000
    164    165   1      0.1529 224262.4000
    164    188   1      0.1090 284512.0000
    164    189   1      0.1090 284512.0000
    165    166   1      0.1529 224262.4000
    165    190   1      0.1090 284512.0000
    166    167   1      0.1410 267776.0000
    166    191   1      0.1090 284512.0000
    166    192   1      0.1090 284512.0000
    167    168   1      0.1327 179075.2000
    168    169   1      0.1229 476976.0000
    168    170   1      0.1470 259408.0000
    170    171   1      0.1400 392459.2000
    170    178   1      0.1400 392459.2000
    171    172   1      0.1400 392459.2000
    171    193   1      0.1080 307105.6000
    172    173   1      0.1400 392459.2000
    172    194   1      0.1080 307105.6000
    173    174   1      0.1470 259408.0000
    173    177   1      0.1400 392459.2000
    174    175   1      0.1229 476976.0000
    174    176   1      0.1327 179075.2000
    176    201   1      0.1492 205016.0000
    177    178   1      0.1400 392459.2000
    177    195   1      0.1080 307105.6000
    178    196   1      0.1080 307105.6000
    197    198   1      0.1529 224262.4000
    197    204   1      0.1529 224262.4000
    197    218   1      0.1090 284512.0000
    197    219   1      0.1090 284512.0000
    198    199   1      0.1529 224262.4000
    198    220   1      0.1090 284512.0000
    198    221   1      0.1090 284512.0000
    199    200   1      0.1529 224262.4000
    199    202   1      0.1529 224262.4000
    199    222   1      0.1090 284512.0000
    200    201   1      0.1410 267776.0000
    200    223   1      0.1090 284512.0000
    200    224   1      0.1090 284512.0000
    202    203   1      0.1529 224262.4000
    202    225   1      0.1090 284512.0000
    202    226   1      0.1090 284512.0000
    203    204   1      0.1529 224262.4000
    203    227   1      0.1090 284512.0000
    203    228   1      0.1090 284512.0000
    204    205   1      0.1529 224262.4000
    204    229   1      0.1090 284512.0000
    205    206   1      0.1410 267776.0000
    205    230   1      0.1090 284512.0000
    205    231   1      0.1090 284512.0000
    206    207   1      0.1327 179075.2000
    207    208   1      0.1229 476976.0000
    207    209   1      0.1470 259408.0000
    209    210   1      0.1400 392459.2000
    209    217   1      0.1400 392459.2000
    210    211   1      0.1400 392459.2000
    210    232   1      0.1080 307105.6000
    211    212   1      0.1400 392459.2000
    211    233   1      0.1080 307105.6000
    212    213   1      0.1470 259408.0000
    212    216   1      0.1400 392459.2000
    213    214   1      0.1229 476976.0000
    213    215   1      0.1327 179075.2000
    215    240   1      0.1492 205016.0000
    216    217   1      0.1400 392459.2000
    216    234   1      0.1080 307105.6000
    217    235   1      0.1080 307105.6000
    236    237   1      0.1529 224262.4000
    236    243   1      0.1529 224262.4000
    236    257   1      0.1090 284512.0000
    236    258   1      0.1090 284512.0000
    237    238   1      0.1529 224262.4000
    237    259   1      0.1090 284512.0000
    237    260   1      0.1090 284512.0000
    238    239   1      0.1529 224262.4000
    238    241   1      0.1529 224262.4000
    238    261   1      0.1090 284512.0000
    239    240   1      0.1410 267776.0000
    239    262   1      0.1090 284512.0000
    239    263   1      0.1090 284512.0000
    241    242   1      0.1529 224262.4000
    241    264   1      0.1090 284512.0000
    241    265   1      0.1090 284512.0000
    242    243   1      0.1529 224262.4000
    242    266   1      0.1090 284512.0000
    242    267   1      0.1090 284512.0000
    243    244   1      0.1529 224262.4000
    243    268   1      0.1090 284512.0000
    244    245   1      0.1410 267776.0000
    244    269   1      0.1090 284512.0000
    244    270   1      0.1090 284512.0000
    245    246   1      0.1327 179075.2000
    246    247   1      0.1229 476976.0000
    246    248   1      0.1470 259408.0000
    248    249   1      0.1400 392459.2000
    248    256   1      0.1400 392459.2000
    249    250   1      0.1400 392459.2000
    249    271   1      0.1080 307105.6000
    250    251   1      0.1400 392459.2000
    250    272   1      0.1080 307105.6000
    251    252   1      0.1470 259408.0000
    251    255   1      0.1400 392459.2000
    252    253   1      0.1229 476976.0000
    252    254   1      0.1327 179075.2000
    254    279   1      0.1492 205016.0000
    255    256   1      0.1400 392459.2000
    255    273   1      0.1080 307105.6000
    256    274   1      0.1080 307105.6000
    275    276   1      0.1529 224262.4000
    275    282   1      0.1529 224262.4000
    275    296   1      0.1090 284512.0000
    275    297   1      0.1090 284512.0000
    276    277   1      0.1529 224262.4000
    276    298   1      0.1090 284512.0000
    276    299   1      0.1090 284512.0000
    277    278   1      0.1529 224262.4000
    277    280   1      0.1529 224262.4000
    277    300   1      0.1090 284512.0000
    278    279   1      0.1410 267776.0000
    278    301   1      0.1090 284512.0000
    278    302   1      0.1090 284512.0000
    280    281   1      0.1529 224262.4000
    280    303   1      0.1090 284512.0000
    280    304   1      0.1090 284512.0000
    281    282   1      0.1529 224262.4000
    281    305   1      0.1090 284512.0000
    281    306   1      0.1090 284512.0000
    282    283   1      0.1529 224262.4000
    282    307   1      0.1090 284512.0000
    283    284   1      0.1410 267776.0000
    283    308   1      0.1090 284512.0000
    283    309   1      0.1090 284512.0000
    284    285   1      0.1327 179075.2000
    285    286   1      0.1229 476976.0000
    285    287   1      0.1470 259408.0000
    287    288   1      0.1400 392459.2000
    287    295   1      0.1400 392459.2000
    288    289   1      0.1400 392459.2000
    288    310   1      0.1080 307105.6000
    289    290   1      0.1400 392459.2000
    289    311   1      0.1080 307105.6000
    290    291   1      0.1470 259408.0000
    290    294   1      0.1400 392459.2000
    291    292   1      0.1229 476976.0000
    291    293   1      0.1327 179075.2000
    293    318   1      0.1492 205016.0000
    294    295   1      0.1400 392459.2000
    294    312   1      0.1080 307105.6000
    295    313   1      0.1080 307105.6000
    314    315   1      0.1529 224262.4000
    314    321   1      0.1529 224262.4000
    314    335   1      0.1090 284512.0000
    314    336   1      0.1090 284512.0000
    315    316   1      0.1529 224262.4000
    315    337   1      0.1090 284512.0000
    315    338   1      0.1090 284512.0000
    316    317   1      0.1529 224262.4000
    316    319   1      0.1529 224262.4000
    316    339   1      0.1090 284512.0000
    317    318   1      0.1410 267776.0000
    317    340   1      0.1090 284512.0000
    317    341   1      0.1090 284512.0000
    319    320   1      0.1529 224262.4000
    319    342   1      0.1090 284512.0000
    319    343   1      0.1090 284512.0000
    320    321   1      0.1529 224262.4000
    320    344   1      0.1090 284512.0000
    320    345   1      0.1090 284512.0000
    321    322   1      0.1529 224262.4000
    321    346   1      0.1090 284512.0000
    322    323   1      0.1410 267776.0000
    322    347   1      0.1090 284512.0000
    322    348   1      0.1090 284512.0000
    323    324   1      0.1327 179075.2000
    324    325   1      0.1229 476976.0000
    324    326   1      0.1470 259408.0000
    326    327   1      0.1400 392459.2000
    326    334   1      0.1400 392459.2000
    327    328   1      0.1400 392459.2000
    327    349   1      0.1080 307105.6000
    328    329   1      0.1400 392459.2000
    328    350   1      0.1080 307105.6000
    329    330   1      0.1470 259408.0000
    329    333   1      0.1400 392459.2000
    330    331   1      0.1229 476976.0000
    330    332   1      0.1327 179075.2000
    332    357   1      0.1492 205016.0000
    333    334   1      0.1400 392459.2000
    333    351   1      0.1080 307105.6000
    334    352   1      0.1080 307105.6000
    353    354   1      0.1529 224262.4000
    353    360   1      0.1529 224262.4000
    353    374   1      0.1090 284512.0000
    353    375   1      0.1090 284512.0000
    354    355   1      0.1529 224262.4000
    354    376   1      0.1090 284512.0000
    354    377   1      0.1090 284512.0000
    355    356   1      0.1529 224262.4000
    355    358   1      0.1529 224262.4000
    355    378   1      0.1090 284512.0000
    356    357   1      0.1410 267776.0000
    356    379   1      0.1090 284512.0000
    356    380   1      0.1090 284512.0000
    358    359   1      0.1529 224262.4000
    358    381   1      0.1090 284512.0000
    358    382   1      0.1090 284512.0000
    359    360   1      0.1529 224262.4000
    359    383   1      0.1090 284512.0000
    359    384   1      0.1090 284512.0000
    360    361   1      0.1529 224262.4000
    360    385   1      0.1090 284512.0000
    361    362   1      0.1410 267776.0000
    361    386   1      0.1090 284512.0000
    361    387   1      0.1090 284512.0000
    362    363   1      0.1327 179075.2000
    363    364   1      0.1229 476976.0000
    363    365   1      0.1470 259408.0000
    365    366   1      0.1400 392459.2000
    365    373   1      0.1400 392459.2000
    366    367   1      0.1400 392459.2000
    366    388   1      0.1080 307105.6000
    367    368   1      0.1400 392459.2000
    367    389   1      0.1080 307105.6000
    368    369   1      0.1470 259408.0000
    368    372   1      0.1400 392459.2000
    369    370   1      0.1229 476976.0000
    369    371   1      0.1327 179075.2000
    371    396   1      0.1492 205016.0000
    372    373   1      0.1400 392459.2000
    372    390   1      0.1080 307105.6000
    373    391   1      0.1080 307105.6000
    392    393   1      0.1529 224262.4000
    392    399   1      0.1529 224262.4000
    392    413   1      0.1090 284512.0000
    392    414   1      0.1090 284512.0000
    393    394   1      0.1529 224262.4000
    393    415   1      0.1090 284512.0000
    393    416   1      0.1090 284512.0000
    394    395   1      0.1529 224262.4000
    394    397   1      0.1529 224262.4000
    394    417   1      0.1090 284512.0000
    395    396   1      0.1410 267776.0000
    395    418   1      0.1090 284512.0000
    395    419   1      0.1090 284512.0000
    397    398   1      0.1529 224262.4000
    397    420   1      0.1090 284512.0000
    397    421   1      0.1090 284512.0000
    398    399   1      0.1529 224262.4000
    398    422   1      0.1090 284512.0000
    398    423   1      0.1090 284512.0000
    399    400   1      0.1529 224262.4000
    399    424   1      0.1090 284512.0000
    400    401   1      0.1410 267776.0000
    400    425   1      0.1090 284512.0000
    400    426   1      0.1090 284512.0000
    401    402   1      0.1327 179075.2000
    402    403   1      0.1229 476976.0000
    402    404   1      0.1470 259408.0000
    404    405   1      0.1400 392459.2000
    404    412   1      0.1400 392459.2000
    405    406   1      0.1400 392459.2000
    405    427   1      0.1080 307105.6000
    406    407   1      0.1400 392459.2000
    406    428   1      0.1080 307105.6000
    407    408   1      0.1470 259408.0000
    407    411   1      0.1400 392459.2000
    408    409   1      0.1229 476976.0000
    408    410   1      0.1327 179075.2000
    410    435   1      0.1492 205016.0000
    411    412   1      0.1400 392459.2000
    411    429   1      0.1080 307105.6000
    412    430   1      0.1080 307105.6000
    431    432   1      0.1529 224262.4000
    431    438   1      0.1529 224262.4000
    431    452   1      0.1090 284512.0000
    431    453   1      0.1090 284512.0000
    432    433   1      0.1529 224262.4000
    432    454   1      0.1090 284512.0000
    432    455   1      0.1090 284512.0000
    433    434   1      0.1529 224262.4000
    433    436   1      0.1529 224262.4000
    433    456   1      0.1090 284512.0000
    434    435   1      0.1410 267776.0000
    434    457   1      0.1090 284512.0000
    434    458   1      0.1090 284512.0000
    436    437   1      0.1529 224262.4000
    436    459   1      0.1090 284512.0000
    436    460   1      0.1090 284512.0000
    437    438   1      0.1529 224262.4000
    437    461   1      0.1090 284512.0000
    437    462   1      0.1090 284512.0000
    438    439   1      0.1529 224262.4000
    438    463   1      0.1090 284512.0000
    439    440   1      0.1410 267776.0000
    439    464   1      0.1090 284512.0000
    439    465   1      0.1090 284512.0000
    440    441   1      0.1327 179075.2000
    441    442   1      0.1229 476976.0000
    441    443   1      0.1470 259408.0000
    443    444   1      0.1400 392459.2000
    443    451   1      0.1400 392459.2000
    444    445   1      0.1400 392459.2000
    444    466   1      0.1080 307105.6000
    445    446   1      0.1400 392459.2000
    445    467   1      0.1080 307105.6000
    446    447   1      0.1470 259408.0000
    446    450   1      0.1400 392459.2000
    447    448   1      0.1229 476976.0000
    447    449   1      0.1327 179075.2000
    449    474   1      0.1492 205016.0000
    450    451   1      0.1400 392459.2000
    450    468   1      0.1080 307105.6000
    451    469   1      0.1080 307105.6000
    470    471   1      0.1529 224262.4000
    470    477   1      0.1529 224262.4000
    470    491   1      0.1090 284512.0000
    470    492   1      0.1090 284512.0000
    471    472   1      0.1529 224262.4000
    471    493   1      0.1090 284512.0000
    471    494   1      0.1090 284512.0000
    472    473   1      0.1529 224262.4000
    472    475   1      0.1529 224262.4000
    472    495   1      0.1090 284512.0000
    473    474   1      0.1410 267776.0000
    473    496   1      0.1090 284512.0000
    473    497   1      0.1090 284512.0000
    475    476   1      0.1529 224262.4000
    475    498   1      0.1090 284512.0000
    475    499   1      0.1090 284512.0000
    476    477   1      0.1529 224262.4000
    476    500   1      0.1090 284512.0000
    476    501   1      0.1090 284512.0000
    477    478   1      0.1529 224262.4000
    477    502   1      0.1090 284512.0000
    478    479   1      0.1410 267776.0000
    478    503   1      0.1090 284512.0000
    478    504   1      0.1090 284512.0000
    479    480   1      0.1327 179075.2000
    480    481   1      0.1229 476976.0000
    480    482   1      0.1470 259408.0000
    482    483   1      0.1400 392459.2000
    482    490   1      0.1400 392459.2000
    483    484   1      0.1400 392459.2000
    483    505   1      0.1080 307105.6000
    484    485   1      0.1400 392459.2000
    484    506   1      0.1080 307105.6000
    485    486   1      0.1470 259408.0000
    485    489   1      0.1400 392459.2000
    486    487   1      0.1229 476976.0000
    486    488   1      0.1327 179075.2000
    488    513   1      0.1492 205016.0000
    489    490   1      0.1400 392459.2000
    489    507   1      0.1080 307105.6000
    490    508   1      0.1080 307105.6000
    509    510   1      0.1529 224262.4000
    509    516   1      0.1529 224262.4000
    509    530   1      0.1090 284512.0000
    509    531   1      0.1090 284512.0000
    510    511   1      0.1529 224262.4000
    510    532   1      0.1090 284512.0000
    510    533   1      0.1090 284512.0000
    511    512   1      0.1529 224262.4000
    511    514   1      0.1529 224262.4000
    511    534   1      0.1090 284512.0000
    512    513   1      0.1410 267776.0000
    512    535   1      0.1090 284512.0000
    512    536   1      0.1090 284512.0000
    514    515   1      0.1529 224262.4000
    514    537   1      0.1090 284512.0000
    514    538   1      0.1090 284512.0000
    515    516   1      0.1529 224262.4000
    515    539   1      0.1090 284512.0000
    515    540   1      0.1090 284512.0000
    516    517   1      0.1529 224262.4000
    516    541   1      0.1090 284512.0000
    517    518   1      0.1410 267776.0000
    517    542   1      0.1090 284512.0000
    517    543   1      0.1090 284512.0000
    518    519   1      0.1327 179075.2000
    519    520   1      0.1229 476976.0000
    519    521   1      0.1470 259408.0000
    521    522   1      0.1400 392459.2000
    521    529   1      0.1400 392459.2000
    522    523   1      0.1400 392459.2000
    522    544   1      0.1080 307105.6000
    523    524   1      0.1400 392459.2000
    523    545   1      0.1080 307105.6000
    524    525   1      0.1470 259408.0000
    524    528   1      0.1400 392459.2000
    525    526   1      0.1229 476976.0000
    525    527   1      0.1327 179075.2000
    527    552   1      0.1492 205016.0000
    528    529   1      0.1400 392459.2000
    528    546   1      0.1080 307105.6000
    529    547   1      0.1080 307105.6000
    548    549   1      0.1529 224262.4000
    548    555   1      0.1529 224262.4000
    548    569   1      0.1090 284512.0000
    548    570   1      0.1090 284512.0000
    549    550   1      0.1529 224262.4000
    549    571   1      0.1090 284512.0000
    549    572   1      0.1090 284512.0000
    550    551   1      0.1529 224262.4000
    550    553   1      0.1529 224262.4000
    550    573   1      0.1090 284512.0000
    551    552   1      0.1410 267776.0000
    551    574   1      0.1090 284512.0000
    551    575   1      0.1090 284512.0000
    553    554   1      0.1529 224262.4000
    553    576   1      0.1090 284512.0000
    553    577   1      0.1090 284512.0000
    554    555   1      0.1529 224262.4000
    554    578   1      0.1090 284512.0000
    554    579   1      0.1090 284512.0000
    555    556   1      0.1529 224262.4000
    555    580   1      0.1090 284512.0000
    556    557   1      0.1410 267776.0000
    556    581   1      0.1090 284512.0000
    556    582   1      0.1090 284512.0000
    557    558   1      0.1327 179075.2000
    558    559   1      0.1229 476976.0000
    558    560   1      0.1470 259408.0000
    560    561   1      0.1400 392459.2000
    560    568   1      0.1400 392459.2000
    561    562   1      0.1400 392459.2000
    561    583   1      0.1080 307105.6000
    562    563   1      0.1400 392459.2000
    562    584   1      0.1080 307105.6000
    563    564   1      0.1470 259408.0000
    563    567   1      0.1400 392459.2000
    564    565   1      0.1229 476976.0000
    564    566   1      0.1327 179075.2000
    566    591   1      0.1492 205016.0000
    567    568   1      0.1400 392459.2000
    567    585   1      0.1080 307105.6000
    568    586   1      0.1080 307105.6000
    587    588   1      0.1529 224262.4000
    587    594   1      0.1529 224262.4000
    587    608   1      0.1090 284512.0000
    587    609   1      0.1090 284512.0000
    588    589   1      0.1529 224262.4000
    588    610   1      0.1090 284512.0000
    588    611   1      0.1090 284512.0000
    589    590   1      0.1529 224262.4000
    589    592   1      0.1529 224262.4000
    589    612   1      0.1090 284512.0000
    590    591   1      0.1410 267776.0000
    590    613   1      0.1090 284512.0000
    590    614   1      0.1090 284512.0000
    592    593   1      0.1529 224262.4000
    592    615   1      0.1090 284512.0000
    592    616   1      0.1090 284512.0000
    593    594   1      0.1529 224262.4000
    593    617   1      0.1090 284512.0000
    593    618   1      0.1090 284512.0000
    594    595   1      0.1529 224262.4000
    594    619   1      0.1090 284512.0000
    595    596   1      0.1410 267776.0000
    595    620   1      0.1090 284512.0000
    595    621   1      0.1090 284512.0000
    596    597   1      0.1327 179075.2000
    597    598   1      0.1229 476976.0000
    597    599   1      0.1470 259408.0000
    599    600   1      0.1400 392459.2000
    599    607   1      0.1400 392459.2000
    600    601   1      0.1400 392459.2000
    600    622   1      0.1080 307105.6000
    601    602   1      0.1400 392459.2000
    601    623   1      0.1080 307105.6000
    602    603   1      0.1470 259408.0000
    602    606   1      0.1400 392459.2000
    603    604   1      0.1229 476976.0000
    603    605   1      0.1327 179075.2000
    605    630   1      0.1492 205016.0000
    606    607   1      0.1400 392459.2000
    606    624   1      0.1080 307105.6000
    607    625   1      0.1080 307105.6000
    626    627   1      0.1529 224262.4000
    626    633   1      0.1529 224262.4000
    626    647   1      0.1090 284512.0000
    626    648   1      0.1090 284512.0000
    627    628   1      0.1529 224262.4000
    627    649   1      0.1090 284512.0000
    627    650   1      0.1090 284512.0000
    628    629   1      0.1529 224262.4000
    628    631   1      0.1529 224262.4000
    628    651   1      0.1090 284512.0000
    629    630   1      0.1410 267776.0000
    629    652   1      0.1090 284512.0000
    629    653   1      0.1090 284512.0000
    631    632   1      0.1529 224262.4000
    631    654   1      0.1090 284512.0000
    631    655   1      0.1090 284512.0000
    632    633   1      0.1529 224262.4000
    632    656   1      0.1090 284512.0000
    632    657   1      0.1090 284512.0000
    633    634   1      0.1529 224262.4000
    633    658   1      0.1090 284512.0000
    634    635   1      0.1410 267776.0000
    634    659   1      0.1090 284512.0000
    634    660   1      0.1090 284512.0000
    635    636   1      0.1327 179075.2000
    636    637   1      0.1229 476976.0000
    636    638   1      0.1470 259408.0000
    638    639   1      0.1400 392459.2000
    638    646   1      0.1400 392459.2000
    639    640   1      0.1400 392459.2000
    639    661   1      0.1080 307105.6000
    640    641   1      0.1400 392459.2000
    640    662   1      0.1080 307105.6000
    641    642   1      0.1470 259408.0000
    641    645   1      0.1400 392459.2000
    642    643   1      0.1229 476976.0000
    642    644   1      0.1327 179075.2000
    644    669   1      0.1492 205016.0000
    645    646   1      0.1400 392459.2000
    645    663   1      0.1080 307105.6000
    646    664   1      0.1080 307105.6000
    665    666   1      0.1529 224262.4000
    665    672   1      0.1529 224262.4000
    665    686   1      0.1090 284512.0000
    665    687   1      0.1090 284512.0000
    666    667   1      0.1529 224262.4000
    666    688   1      0.1090 284512.0000
    666    689   1      0.1090 284512.0000
    667    668   1      0.1529 224262.4000
    667    670   1      0.1529 224262.4000
    667    690   1      0.1090 284512.0000
    668    669   1      0.1410 267776.0000
    668    691   1      0.1090 284512.0000
    668    692   1      0.1090 284512.0000
    670    671   1      0.1529 224262.4000
    670    693   1      0.1090 284512.0000
    670    694   1      0.1090 284512.0000
    671    672   1      0.1529 224262.4000
    671    695   1      0.1090 284512.0000
    671    696   1      0.1090 284512.0000
    672    673   1      0.1529 224262.4000
    672    697   1      0.1090 284512.0000
    673    674   1      0.1410 267776.0000
    673    698   1      0.1090 284512.0000
    673    699   1      0.1090 284512.0000
    674    675   1      0.1327 179075.2000
    675    676   1      0.1229 476976.0000
    675    677   1      0.1470 259408.0000
    677    678   1      0.1400 392459.2000
    677    685   1      0.1400 392459.2000
    678    679   1      0.1400 392459.2000
    678    700   1      0.1080 307105.6000
    679    680   1      0.1400 392459.2000
    679    701   1      0.1080 307105.6000
    680    681   1      0.1470 259408.0000
    680    684   1      0.1400 392459.2000
    681    682   1      0.1229 476976.0000
    681    683   1      0.1327 179075.2000
    683    708   1      0.1492 205016.0000
    684    685   1      0.1400 392459.2000
    684    702   1      0.1080 307105.6000
    685    703   1      0.1080 307105.6000
    704    705   1      0.1529 224262.4000
    704    711   1      0.1529 224262.4000
    704    725   1      0.1090 284512.0000
    704    726   1      0.1090 284512.0000
    705    706   1      0.1529 224262.4000
    705    727   1      0.1090 284512.0000
    705    728   1      0.1090 284512.0000
    706    707   1      0.1529 224262.4000
    706    709   1      0.1529 224262.4000
    706    729   1      0.1090 284512.0000
    707    708   1      0.1410 267776.0000
    707    730   1      0.1090 284512.0000
    707    731   1      0.1090 284512.0000
    709    710   1      0.1529 224262.4000
    709    732   1      0.1090 284512.0000
    709    733   1      0.1090 284512.0000
    710    711   1      0.1529 224262.4000
    710    734   1      0.1090 284512.0000
    710    735   1      0.1090 284512.0000
    711    712   1      0.1529 224262.4000
    711    736   1      0.1090 284512.0000
    712    713   1      0.1410 267776.0000
    712    737   1      0.1090 284512.0000
    712    738   1      0.1090 284512.0000
    713    714   1      0.1327 179075.2000
    714    715   1      0.1229 476976.0000
    714    716   1      0.1470 259408.0000
    716    717   1      0.1400 392459.2000
    716    724   1      0.1400 392459.2000
    717    718   1      0.1400 392459.2000
    717    739   1      0.1080 307105.6000
    718    719   1      0.1400 392459.2000
    718    740   1      0.1080 307105.6000
    719    720   1      0.1470 259408.0000
    719    723   1      0.1400 392459.2000
    720    721   1      0.1229 476976.0000
    720    722   1      0.1327 179075.2000
    722    747   1      0.1492 205016.0000
    723    724   1      0.1400 392459.2000
    723    741   1      0.1080 307105.6000
    724    742   1      0.1080 307105.6000
    743    744   1      0.1529 224262.4000
    743    750   1      0.1529 224262.4000
    743    764   1      0.1090 284512.0000
    743    765   1      0.1090 284512.0000
    744    745   1      0.1529 224262.4000
    744    766   1      0.1090 284512.0000
    744    767   1      0.1090 284512.0000
    745    746   1      0.1529 224262.4000
    745    748   1      0.1529 224262.4000
    745    768   1      0.1090 284512.0000
    746    747   1      0.1410 267776.0000
    746    769   1      0.1090 284512.0000
    746    770   1      0.1090 284512.0000
    748    749   1      0.1529 224262.4000
    748    771   1      0.1090 284512.0000
    748    772   1      0.1090 284512.0000
    749    750   1      0.1529 224262.4000
    749    773   1      0.1090 284512.0000
    749    774   1      0.1090 284512.0000
    750    751   1      0.1529 224262.4000
    750    775   1      0.1090 284512.0000
    751    752   1      0.1410 267776.0000
    751    776   1      0.1090 284512.0000
    751    777   1      0.1090 284512.0000
    752    753   1      0.1327 179075.2000
    753    754   1      0.1229 476976.0000
    753    755   1      0.1470 259408.0000
    755    756   1      0.1400 392459.2000
    755    763   1      0.1400 392459.2000
    756    757   1      0.1400 392459.2000
    756    778   1      0.1080 307105.6000
    757    758   1      0.1400 392459.2000
    757    779   1      0.1080 307105.6000
    758    759   1      0.1490 334720.0000
    758    762   1      0.1400 392459.2000
    759    760   1      0.1229 476976.0000
    759    761   1      0.1364 376560.0000
    761    782   1      0.0945 462750.4000
    762    763   1      0.1400 392459.2000
    762    780   1      0.1080 307105.6000
    763    781   1      0.1080 307105.6000

[ pairs ]
; ai   aj   funct   fudge_QQ  charge_i   charge_j   c6    c12
      8      3   2   0.50000    -0.0600000   -0.0600000   1.015252e-03  1.866303e-06
      8     24   2   0.50000    -0.0600000    0.0600000   2.494471e-04  1.671101e-07
      8     25   2   0.50000    -0.0600000    0.0600000   2.494471e-04  1.671101e-07
     22      3   2   0.50000     0.0600000   -0.0600000   2.494471e-04  1.671101e-07
     22     24   2   0.50000     0.0600000    0.0600000   6.128906e-05  1.496315e-08
     22     25   2   0.50000     0.0600000    0.0600000   6.128906e-05  1.496315e-08
     23      3   2   0.50000     0.0600000   -0.0600000   2.494471e-04  1.671101e-07
     23     24   2   0.50000     0.0600000    0.0600000   6.128906e-05  1.496315e-08
     23     25   2   0.50000     0.0600000    0.0600000   6.128906e-05  1.496315e-08
      2      7   2   0.50000    -0.1200000   -0.1200000   1.015252e-03  1.866303e-06
      2      9   2   0.50000    -0.1200000    0.1900000   1.015252e-03  1.866303e-06
      2     33   2   0.50000    -0.1200000    0.0600000   2.494471e-04  1.671101e-07
     22      7   2   0.50000     0.0600000   -0.1200000   2.494471e-04  1.671101e-07
     22      9   2   0.50000     0.0600000    0.1900000   2.494471e-04  1.671101e-07
     22     33   2   0.50000     0.0600000    0.0600000   6.128906e-05  1.496315e-08
     23      7   2   0.50000     0.0600000   -0.1200000   2.494471e-04  1.671101e-07
     23      9   2   0.50000     0.0600000    0.1900000   2.494471e-04  1.671101e-07
     23     33   2   0.50000     0.0600000    0.0600000   6.128906e-05  1.496315e-08
      1      4   2   0.50000    -0.1200000    0.1450000   1.015252e-03  1.866303e-06
      1      6   2   0.50000    -0.1200000   -0.1200000   1.015252e-03  1.866303e-06
      1     26   2   0.50000    -0.1200000    0.0600000   2.494471e-04  1.671101e-07
     24      4   2   0.50000     0.0600000    0.1450000   2.494471e-04  1.671101e-07
     24      6   2   0.50000     0.0600000   -0.1200000   2.494471e-04  1.671101e-07
     24     26   2   0.50000     0.0600000    0.0600000   6.128906e-05  1.496315e-08
     25      4   2   0.50000     0.0600000    0.1450000   2.494471e-04  1.671101e-07
     25      6   2   0.50000     0.0600000   -0.1200000   2.494471e-04  1.671101e-07
     25     26   2   0.50000     0.0600000    0.0600000   6.128906e-05  1.496315e-08
      2      5   2   0.50000    -0.1200000   -0.6830000   1.154213e-03  1.502983e-06
      2     27   2   0.50000    -0.1200000    0.0600000   2.494471e-04  1.671101e-07
      2     28   2   0.50000    -0.1200000    0.0600000   2.494471e-04  1.671101e-07
      6      5   2   0.50000    -0.1200000   -0.6830000   1.154213e-03  1.502983e-06
      6     27   2   0.50000    -0.1200000    0.0600000   2.494471e-04  1.671101e-07
      6     28   2   0.50000    -0.1200000    0.0600000   2.494471e-04  1.671101e-07
     26      5   2   0.50000     0.0600000   -0.6830000   2.835898e-04  1.345781e-07
     26     27   2   0.50000     0.0600000    0.0600000   6.128906e-05  1.496315e-08
     26     28   2   0.50000     0.0600000    0.0600000   6.128906e-05  1.496315e-08
      2     29   2   0.50000    -0.1200000    0.0600000   2.494471e-04  1.671101e-07
      2     30   2   0.50000    -0.1200000    0.0600000   2.494471e-04  1.671101e-07
      4      7   2   0.50000     0.1450000   -0.1200000   1.015252e-03  1.866303e-06
      4     29   2   0.50000     0.1450000    0.0600000   2.494471e-04  1.671101e-07
      4     30   2   0.50000     0.1450000    0.0600000   2.494471e-04  1.671101e-07
     26      7   2   0.50000     0.0600000   -0.1200000   2.494471e-04  1.671101e-07
     26     29   2   0.50000     0.0600000    0.0600000   6.128906e-05  1.496315e-08
     26     30   2   0.50000     0.0600000    0.0600000   6.128906e-05  1.496315e-08
      3     40   2   0.50000    -0.0600000    0.4180000   1.995577e-06  1.069504e-11
     27     40   2   0.50000     0.0600000    0.4180000   4.903125e-07  9.576416e-13
     28     40   2   0.50000     0.0600000    0.4180000   4.903125e-07  9.576416e-13
      3     31   2   0.50000    -0.0600000    0.0600000   2.494471e-04  1.671101e-07
      3     32   2   0.50000    -0.0600000    0.0600000   2.494471e-04  1.671101e-07
     29      8   2   0.50000     0.0600000   -0.0600000   2.494471e-04  1.671101e-07
     29     31   2   0.50000     0.0600000    0.0600000   6.128906e-05  1.496315e-08
     29     32   2   0.50000     0.0600000    0.0600000   6.128906e-05  1.496315e-08
     30      8   2   0.50000     0.0600000   -0.0600000   2.494471e-04  1.671101e-07
     30     31   2   0.50000     0.0600000    0.0600000   6.128906e-05  1.496315e-08
     30     32   2   0.50000     0.0600000    0.0600000   6.128906e-05  1.496315e-08
      6      9   2   0.50000    -0.1200000    0.1900000   1.015252e-03  1.866303e-06
      6     33   2   0.50000    -0.1200000    0.0600000   2.494471e-04  1.671101e-07
     31      1   2   0.50000     0.0600000   -0.1200000   2.494471e-04  1.671101e-07
     31      9   2   0.50000     0.0600000    0.1900000   2.494471e-04  1.671101e-07
     31     33   2   0.50000     0.0600000    0.0600000   6.128906e-05  1.496315e-08
     32      1   2   0.50000     0.0600000   -0.1200000   2.494471e-04  1.671101e-07
     32      9   2   0.50000     0.0600000    0.1900000   2.494471e-04  1.671101e-07
     32     33   2   0.50000     0.0600000    0.0600000   6.128906e-05  1.496315e-08
      1     10   2   0.50000    -0.1200000   -0.3300000   1.026091e-03  1.187829e-06
      1     34   2   0.50000    -0.1200000    0.0300000   1.599888e-04  9.721644e-08
      1     35   2   0.50000    -0.1200000    0.0300000   1.599888e-04  9.721644e-08
      7     10   2   0.50000    -0.1200000   -0.3300000   1.026091e-03  1.187829e-06
      7     34   2   0.50000    -0.1200000    0.0300000   1.599888e-04  9.721644e-08
      7     35   2   0.50000    -0.1200000    0.0300000   1.599888e-04  9.721644e-08
     33     10   2   0.50000     0.0600000   -0.3300000   2.521103e-04  1.063590e-07
     33     34   2   0.50000     0.0600000    0.0300000   3.930919e-05  8.704828e-09
     33     35   2   0.50000     0.0600000    0.0300000   3.930919e-05  8.704828e-09
      8     11   2   0.50000    -0.0600000    0.6250000   1.575021e-03  3.561100e-06
     34     11   2   0.50000     0.0300000    0.6250000   2.482000e-04  1.854991e-07
     35     11   2   0.50000     0.0300000    0.6250000   2.482000e-04  1.854991e-07
      9     12   2   0.50000     0.1900000   -0.4300000   1.095425e-03  1.218041e-06
      9     13   2   0.50000     0.1900000   -0.1150000   1.091018e-03  2.092768e-06
     10     14   2   0.50000    -0.3300000   -0.1150000   1.102666e-03  1.331965e-06
     10     21   2   0.50000    -0.3300000   -0.1150000   1.102666e-03  1.331965e-06
     12     14   2   0.50000    -0.4300000   -0.1150000   1.177174e-03  1.365843e-06
     12     21   2   0.50000    -0.4300000   -0.1150000   1.177174e-03  1.365843e-06
     11     15   2   0.50000     0.6250000   -0.1150000   1.692561e-03  3.993218e-06
     11     36   2   0.50000     0.6250000    0.1150000   3.510079e-04  2.623353e-07
     21     15   2   0.50000    -0.1150000   -0.1150000   1.172438e-03  2.346713e-06
     21     36   2   0.50000    -0.1150000    0.1150000   2.431434e-04  1.541678e-07
     11     20   2   0.50000     0.6250000   -0.1150000   1.692561e-03  3.993218e-06
     11     39   2   0.50000     0.6250000    0.1150000   3.510079e-04  2.623353e-07
     14     20   2   0.50000    -0.1150000   -0.1150000   1.172438e-03  2.346713e-06
     14     39   2   0.50000    -0.1150000    0.1150000   2.431434e-04  1.541678e-07
     13     16   2   0.50000    -0.1150000   -0.1150000   1.172438e-03  2.346713e-06
     13     37   2   0.50000    -0.1150000    0.1150000   2.431434e-04  1.541678e-07
     36     16   2   0.50000     0.1150000   -0.1150000   2.431434e-04  1.541678e-07
     36     37   2   0.50000     0.1150000    0.1150000   5.042375e-05  1.012808e-08
     14     17   2   0.50000    -0.1150000    0.6250000   1.692561e-03  3.993218e-06
     37     17   2   0.50000     0.1150000    0.6250000   3.510079e-04  2.623353e-07
     37     20   2   0.50000     0.1150000   -0.1150000   2.431434e-04  1.541678e-07
     15     18   2   0.50000    -0.1150000   -0.4300000   1.177174e-03  1.365843e-06
     15     19   2   0.50000    -0.1150000   -0.0800000   1.102666e-03  1.331965e-06
     20     18   2   0.50000    -0.1150000   -0.4300000   1.177174e-03  1.365843e-06
     20     19   2   0.50000    -0.1150000   -0.0800000   1.102666e-03  1.331965e-06
     15     38   2   0.50000    -0.1150000    0.1150000   2.431434e-04  1.541678e-07
     17     21   2   0.50000     0.6250000   -0.1150000   1.692561e-03  3.993218e-06
     17     38   2   0.50000     0.6250000    0.1150000   3.510079e-04  2.623353e-07
     16     45   2   0.50000    -0.1150000   -0.2000000   9.038862e-04  9.862632e-07
     18     45   2   0.50000    -0.4300000   -0.2000000   9.075373e-04  5.740287e-07
     17     44   2   0.50000     0.6250000    0.0800000   1.575021e-03  3.561100e-06
     16     39   2   0.50000    -0.1150000    0.1150000   2.431434e-04  1.541678e-07
     38     13   2   0.50000     0.1150000   -0.1150000   2.431434e-04  1.541678e-07
     38     39   2   0.50000     0.1150000    0.1150000   5.042375e-05  1.012808e-08
     48     43   2   0.50000    -0.0600000   -0.0600000   1.015252e-03  1.866303e-06
     48     64   2   0.50000    -0.0600000    0.0600000   2.494471e-04  1.671101e-07
     48     65   2   0.50000    -0.0600000    0.0600000   2.494471e-04  1.671101e-07
     62     43   2   0.50000     0.0600000   -0.0600000   2.494471e-04  1.671101e-07
     62     64   2   0.50000     0.0600000    0.0600000   6.128906e-05  1.496315e-08
     62     65   2   0.50000     0.0600000    0.0600000   6.128906e-05  1.496315e-08
     63     43   2   0.50000     0.0600000   -0.0600000   2.494471e-04  1.671101e-07
     63     64   2   0.50000     0.0600000    0.0600000   6.128906e-05  1.496315e-08
     63     65   2   0.50000     0.0600000    0.0600000   6.128906e-05  1.496315e-08
     42     47   2   0.50000    -0.1200000   -0.1200000   1.015252e-03  1.866303e-06
     42     49   2   0.50000    -0.1200000    0.1900000   1.015252e-03  1.866303e-06
     42     73   2   0.50000    -0.1200000    0.0600000   2.494471e-04  1.671101e-07
     62     47   2   0.50000     0.0600000   -0.1200000   2.494471e-04  1.671101e-07
     62     49   2   0.50000     0.0600000    0.1900000   2.494471e-04  1.671101e-07
     62     73   2   0.50000     0.0600000    0.0600000   6.128906e-05  1.496315e-08
     63     47   2   0.50000     0.0600000   -0.1200000   2.494471e-04  1.671101e-07
     63     49   2   0.50000     0.0600000    0.1900000   2.494471e-04  1.671101e-07
     63     73   2   0.50000     0.0600000    0.0600000   6.128906e-05  1.496315e-08
     41     44   2   0.50000    -0.1200000    0.0800000   1.015252e-03  1.866303e-06
     41     46   2   0.50000    -0.1200000   -0.1200000   1.015252e-03  1.866303e-06
     41     66   2   0.50000    -0.1200000    0.0600000   2.494471e-04  1.671101e-07
     64     44   2   0.50000     0.0600000    0.0800000   2.494471e-04  1.671101e-07
     64     46   2   0.50000     0.0600000   -0.1200000   2.494471e-04  1.671101e-07
     64     66   2   0.50000     0.0600000    0.0600000   6.128906e-05  1.496315e-08
     65     44   2   0.50000     0.0600000    0.0800000   2.494471e-04  1.671101e-07
     65     46   2   0.50000     0.0600000   -0.1200000   2.494471e-04  1.671101e-07
     65     66   2   0.50000     0.0600000    0.0600000   6.128906e-05  1.496315e-08
     42     45   2   0.50000    -0.1200000   -0.2000000   8.411158e-04  8.795366e-07
     42     67   2   0.50000    -0.1200000    0.0600000   2.494471e-04  1.671101e-07
     42     68   2   0.50000    -0.1200000    0.0600000   2.494471e-04  1.671101e-07
     46     45   2   0.50000    -0.1200000   -0.2000000   8.411158e-04  8.795366e-07
     46     67   2   0.50000    -0.1200000    0.0600000   2.494471e-04  1.671101e-07
     46     68   2   0.50000    -0.1200000    0.0600000   2.494471e-04  1.671101e-07
     66     45   2   0.50000     0.0600000   -0.2000000   2.066619e-04  7.875431e-08
     66     67   2   0.50000     0.0600000    0.0600000   6.128906e-05  1.496315e-08
     66     68   2   0.50000     0.0600000    0.0600000   6.128906e-05  1.496315e-08
     42     69   2   0.50000    -0.1200000    0.0600000   2.494471e-04  1.671101e-07
     42     70   2   0.50000    -0.1200000    0.0600000   2.494471e-04  1.671101e-07
     44     47   2   0.50000     0.0800000   -0.1200000   1.015252e-03  1.866303e-06
     44     69   2   0.50000     0.0800000    0.0600000   2.494471e-04  1.671101e-07
     44     70   2   0.50000     0.0800000    0.0600000   2.494471e-04  1.671101e-07
     66     47   2   0.50000     0.0600000   -0.1200000   2.494471e-04  1.671101e-07
     66     69   2   0.50000     0.0600000    0.0600000   6.128906e-05  1.496315e-08
     66     70   2   0.50000     0.0600000    0.0600000   6.128906e-05  1.496315e-08
     43     19   2   0.50000    -0.0600000   -0.0800000   1.026091e-03  1.187829e-06
     67     19   2   0.50000     0.0600000   -0.0800000   2.521103e-04  1.063590e-07
     68     19   2   0.50000     0.0600000   -0.0800000   2.521103e-04  1.063590e-07
     43     71   2   0.50000    -0.0600000    0.0600000   2.494471e-04  1.671101e-07
     43     72   2   0.50000    -0.0600000    0.0600000   2.494471e-04  1.671101e-07
     69     48   2   0.50000     0.0600000   -0.0600000   2.494471e-04  1.671101e-07
     69     71   2   0.50000     0.0600000    0.0600000   6.128906e-05  1.496315e-08
     69     72   2   0.50000     0.0600000    0.0600000   6.128906e-05  1.496315e-08
     70     48   2   0.50000     0.0600000   -0.0600000   2.494471e-04  1.671101e-07
     70     71   2   0.50000     0.0600000    0.0600000   6.128906e-05  1.496315e-08
     70     72   2   0.50000     0.0600000    0.0600000   6.128906e-05  1.496315e-08
     46     49   2   0.50000    -0.1200000    0.1900000   1.015252e-03  1.866303e-06
     46     73   2   0.50000    -0.1200000    0.0600000   2.494471e-04  1.671101e-07
     71     41   2   0.50000     0.0600000   -0.1200000   2.494471e-04  1.671101e-07
     71     49   2   0.50000     0.0600000    0.1900000   2.494471e-04  1.671101e-07
     71     73   2   0.50000     0.0600000    0.0600000   6.128906e-05  1.496315e-08
     72     41   2   0.50000     0.0600000   -0.1200000   2.494471e-04  1.671101e-07
     72     49   2   0.50000     0.0600000    0.1900000   2.494471e-04  1.671101e-07
     72     73   2   0.50000     0.0600000    0.0600000   6.128906e-05  1.496315e-08
     41     50   2   0.50000    -0.1200000   -0.3300000   1.026091e-03  1.187829e-06
     41     74   2   0.50000    -0.1200000    0.0300000   1.599888e-04  9.721644e-08
     41     75   2   0.50000    -0.1200000    0.0300000   1.599888e-04  9.721644e-08
     47     50   2   0.50000    -0.1200000   -0.3300000   1.026091e-03  1.187829e-06
     47     74   2   0.50000    -0.1200000    0.0300000   1.599888e-04  9.721644e-08
     47     75   2   0.50000    -0.1200000    0.0300000   1.599888e-04  9.721644e-08
     73     50   2   0.50000     0.0600000   -0.3300000   2.521103e-04  1.063590e-07
     73     74   2   0.50000     0.0600000    0.0300000   3.930919e-05  8.704828e-09
     73     75   2   0.50000     0.0600000    0.0300000   3.930919e-05  8.704828e-09
     48     51   2   0.50000    -0.0600000    0.6250000   1.575021e-03  3.561100e-06
     74     51   2   0.50000     0.0300000    0.6250000   2.482000e-04  1.854991e-07
     75     51   2   0.50000     0.0300000    0.6250000   2.482000e-04  1.854991e-07
     49     52   2   0.50000     0.1900000   -0.4300000   1.095425e-03  1.218041e-06
     49     53   2   0.50000     0.1900000   -0.1150000   1.091018e-03  2.092768e-06
     50     54   2   0.50000    -0.3300000   -0.1150000   1.102666e-03  1.331965e-06
     50     61   2   0.50000    -0.3300000   -0.1150000   1.102666e-03  1.331965e-06
     52     54   2   0.50000    -0.4300000   -0.1150000   1.177174e-03  1.365843e-06
     52     61   2   0.50000    -0.4300000   -0.1150000   1.177174e-03  1.365843e-06
     51     55   2   0.50000     0.6250000   -0.1150000   1.692561e-03  3.993218e-06
     51     76   2   0.50000     0.6250000    0.1150000   3.510079e-04  2.623353e-07
     61     55   2   0.50000    -0.1150000   -0.1150000   1.172438e-03  2.346713e-06
     61     76   2   0.50000    -0.1150000    0.1150000   2.431434e-04  1.541678e-07
     51     60   2   0.50000     0.6250000   -0.1150000   1.692561e-03  3.993218e-06
     51     79   2   0.50000     0.6250000    0.1150000   3.510079e-04  2.623353e-07
     54     60   2   0.50000    -0.1150000   -0.1150000   1.172438e-03  2.346713e-06
     54     79   2   0.50000    -0.1150000    0.1150000   2.431434e-04  1.541678e-07
     53     56   2   0.50000    -0.1150000   -0.1150000   1.172438e-03  2.346713e-06
     53     77   2   0.50000    -0.1150000    0.1150000   2.431434e-04  1.541678e-07
     76     56   2   0.50000     0.1150000   -0.1150000   2.431434e-04  1.541678e-07
     76     77   2   0.50000     0.1150000    0.1150000   5.042375e-05  1.012808e-08
     54     57   2   0.50000    -0.1150000    0.6250000   1.692561e-03  3.993218e-06
     77     57   2   0.50000     0.1150000    0.6250000   3.510079e-04  2.623353e-07
     77     60   2   0.50000     0.1150000   -0.1150000   2.431434e-04  1.541678e-07
     55     58   2   0.50000    -0.1150000   -0.4300000   1.177174e-03  1.365843e-06
     55     59   2   0.50000    -0.1150000   -0.0800000   1.102666e-03  1.331965e-06
     60     58   2   0.50000    -0.1150000   -0.4300000   1.177174e-03  1.365843e-06
     60     59   2   0.50000    -0.1150000   -0.0800000   1.102666e-03  1.331965e-06
     55     78   2   0.50000    -0.1150000    0.1150000   2.431434e-04  1.541678e-07
     57     61   2   0.50000     0.6250000   -0.1150000   1.692561e-03  3.993218e-06
     57     78   2   0.50000     0.6250000    0.1150000   3.510079e-04  2.623353e-07
     56     84   2   0.50000    -0.1150000   -0.2000000   9.038862e-04  9.862632e-07
     58     84   2   0.50000    -0.4300000   -0.2000000   9.075373e-04  5.740287e-07
     57     83   2   0.50000     0.6250000    0.0800000   1.575021e-03  3.561100e-06
     56     79   2   0.50000    -0.1150000    0.1150000   2.431434e-04  1.541678e-07
     78     53   2   0.50000     0.1150000   -0.1150000   2.431434e-04  1.541678e-07
     78     79   2   0.50000     0.1150000    0.1150000   5.042375e-05  1.012808e-08
     87     82   2   0.50000    -0.0600000   -0.0600000   1.015252e-03  1.866303e-06
     87    103   2   0.50000    -0.0600000    0.0600000   2.494471e-04  1.671101e-07
     87    104   2   0.50000    -0.0600000    0.0600000   2.494471e-04  1.671101e-07
    101     82   2   0.50000     0.0600000   -0.0600000   2.494471e-04  1.671101e-07
    101    103   2   0.50000     0.0600000    0.0600000   6.128906e-05  1.496315e-08
    101    104   2   0.50000     0.0600000    0.0600000   6.128906e-05  1.496315e-08
    102     82   2   0.50000     0.0600000   -0.0600000   2.494471e-04  1.671101e-07
    102    103   2   0.50000     0.0600000    0.0600000   6.128906e-05  1.496315e-08
    102    104   2   0.50000     0.0600000    0.0600000   6.128906e-05  1.496315e-08
     81     86   2   0.50000    -0.1200000   -0.1200000   1.015252e-03  1.866303e-06
     81     88   2   0.50000    -0.1200000    0.1900000   1.015252e-03  1.866303e-06
     81    112   2   0.50000    -0.1200000    0.0600000   2.494471e-04  1.671101e-07
    101     86   2   0.50000     0.0600000   -0.1200000   2.494471e-04  1.671101e-07
    101     88   2   0.50000     0.0600000    0.1900000   2.494471e-04  1.671101e-07
    101    112   2   0.50000     0.0600000    0.0600000   6.128906e-05  1.496315e-08
    102     86   2   0.50000     0.0600000   -0.1200000   2.494471e-04  1.671101e-07
    102     88   2   0.50000     0.0600000    0.1900000   2.494471e-04  1.671101e-07
    102    112   2   0.50000     0.0600000    0.0600000   6.128906e-05  1.496315e-08
     80     83   2   0.50000    -0.1200000    0.0800000   1.015252e-03  1.866303e-06
     80     85   2   0.50000    -0.1200000   -0.1200000   1.015252e-03  1.866303e-06
     80    105   2   0.50000    -0.1200000    0.0600000   2.494471e-04  1.671101e-07
    103     83   2   0.50000     0.0600000    0.0800000   2.494471e-04  1.671101e-07
    103     85   2   0.50000     0.0600000   -0.1200000   2.494471e-04  1.671101e-07
    103    105   2   0.50000     0.0600000    0.0600000   6.128906e-05  1.496315e-08
    104     83   2   0.50000     0.0600000    0.0800000   2.494471e-04  1.671101e-07
    104     85   2   0.50000     0.0600000   -0.1200000   2.494471e-04  1.671101e-07
    104    105   2   0.50000     0.0600000    0.0600000   6.128906e-05  1.496315e-08
     81     84   2   0.50000    -0.1200000   -0.2000000   8.411158e-04  8.795366e-07
     81    106   2   0.50000    -0.1200000    0.0600000   2.494471e-04  1.671101e-07
     81    107   2   0.50000    -0.1200000    0.0600000   2.494471e-04  1.671101e-07
     85     84   2   0.50000    -0.1200000   -0.2000000   8.411158e-04  8.795366e-07
     85    106   2   0.50000    -0.1200000    0.0600000   2.494471e-04  1.671101e-07
     85    107   2   0.50000    -0.1200000    0.0600000   2.494471e-04  1.671101e-07
    105     84   2   0.50000     0.0600000   -0.2000000   2.066619e-04  7.875431e-08
    105    106   2   0.50000     0.0600000    0.0600000   6.128906e-05  1.496315e-08
    105    107   2   0.50000     0.0600000    0.0600000   6.128906e-05  1.496315e-08
     81    108   2   0.50000    -0.1200000    0.0600000   2.494471e-04  1.671101e-07
     81    109   2   0.50000    -0.1200000    0.0600000   2.494471e-04  1.671101e-07
     83     86   2   0.50000     0.0800000   -0.1200000   1.015252e-03  1.866303e-06
     83    108   2   0.50000     0.0800000    0.0600000   2.494471e-04  1.671101e-07
     83    109   2   0.50000     0.0800000    0.0600000   2.494471e-04  1.671101e-07
    105     86   2   0.50000     0.0600000   -0.1200000   2.494471e-04  1.671101e-07
    105    108   2   0.50000     0.0600000    0.0600000   6.128906e-05  1.496315e-08
    105    109   2   0.50000     0.0600000    0.0600000   6.128906e-05  1.496315e-08
     82     59   2   0.50000    -0.0600000   -0.0800000   1.026091e-03  1.187829e-06
    106     59   2   0.50000     0.0600000   -0.0800000   2.521103e-04  1.063590e-07
    107     59   2   0.50000     0.0600000   -0.0800000   2.521103e-04  1.063590e-07
     82    110   2   0.50000    -0.0600000    0.0600000   2.494471e-04  1.671101e-07
     82    111   2   0.50000    -0.0600000    0.0600000   2.494471e-04  1.671101e-07
    108     87   2   0.50000     0.0600000   -0.0600000   2.494471e-04  1.671101e-07
    108    110   2   0.50000     0.0600000    0.0600000   6.128906e-05  1.496315e-08
    108    111   2   0.50000     0.0600000    0.0600000   6.128906e-05  1.496315e-08
    109     87   2   0.50000     0.0600000   -0.0600000   2.494471e-04  1.671101e-07
    109    110   2   0.50000     0.0600000    0.0600000   6.128906e-05  1.496315e-08
    109    111   2   0.50000     0.0600000    0.0600000   6.128906e-05  1.496315e-08
     85     88   2   0.50000    -0.1200000    0.1900000   1.015252e-03  1.866303e-06
     85    112   2   0.50000    -0.1200000    0.0600000   2.494471e-04  1.671101e-07
    110     80   2   0.50000     0.0600000   -0.1200000   2.494471e-04  1.671101e-07
    110     88   2   0.50000     0.0600000    0.1900000   2.494471e-04  1.671101e-07
    110    112   2   0.50000     0.0600000    0.0600000   6.128906e-05  1.496315e-08
    111     80   2   0.50000     0.0600000   -0.1200000   2.494471e-04  1.671101e-07
    111     88   2   0.50000     0.0600000    0.1900000   2.494471e-04  1.671101e-07
    111    112   2   0.50000     0.0600000    0.0600000   6.128906e-05  1.496315e-08
     80     89   2   0.50000    -0.1200000   -0.3300000   1.026091e-03  1.187829e-06
     80    113   2   0.50000    -0.1200000    0.0300000   1.599888e-04  9.721644e-08
     80    114   2   0.50000    -0.1200000    0.0300000   1.599888e-04  9.721644e-08
     86     89   2   0.50000    -0.1200000   -0.3300000   1.026091e-03  1.187829e-06
     86    113   2   0.50000    -0.1200000    0.0300000   1.599888e-04  9.721644e-08
     86    114   2   0.50000    -0.1200000    0.0300000   1.599888e-04  9.721644e-08
    112     89   2   0.50000     0.0600000   -0.3300000   2.521103e-04  1.063590e-07
    112    113   2   0.50000     0.0600000    0.0300000   3.930919e-05  8.704828e-09
    112    114   2   0.50000     0.0600000    0.0300000   3.930919e-05  8.704828e-09
     87     90   2   0.50000    -0.0600000    0.6250000   1.575021e-03  3.561100e-06
    113     90   2   0.50000     0.0300000    0.6250000   2.482000e-04  1.854991e-07
    114     90   2   0.50000     0.0300000    0.6250000   2.482000e-04  1.854991e-07
     88     91   2   0.50000     0.1900000   -0.4300000   1.095425e-03  1.218041e-06
     88     92   2   0.50000     0.1900000   -0.1150000   1.091018e-03  2.092768e-06
     89     93   2   0.50000    -0.3300000   -0.1150000   1.102666e-03  1.331965e-06
     89    100   2   0.50000    -0.3300000   -0.1150000   1.102666e-03  1.331965e-06
     91     93   2   0.50000    -0.4300000   -0.1150000   1.177174e-03  1.365843e-06
     91    100   2   0.50000    -0.4300000   -0.1150000   1.177174e-03  1.365843e-06
     90     94   2   0.50000     0.6250000   -0.1150000   1.692561e-03  3.993218e-06
     90    115   2   0.50000     0.6250000    0.1150000   3.510079e-04  2.623353e-07
    100     94   2   0.50000    -0.1150000   -0.1150000   1.172438e-03  2.346713e-06
    100    115   2   0.50000    -0.1150000    0.1150000   2.431434e-04  1.541678e-07
     90     99   2   0.50000     0.6250000   -0.1150000   1.692561e-03  3.993218e-06
     90    118   2   0.50000     0.6250000    0.1150000   3.510079e-04  2.623353e-07
     93     99   2   0.50000    -0.1150000   -0.1150000   1.172438e-03  2.346713e-06
     93    118   2   0.50000    -0.1150000    0.1150000   2.431434e-04  1.541678e-07
     92     95   2   0.50000    -0.1150000   -0.1150000   1.172438e-03  2.346713e-06
     92    116   2   0.50000    -0.1150000    0.1150000   2.431434e-04  1.541678e-07
    115     95   2   0.50000     0.1150000   -0.1150000   2.431434e-04  1.541678e-07
    115    116   2   0.50000     0.1150000    0.1150000   5.042375e-05  1.012808e-08
     93     96   2   0.50000    -0.1150000    0.6250000   1.692561e-03  3.993218e-06
    116     96   2   0.50000     0.1150000    0.6250000   3.510079e-04  2.623353e-07
    116     99   2   0.50000     0.1150000   -0.1150000   2.431434e-04  1.541678e-07
     94     97   2   0.50000    -0.1150000   -0.4300000   1.177174e-03  1.365843e-06
     94     98   2   0.50000    -0.1150000   -0.0800000   1.102666e-03  1.331965e-06
     99     97   2   0.50000    -0.1150000   -0.4300000   1.177174e-03  1.365843e-06
     99     98   2   0.50000    -0.1150000   -0.0800000   1.102666e-03  1.331965e-06
     94    117   2   0.50000    -0.1150000    0.1150000   2.431434e-04  1.541678e-07
     96    100   2   0.50000     0.6250000   -0.1150000   1.692561e-03  3.993218e-06
     96    117   2   0.50000     0.6250000    0.1150000   3.510079e-04  2.623353e-07
     95    123   2   0.50000    -0.1150000   -0.2000000   9.038862e-04  9.862632e-07
     97    123   2   0.50000    -0.4300000   -0.2000000   9.075373e-04  5.740287e-07
     96    122   2   0.50000     0.6250000    0.0800000   1.575021e-03  3.561100e-06
     95    118   2   0.50000    -0.1150000    0.1150000   2.431434e-04  1.541678e-07
    117     92   2   0.50000     0.1150000   -0.1150000   2.431434e-04  1.541678e-07
    117    118   2   0.50000     0.1150000    0.1150000   5.042375e-05  1.012808e-08
    126    121   2   0.50000    -0.0600000   -0.0600000   1.015252e-03  1.866303e-06
    126    142   2   0.50000    -0.0600000    0.0600000   2.494471e-04  1.671101e-07
    126    143   2   0.50000    -0.0600000    0.0600000   2.494471e-04  1.671101e-07
    140    121   2   0.50000     0.0600000   -0.0600000   2.494471e-04  1.671101e-07
    140    142   2   0.50000     0.0600000    0.0600000   6.128906e-05  1.496315e-08
    140    143   2   0.50000     0.0600000    0.0600000   6.128906e-05  1.496315e-08
    141    121   2   0.50000     0.0600000   -0.0600000   2.494471e-04  1.671101e-07
    141    142   2   0.50000     0.0600000    0.0600000   6.128906e-05  1.496315e-08
    141    143   2   0.50000     0.0600000    0.0600000   6.128906e-05  1.496315e-08
    120    125   2   0.50000    -0.1200000   -0.1200000   1.015252e-03  1.866303e-06
    120    127   2   0.50000    -0.1200000    0.1900000   1.015252e-03  1.866303e-06
    120    151   2   0.50000    -0.1200000    0.0600000   2.494471e-04  1.671101e-07
    140    125   2   0.50000     0.0600000   -0.1200000   2.494471e-04  1.671101e-07
    140    127   2   0.50000     0.0600000    0.1900000   2.494471e-04  1.671101e-07
    140    151   2   0.50000     0.0600000    0.0600000   6.128906e-05  1.496315e-08
    141    125   2   0.50000     0.0600000   -0.1200000   2.494471e-04  1.671101e-07
    141    127   2   0.50000     0.0600000    0.1900000   2.494471e-04  1.671101e-07
    141    151   2   0.50000     0.0600000    0.0600000   6.128906e-05  1.496315e-08
    119    122   2   0.50000    -0.1200000    0.0800000   1.015252e-03  1.866303e-06
    119    124   2   0.50000    -0.1200000   -0.1200000   1.015252e-03  1.866303e-06
    119    144   2   0.50000    -0.1200000    0.0600000   2.494471e-04  1.671101e-07
    142    122   2   0.50000     0.0600000    0.0800000   2.494471e-04  1.671101e-07
    142    124   2   0.50000     0.0600000   -0.1200000   2.494471e-04  1.671101e-07
    142    144   2   0.50000     0.0600000    0.0600000   6.128906e-05  1.496315e-08
    143    122   2   0.50000     0.0600000    0.0800000   2.494471e-04  1.671101e-07
    143    124   2   0.50000     0.0600000   -0.1200000   2.494471e-04  1.671101e-07
    143    144   2   0.50000     0.0600000    0.0600000   6.128906e-05  1.496315e-08
    120    123   2   0.50000    -0.1200000   -0.2000000   8.411158e-04  8.795366e-07
    120    145   2   0.50000    -0.1200000    0.0600000   2.494471e-04  1.671101e-07
    120    146   2   0.50000    -0.1200000    0.0600000   2.494471e-04  1.671101e-07
    124    123   2   0.50000    -0.1200000   -0.2000000   8.411158e-04  8.795366e-07
    124    145   2   0.50000    -0.1200000    0.0600000   2.494471e-04  1.671101e-07
    124    146   2   0.50000    -0.1200000    0.0600000   2.494471e-04  1.671101e-07
    144    123   2   0.50000     0.0600000   -0.2000000   2.066619e-04  7.875431e-08
    144    145   2   0.50000     0.0600000    0.0600000   6.128906e-05  1.496315e-08
    144    146   2   0.50000     0.0600000    0.0600000   6.128906e-05  1.496315e-08
    120    147   2   0.50000    -0.1200000    0.0600000   2.494471e-04  1.671101e-07
    120    148   2   0.50000    -0.1200000    0.0600000   2.494471e-04  1.671101e-07
    122    125   2   0.50000     0.0800000   -0.1200000   1.015252e-03  1.866303e-06
    122    147   2   0.50000     0.0800000    0.0600000   2.494471e-04  1.671101e-07
    122    148   2   0.50000     0.0800000    0.0600000   2.494471e-04  1.671101e-07
    144    125   2   0.50000     0.0600000   -0.1200000   2.494471e-04  1.671101e-07
    144    147   2   0.50000     0.0600000    0.0600000   6.128906e-05  1.496315e-08
    144    148   2   0.50000     0.0600000    0.0600000   6.128906e-05  1.496315e-08
    121     98   2   0.50000    -0.0600000   -0.0800000   1.026091e-03  1.187829e-06
    145     98   2   0.50000     0.0600000   -0.0800000   2.521103e-04  1.063590e-07
    146     98   2   0.50000     0.0600000   -0.0800000   2.521103e-04  1.063590e-07
    121    149   2   0.50000    -0.0600000    0.0600000   2.494471e-04  1.671101e-07
    121    150   2   0.50000    -0.0600000    0.0600000   2.494471e-04  1.671101e-07
    147    126   2   0.50000     0.0600000   -0.0600000   2.494471e-04  1.671101e-07
    147    149   2   0.50000     0.0600000    0.0600000   6.128906e-05  1.496315e-08
    147    150   2   0.50000     0.0600000    0.0600000   6.128906e-05  1.496315e-08
    148    126   2   0.50000     0.0600000   -0.0600000   2.494471e-04  1.671101e-07
    148    149   2   0.50000     0.0600000    0.0600000   6.128906e-05  1.496315e-08
    148    150   2   0.50000     0.0600000    0.0600000   6.128906e-05  1.496315e-08
    124    127   2   0.50000    -0.1200000    0.1900000   1.015252e-03  1.866303e-06
    124    151   2   0.50000    -0.1200000    0.0600000   2.494471e-04  1.671101e-07
    149    119   2   0.50000     0.0600000   -0.1200000   2.494471e-04  1.671101e-07
    149    127   2   0.50000     0.0600000    0.1900000   2.494471e-04  1.671101e-07
    149    151   2   0.50000     0.0600000    0.0600000   6.128906e-05  1.496315e-08
    150    119   2   0.50000     0.0600000   -0.1200000   2.494471e-04  1.671101e-07
    150    127   2   0.50000     0.0600000    0.1900000   2.494471e-04  1.671101e-07
    150    151   2   0.50000     0.0600000    0.0600000   6.128906e-05  1.496315e-08
    119    128   2   0.50000    -0.1200000   -0.3300000   1.026091e-03  1.187829e-06
    119    152   2   0.50000    -0.1200000    0.0300000   1.599888e-04  9.721644e-08
    119    153   2   0.50000    -0.1200000    0.0300000   1.599888e-04  9.721644e-08
    125    128   2   0.50000    -0.1200000   -0.3300000   1.026091e-03  1.187829e-06
    125    152   2   0.50000    -0.1200000    0.0300000   1.599888e-04  9.721644e-08
    125    153   2   0.50000    -0.1200000    0.0300000   1.599888e-04  9.721644e-08
    151    128   2   0.50000     0.0600000   -0.3300000   2.521103e-04  1.063590e-07
    151    152   2   0.50000     0.0600000    0.0300000   3.930919e-05  8.704828e-09
    151    153   2   0.50000     0.0600000    0.0300000   3.930919e-05  8.704828e-09
    126    129   2   0.50000    -0.0600000    0.6250000   1.575021e-03  3.561100e-06
    152    129   2   0.50000     0.0300000    0.6250000   2.482000e-04  1.854991e-07
    153    129   2   0.50000     0.0300000    0.6250000   2.482000e-04  1.854991e-07
    127    130   2   0.50000     0.1900000   -0.4300000   1.095425e-03  1.218041e-06
    127    131   2   0.50000     0.1900000   -0.1150000   1.091018e-03  2.092768e-06
    128    132   2   0.50000    -0.3300000   -0.1150000   1.102666e-03  1.331965e-06
    128    139   2   0.50000    -0.3300000   -0.1150000   1.102666e-03  1.331965e-06
    130    132   2   0.50000    -0.4300000   -0.1150000   1.177174e-03  1.365843e-06
    130    139   2   0.50000    -0.4300000   -0.1150000   1.177174e-03  1.365843e-06
    129    133   2   0.50000     0.6250000   -0.1150000   1.692561e-03  3.993218e-06
    129    154   2   0.50000     0.6250000    0.1150000   3.510079e-04  2.623353e-07
    139    133   2   0.50000    -0.1150000   -0.1150000   1.172438e-03  2.346713e-06
    139    154   2   0.50000    -0.1150000    0.1150000   2.431434e-04  1.541678e-07
    129    138   2   0.50000     0.6250000   -0.1150000   1.692561e-03  3.993218e-06
    129    157   2   0.50000     0.6250000    0.1150000   3.510079e-04  2.623353e-07
    132    138   2   0.50000    -0.1150000   -0.1150000   1.172438e-03  2.346713e-06
    132    157   2   0.50000    -0.1150000    0.1150000   2.431434e-04  1.541678e-07
    131    134   2   0.50000    -0.1150000   -0.1150000   1.172438e-03  2.346713e-06
    131    155   2   0.50000    -0.1150000    0.1150000   2.431434e-04  1.541678e-07
    154    134   2   0.50000     0.1150000   -0.1150000   2.431434e-04  1.541678e-07
    154    155   2   0.50000     0.1150000    0.1150000   5.042375e-05  1.012808e-08
    132    135   2   0.50000    -0.1150000    0.6250000   1.692561e-03  3.993218e-06
    155    135   2   0.50000     0.1150000    0.6250000   3.510079e-04  2.623353e-07
    155    138   2   0.50000     0.1150000   -0.1150000   2.431434e-04  1.541678e-07
    133    136   2   0.50000    -0.1150000   -0.4300000   1.177174e-03  1.365843e-06
    133    137   2   0.50000    -0.1150000   -0.0800000   1.102666e-03  1.331965e-06
    138    136   2   0.50000    -0.1150000   -0.4300000   1.177174e-03  1.365843e-06
    138    137   2   0.50000    -0.1150000   -0.0800000   1.102666e-03  1.331965e-06
    133    156   2   0.50000    -0.1150000    0.1150000   2.431434e-04  1.541678e-07
    135    139   2   0.50000     0.6250000   -0.1150000   1.692561e-03  3.993218e-06
    135    156   2   0.50000     0.6250000    0.1150000   3.510079e-04  2.623353e-07
    134    162   2   0.50000    -0.1150000   -0.2000000   9.038862e-04  9.862632e-07
    136    162   2   0.50000    -0.4300000   -0.2000000   9.075373e-04  5.740287e-07
    135    161   2   0.50000     0.6250000    0.0800000   1.575021e-03  3.561100e-06
    134    157   2   0.50000    -0.1150000    0.1150000   2.431434e-04  1.541678e-07
    156    131   2   0.50000     0.1150000   -0.1150000   2.431434e-04  1.541678e-07
    156    157   2   0.50000     0.1150000    0.1150000   5.042375e-05  1.012808e-08
    165    160   2   0.50000    -0.0600000   -0.0600000   1.015252e-03  1.866303e-06
    165    181   2   0.50000    -0.0600000    0.0600000   2.494471e-04  1.671101e-07
    165    182   2   0.50000    -0.0600000    0.0600000   2.494471e-04  1.671101e-07
    179    160   2   0.50000     0.0600000   -0.0600000   2.494471e-04  1.671101e-07
    179    181   2   0.50000     0.0600000    0.0600000   6.128906e-05  1.496315e-08
    179    182   2   0.50000     0.0600000    0.0600000   6.128906e-05  1.496315e-08
    180    160   2   0.50000     0.0600000   -0.0600000   2.494471e-04  1.671101e-07
    180    181   2   0.50000     0.0600000    0.0600000   6.128906e-05  1.496315e-08
    180    182   2   0.50000     0.0600000    0.0600000   6.128906e-05  1.496315e-08
    159    164   2   0.50000    -0.1200000   -0.1200000   1.015252e-03  1.866303e-06
    159    166   2   0.50000    -0.1200000    0.1900000   1.015252e-03  1.866303e-06
    159    190   2   0.50000    -0.1200000    0.0600000   2.494471e-04  1.671101e-07
    179    164   2   0.50000     0.0600000   -0.1200000   2.494471e-04  1.671101e-07
    179    166   2   0.50000     0.0600000    0.1900000   2.494471e-04  1.671101e-07
    179    190   2   0.50000     0.0600000    0.0600000   6.128906e-05  1.496315e-08
    180    164   2   0.50000     0.0600000   -0.1200000   2.494471e-04  1.671101e-07
    180    166   2   0.50000     0.0600000    0.1900000   2.494471e-04  1.671101e-07
    180    190   2   0.50000     0.0600000    0.0600000   6.128906e-05  1.496315e-08
    158    161   2   0.50000    -0.1200000    0.0800000   1.015252e-03  1.866303e-06
    158    163   2   0.50000    -0.1200000   -0.1200000   1.015252e-03  1.866303e-06
    158    183   2   0.50000    -0.1200000    0.0600000   2.494471e-04  1.671101e-07
    181    161   2   0.50000     0.0600000    0.0800000   2.494471e-04  1.671101e-07
    181    163   2   0.50000     0.0600000   -0.1200000   2.494471e-04  1.671101e-07
    181    183   2   0.50000     0.0600000    0.0600000   6.128906e-05  1.496315e-08
    182    161   2   0.50000     0.0600000    0.0800000   2.494471e-04  1.671101e-07
    182    163   2   0.50000     0.0600000   -0.1200000   2.494471e-04  1.671101e-07
    182    183   2   0.50000     0.0600000    0.0600000   6.128906e-05  1.496315e-08
    159    162   2   0.50000    -0.1200000   -0.2000000   8.411158e-04  8.795366e-07
    159    184   2   0.50000    -0.1200000    0.0600000   2.494471e-04  1.671101e-07
    159    185   2   0.50000    -0.1200000    0.0600000   2.494471e-04  1.671101e-07
    163    162   2   0.50000    -0.1200000   -0.2000000   8.411158e-04  8.795366e-07
    163    184   2   0.50000    -0.1200000    0.0600000   2.494471e-04  1.671101e-07
    163    185   2   0.50000    -0.1200000    0.0600000   2.494471e-04  1.671101e-07
    183    162   2   0.50000     0.0600000   -0.2000000   2.066619e-04  7.875431e-08
    183    184   2   0.50000     0.0600000    0.0600000   6.128906e-05  1.496315e-08
    183    185   2   0.50000     0.0600000    0.0600000   6.128906e-05  1.496315e-08
    159    186   2   0.50000    -0.1200000    0.0600000   2.494471e-04  1.671101e-07
    159    187   2   0.50000    -0.1200000    0.0600000   2.494471e-04  1.671101e-07
    161    164   2   0.50000     0.0800000   -0.1200000   1.015252e-03  1.866303e-06
    161    186   2   0.50000     0.0800000    0.0600000   2.494471e-04  1.671101e-07
    161    187   2   0.50000     0.0800000    0.0600000   2.494471e-04  1.671101e-07
    183    164   2   0.50000     0.0600000   -0.1200000   2.494471e-04  1.671101e-07
    183    186   2   0.50000     0.0600000    0.0600000   6.128906e-05  1.496315e-08
    183    187   2   0.50000     0.0600000    0.0600000   6.128906e-05  1.496315e-08
    160    137   2   0.50000    -0.0600000   -0.0800000   1.026091e-03  1.187829e-06
    184    137   2   0.50000     0.0600000   -0.0800000   2.521103e-04  1.063590e-07
    185    137   2   0.50000     0.0600000   -0.0800000   2.521103e-04  1.063590e-07
    160    188   2   0.50000    -0.0600000    0.0600000   2.494471e-04  1.671101e-07
    160    189   2   0.50000    -0.0600000    0.0600000   2.494471e-04  1.671101e-07
    186    165   2   0.50000     0.0600000   -0.0600000   2.494471e-04  1.671101e-07
    186    188   2   0.50000     0.0600000    0.0600000   6.128906e-05  1.496315e-08
    186    189   2   0.50000     0.0600000    0.0600000   6.128906e-05  1.496315e-08
    187    165   2   0.50000     0.0600000   -0.0600000   2.494471e-04  1.671101e-07
    187    188   2   0.50000     0.0600000    0.0600000   6.128906e-05  1.496315e-08
    187    189   2   0.50000     0.0600000    0.0600000   6.128906e-05  1.496315e-08
    163    166   2   0.50000    -0.1200000    0.1900000   1.015252e-03  1.866303e-06
    163    190   2   0.50000    -0.1200000    0.0600000   2.494471e-04  1.671101e-07
    188    158   2   0.50000     0.0600000   -0.1200000   2.494471e-04  1.671101e-07
    188    166   2   0.50000     0.0600000    0.1900000   2.494471e-04  1.671101e-07
    188    190   2   0.50000     0.0600000    0.0600000   6.128906e-05  1.496315e-08
    189    158   2   0.50000     0.0600000   -0.1200000   2.494471e-04  1.671101e-07
    189    166   2   0.50000     0.0600000    0.1900000   2.494471e-04  1.671101e-07
    189    190   2   0.50000     0.0600000    0.0600000   6.128906e-05  1.496315e-08
    158    167   2   0.50000    -0.1200000   -0.3300000   1.026091e-03  1.187829e-06
    158    191   2   0.50000    -0.1200000    0.0300000   1.599888e-04  9.721644e-08
    158    192   2   0.50000    -0.1200000    0.0300000   1.599888e-04  9.721644e-08
    164    167   2   0.50000    -0.1200000   -0.3300000   1.026091e-03  1.187829e-06
    164    191   2   0.50000    -0.1200000    0.0300000   1.599888e-04  9.721644e-08
    164    192   2   0.50000    -0.1200000    0.0300000   1.599888e-04  9.721644e-08
    190    167   2   0.50000     0.0600000   -0.3300000   2.521103e-04  1.063590e-07
    190    191   2   0.50000     0.0600000    0.0300000   3.930919e-05  8.704828e-09
    190    192   2   0.50000     0.0600000    0.0300000   3.930919e-05  8.704828e-09
    165    168   2   0.50000    -0.0600000    0.6250000   1.575021e-03  3.561100e-06
    191    168   2   0.50000     0.0300000    0.6250000   2.482000e-04  1.854991e-07
    192    168   2   0.50000     0.0300000    0.6250000   2.482000e-04  1.854991e-07
    166    169   2   0.50000     0.1900000   -0.4300000   1.095425e-03  1.218041e-06
    166    170   2   0.50000     0.1900000   -0.1150000   1.091018e-03  2.092768e-06
    167    171   2   0.50000    -0.3300000   -0.1150000   1.102666e-03  1.331965e-06
    167    178   2   0.50000    -0.3300000   -0.1150000   1.102666e-03  1.331965e-06
    169    171   2   0.50000    -0.4300000   -0.1150000   1.177174e-03  1.365843e-06
    169    178   2   0.50000    -0.4300000   -0.1150000   1.177174e-03  1.365843e-06
    168    172   2   0.50000     0.6250000   -0.1150000   1.692561e-03  3.993218e-06
    168    193   2   0.50000     0.6250000    0.1150000   3.510079e-04  2.623353e-07
    178    172   2   0.50000    -0.1150000   -0.1150000   1.172438e-03  2.346713e-06
    178    193   2   0.50000    -0.1150000    0.1150000   2.431434e-04  1.541678e-07
    168    177   2   0.50000     0.6250000   -0.1150000   1.692561e-03  3.993218e-06
    168    196   2   0.50000     0.6250000    0.1150000   3.510079e-04  2.623353e-07
    171    177   2   0.50000    -0.1150000   -0.1150000   1.172438e-03  2.346713e-06
    171    196   2   0.50000    -0.1150000    0.1150000   2.431434e-04  1.541678e-07
    170    173   2   0.50000    -0.1150000   -0.1150000   1.172438e-03  2.346713e-06
    170    194   2   0.50000    -0.1150000    0.1150000   2.431434e-04  1.541678e-07
    193    173   2   0.50000     0.1150000   -0.1150000   2.431434e-04  1.541678e-07
    193    194   2   0.50000     0.1150000    0.1150000   5.042375e-05  1.012808e-08
    171    174   2   0.50000    -0.1150000    0.6250000   1.692561e-03  3.993218e-06
    194    174   2   0.50000     0.1150000    0.6250000   3.510079e-04  2.623353e-07
    194    177   2   0.50000     0.1150000   -0.1150000   2.431434e-04  1.541678e-07
    172    175   2   0.50000    -0.1150000   -0.4300000   1.177174e-03  1.365843e-06
    172    176   2   0.50000    -0.1150000   -0.0800000   1.102666e-03  1.331965e-06
    177    175   2   0.50000    -0.1150000   -0.4300000   1.177174e-03  1.365843e-06
    177    176   2   0.50000    -0.1150000   -0.0800000   1.102666e-03  1.331965e-06
    172    195   2   0.50000    -0.1150000    0.1150000   2.431434e-04  1.541678e-07
    174    178   2   0.50000     0.6250000   -0.1150000   1.692561e-03  3.993218e-06
    174    195   2   0.50000     0.6250000    0.1150000   3.510079e-04  2.623353e-07
    173    201   2   0.50000    -0.1150000   -0.2000000   9.038862e-04  9.862632e-07
    175    201   2   0.50000    -0.4300000   -0.2000000   9.075373e-04  5.740287e-07
    174    200   2   0.50000     0.6250000    0.0800000   1.575021e-03  3.561100e-06
    173    196   2   0.50000    -0.1150000    0.1150000   2.431434e-04  1.541678e-07
    195    170   2   0.50000     0.1150000   -0.1150000   2.431434e-04  1.541678e-07
    195    196   2   0.50000     0.1150000    0.1150000   5.042375e-05  1.012808e-08
    204    199   2   0.50000    -0.0600000   -0.0600000   1.015252e-03  1.866303e-06
    204    220   2   0.50000    -0.0600000    0.0600000   2.494471e-04  1.671101e-07
    204    221   2   0.50000    -0.0600000    0.0600000   2.494471e-04  1.671101e-07
    218    199   2   0.50000     0.0600000   -0.0600000   2.494471e-04  1.671101e-07
    218    220   2   0.50000     0.0600000    0.0600000   6.128906e-05  1.496315e-08
    218    221   2   0.50000     0.0600000    0.0600000   6.128906e-05  1.496315e-08
    219    199   2   0.50000     0.0600000   -0.0600000   2.494471e-04  1.671101e-07
    219    220   2   0.50000     0.0600000    0.0600000   6.128906e-05  1.496315e-08
    219    221   2   0.50000     0.0600000    0.0600000   6.128906e-05  1.496315e-08
    198    203   2   0.50000    -0.1200000   -0.1200000   1.015252e-03  1.866303e-06
    198    205   2   0.50000    -0.1200000    0.1900000   1.015252e-03  1.866303e-06
    198    229   2   0.50000    -0.1200000    0.0600000   2.494471e-04  1.671101e-07
    218    203   2   0.50000     0.0600000   -0.1200000   2.494471e-04  1.671101e-07
    218    205   2   0.50000     0.0600000    0.1900000   2.494471e-04  1.671101e-07
    218    229   2   0.50000     0.0600000    0.0600000   6.128906e-05  1.496315e-08
    219    203   2   0.50000     0.0600000   -0.1200000   2.494471e-04  1.671101e-07
    219    205   2   0.50000     0.0600000    0.1900000   2.494471e-04  1.671101e-07
    219    229   2   0.50000     0.0600000    0.0600000   6.128906e-05  1.496315e-08
    197    200   2   0.50000    -0.1200000    0.0800000   1.015252e-03  1.866303e-06
    197    202   2   0.50000    -0.1200000   -0.1200000   1.015252e-03  1.866303e-06
    197    222   2   0.50000    -0.1200000    0.0600000   2.494471e-04  1.671101e-07
    220    200   2   0.50000     0.0600000    0.0800000   2.494471e-04  1.671101e-07
    220    202   2   0.50000     0.0600000   -0.1200000   2.494471e-04  1.671101e-07
    220    222   2   0.50000     0.0600000    0.0600000   6.128906e-05  1.496315e-08
    221    200   2   0.50000     0.0600000    0.0800000   2.494471e-04  1.671101e-07
    221    202   2   0.50000     0.0600000   -0.1200000   2.494471e-04  1.671101e-07
    221    222   2   0.50000     0.0600000    0.0600000   6.128906e-05  1.496315e-08
    198    201   2   0.50000    -0.1200000   -0.2000000   8.411158e-04  8.795366e-07
    198    223   2   0.50000    -0.1200000    0.0600000   2.494471e-04  1.671101e-07
    198    224   2   0.50000    -0.1200000    0.0600000   2.494471e-04  1.671101e-07
    202    201   2   0.50000    -0.1200000   -0.2000000   8.411158e-04  8.795366e-07
    202    223   2   0.50000    -0.1200000    0.0600000   2.494471e-04  1.671101e-07
    202    224   2   0.50000    -0.1200000    0.0600000   2.494471e-04  1.671101e-07
    222    201   2   0.50000     0.0600000   -0.2000000   2.066619e-04  7.875431e-08
    222    223   2   0.50000     0.0600000    0.0600000   6.128906e-05  1.496315e-08
    222    224   2   0.50000     0.0600000    0.0600000   6.128906e-05  1.496315e-08
    198    225   2   0.50000    -0.1200000    0.0600000   2.494471e-04  1.671101e-07
    198    226   2   0.50000    -0.1200000    0.0600000   2.494471e-04  1.671101e-07
    200    203   2   0.50000     0.0800000   -0.1200000   1.015252e-03  1.866303e-06
    200    225   2   0.50000     0.0800000    0.0600000   2.494471e-04  1.671101e-07
    200    226   2   0.50000     0.0800000    0.0600000   2.494471e-04  1.671101e-07
    222    203   2   0.50000     0.0600000   -0.1200000   2.494471e-04  1.671101e-07
    222    225   2   0.50000     0.0600000    0.0600000   6.128906e-05  1.496315e-08
    222    226   2   0.50000     0.0600000    0.0600000   6.128906e-05  1.496315e-08
    199    176   2   0.50000    -0.0600000   -0.0800000   1.026091e-03  1.187829e-06
    223    176   2   0.50000     0.0600000   -0.0800000   2.521103e-04  1.063590e-07
    224    176   2   0.50000     0.0600000   -0.0800000   2.521103e-04  1.063590e-07
    199    227   2   0.50000    -0.0600000    0.0600000   2.494471e-04  1.671101e-07
    199    228   2   0.50000    -0.0600000    0.0600000   2.494471e-04  1.671101e-07
    225    204   2   0.50000     0.0600000   -0.0600000   2.494471e-04  1.671101e-07
    225    227   2   0.50000     0.0600000    0.0600000   6.128906e-05  1.496315e-08
    225    228   2   0.50000     0.0600000    0.0600000   6.128906e-05  1.496315e-08
    226    204   2   0.50000     0.0600000   -0.0600000   2.494471e-04  1.671101e-07
    226    227   2   0.50000     0.0600000    0.0600000   6.128906e-05  1.496315e-08
    226    228   2   0.50000     0.0600000    0.0600000   6.128906e-05  1.496315e-08
    202    205   2   0.50000    -0.1200000    0.1900000   1.015252e-03  1.866303e-06
    202    229   2   0.50000    -0.1200000    0.0600000   2.494471e-04  1.671101e-07
    227    197   2   0.50000     0.0600000   -0.1200000   2.494471e-04  1.671101e-07
    227    205   2   0.50000     0.0600000    0.1900000   2.494471e-04  1.671101e-07
    227    229   2   0.50000     0.0600000    0.0600000   6.128906e-05  1.496315e-08
    228    197   2   0.50000     0.0600000   -0.1200000   2.494471e-04  1.671101e-07
    228    205   2   0.50000     0.0600000    0.1900000   2.494471e-04  1.671101e-07
    228    229   2   0.50000     0.0600000    0.0600000   6.128906e-05  1.496315e-08
    197    206   2   0.50000    -0.1200000   -0.3300000   1.026091e-03  1.187829e-06
    197    230   2   0.50000    -0.1200000    0.0300000   1.599888e-04  9.721644e-08
    197    231   2   0.50000    -0.1200000    0.0300000   1.599888e-04  9.721644e-08
    203    206   2   0.50000    -0.1200000   -0.3300000   1.026091e-03  1.187829e-06
    203    230   2   0.50000    -0.1200000    0.0300000   1.599888e-04  9.721644e-08
    203    231   2   0.50000    -0.1200000    0.0300000   1.599888e-04  9.721644e-08
    229    206   2   0.50000     0.0600000   -0.3300000   2.521103e-04  1.063590e-07
    229    230   2   0.50000     0.0600000    0.0300000   3.930919e-05  8.704828e-09
    229    231   2   0.50000     0.0600000    0.0300000   3.930919e-05  8.704828e-09
    204    207   2   0.50000    -0.0600000    0.6250000   1.575021e-03  3.561100e-06
    230    207   2   0.50000     0.0300000    0.6250000   2.482000e-04  1.854991e-07
    231    207   2   0.50000     0.0300000    0.6250000   2.482000e-04  1.854991e-07
    205    208   2   0.50000     0.1900000   -0.4300000   1.095425e-03  1.218041e-06
    205    209   2   0.50000     0.1900000   -0.1150000   1.091018e-03  2.092768e-06
    206    210   2   0.50000    -0.3300000   -0.1150000   1.102666e-03  1.331965e-06
    206    217   2   0.50000    -0.3300000   -0.1150000   1.102666e-03  1.331965e-06
    208    210   2   0.50000    -0.4300000   -0.1150000   1.177174e-03  1.365843e-06
    208    217   2   0.50000    -0.4300000   -0.1150000   1.177174e-03  1.365843e-06
    207    211   2   0.50000     0.6250000   -0.1150000   1.692561e-03  3.993218e-06
    207    232   2   0.50000     0.6250000    0.1150000   3.510079e-04  2.623353e-07
    217    211   2   0.50000    -0.1150000   -0.1150000   1.172438e-03  2.346713e-06
    217    232   2   0.50000    -0.1150000    0.1150000   2.431434e-04  1.541678e-07
    207    216   2   0.50000     0.6250000   -0.1150000   1.692561e-03  3.993218e-06
    207    235   2   0.50000     0.6250000    0.1150000   3.510079e-04  2.623353e-07
    210    216   2   0.50000    -0.1150000   -0.1150000   1.172438e-03  2.346713e-06
    210    235   2   0.50000    -0.1150000    0.1150000   2.431434e-04  1.541678e-07
    209    212   2   0.50000    -0.1150000   -0.1150000   1.172438e-03  2.346713e-06
    209    233   2   0.50000    -0.1150000    0.1150000   2.431434e-04  1.541678e-07
    232    212   2   0.50000     0.1150000   -0.1150000   2.431434e-04  1.541678e-07
    232    233   2   0.50000     0.1150000    0.1150000   5.042375e-05  1.012808e-08
    210    213   2   0.50000    -0.1150000    0.6250000   1.692561e-03  3.993218e-06
    233    213   2   0.50000     0.1150000    0.6250000   3.510079e-04  2.623353e-07
    233    216   2   0.50000     0.1150000   -0.1150000   2.431434e-04  1.541678e-07
    211    214   2   0.50000    -0.1150000   -0.4300000   1.177174e-03  1.365843e-06
    211    215   2   0.50000    -0.1150000   -0.0800000   1.102666e-03  1.331965e-06
    216    214   2   0.50000    -0.1150000   -0.4300000   1.177174e-03  1.365843e-06
    216    215   2   0.50000    -0.1150000   -0.0800000   1.102666e-03  1.331965e-06
    211    234   2   0.50000    -0.1150000    0.1150000   2.431434e-04  1.541678e-07
    213    217   2   0.50000     0.6250000   -0.1150000   1.692561e-03  3.993218e-06
    213    234   2   0.50000     0.6250000    0.1150000   3.510079e-04  2.623353e-07
    212    240   2   0.50000    -0.1150000   -0.2000000   9.038862e-04  9.862632e-07
    214    240   2   0.50000    -0.4300000   -0.2000000   9.075373e-04  5.740287e-07
    213    239   2   0.50000     0.6250000    0.0800000   1.575021e-03  3.561100e-06
    212    235   2   0.50000    -0.1150000    0.1150000   2.431434e-04  1.541678e-07
    234    209   2   0.50000     0.1150000   -0.1150000   2.431434e-04  1.541678e-07
    234    235   2   0.50000     0.1150000    0.1150000   5.042375e-05  1.012808e-08
    243    238   2   0.50000    -0.0600000   -0.0600000   1.015252e-03  1.866303e-06
    243    259   2   0.50000    -0.0600000    0.0600000   2.494471e-04  1.671101e-07
    243    260   2   0.50000    -0.0600000    0.0600000   2.494471e-04  1.671101e-07
    257    238   2   0.50000     0.0600000   -0.0600000   2.494471e-04  1.671101e-07
    257    259   2   0.50000     0.0600000    0.0600000   6.128906e-05  1.496315e-08
    257    260   2   0.50000     0.0600000    0.0600000   6.128906e-05  1.496315e-08
    258    238   2   0.50000     0.0600000   -0.0600000   2.494471e-04  1.671101e-07
    258    259   2   0.50000     0.0600000    0.0600000   6.128906e-05  1.496315e-08
    258    260   2   0.50000     0.0600000    0.0600000   6.128906e-05  1.496315e-08
    237    242   2   0.50000    -0.1200000   -0.1200000   1.015252e-03  1.866303e-06
    237    244   2   0.50000    -0.1200000    0.1900000   1.015252e-03  1.866303e-06
    237    268   2   0.50000    -0.1200000    0.0600000   2.494471e-04  1.671101e-07
    257    242   2   0.50000     0.0600000   -0.1200000   2.494471e-04  1.671101e-07
    257    244   2   0.50000     0.0600000    0.1900000   2.494471e-04  1.671101e-07
    257    268   2   0.50000     0.0600000    0.0600000   6.128906e-05  1.496315e-08
    258    242   2   0.50000     0.0600000   -0.1200000   2.494471e-04  1.671101e-07
    258    244   2   0.50000     0.0600000    0.1900000   2.494471e-04  1.671101e-07
    258    268   2   0.50000     0.0600000    0.0600000   6.128906e-05  1.496315e-08
    236    239   2   0.50000    -0.1200000    0.0800000   1.015252e-03  1.866303e-06
    236    241   2   0.50000    -0.1200000   -0.1200000   1.015252e-03  1.866303e-06
    236    261   2   0.50000    -0.1200000    0.0600000   2.494471e-04  1.671101e-07
    259    239   2   0.50000     0.0600000    0.0800000   2.494471e-04  1.671101e-07
    259    241   2   0.50000     0.0600000   -0.1200000   2.494471e-04  1.671101e-07
    259    261   2   0.50000     0.0600000    0.0600000   6.128906e-05  1.496315e-08
    260    239   2   0.50000     0.0600000    0.0800000   2.494471e-04  1.671101e-07
    260    241   2   0.50000     0.0600000   -0.1200000   2.494471e-04  1.671101e-07
    260    261   2   0.50000     0.0600000    0.0600000   6.128906e-05  1.496315e-08
    237    240   2   0.50000    -0.1200000   -0.2000000   8.411158e-04  8.795366e-07
    237    262   2   0.50000    -0.1200000    0.0600000   2.494471e-04  1.671101e-07
    237    263   2   0.50000    -0.1200000    0.0600000   2.494471e-04  1.671101e-07
    241    240   2   0.50000    -0.1200000   -0.2000000   8.411158e-04  8.795366e-07
    241    262   2   0.50000    -0.1200000    0.0600000   2.494471e-04  1.671101e-07
    241    263   2   0.50000    -0.1200000    0.0600000   2.494471e-04  1.671101e-07
    261    240   2   0.50000     0.0600000   -0.2000000   2.066619e-04  7.875431e-08
    261    262   2   0.50000     0.0600000    0.0600000   6.128906e-05  1.496315e-08
    261    263   2   0.50000     0.0600000    0.0600000   6.128906e-05  1.496315e-08
    237    264   2   0.50000    -0.1200000    0.0600000   2.494471e-04  1.671101e-07
    237    265   2   0.50000    -0.1200000    0.0600000   2.494471e-04  1.671101e-07
    239    242   2   0.50000     0.0800000   -0.1200000   1.015252e-03  1.866303e-06
    239    264   2   0.50000     0.0800000    0.0600000   2.494471e-04  1.671101e-07
    239    265   2   0.50000     0.0800000    0.0600000   2.494471e-04  1.671101e-07
    261    242   2   0.50000     0.0600000   -0.1200000   2.494471e-04  1.671101e-07
    261    264   2   0.50000     0.0600000    0.0600000   6.128906e-05  1.496315e-08
    261    265   2   0.50000     0.0600000    0.0600000   6.128906e-05  1.496315e-08
    238    215   2   0.50000    -0.0600000   -0.0800000   1.026091e-03  1.187829e-06
    262    215   2   0.50000     0.0600000   -0.0800000   2.521103e-04  1.063590e-07
    263    215   2   0.50000     0.0600000   -0.0800000   2.521103e-04  1.063590e-07
    238    266   2   0.50000    -0.0600000    0.0600000   2.494471e-04  1.671101e-07
    238    267   2   0.50000    -0.0600000    0.0600000   2.494471e-04  1.671101e-07
    264    243   2   0.50000     0.0600000   -0.0600000   2.494471e-04  1.671101e-07
    264    266   2   0.50000     0.0600000    0.0600000   6.128906e-05  1.496315e-08
    264    267   2   0.50000     0.0600000    0.0600000   6.128906e-05  1.496315e-08
    265    243   2   0.50000     0.0600000   -0.0600000   2.494471e-04  1.671101e-07
    265    266   2   0.50000     0.0600000    0.0600000   6.128906e-05  1.496315e-08
    265    267   2   0.50000     0.0600000    0.0600000   6.128906e-05  1.496315e-08
    241    244   2   0.50000    -0.1200000    0.1900000   1.015252e-03  1.866303e-06
    241    268   2   0.50000    -0.1200000    0.0600000   2.494471e-04  1.671101e-07
    266    236   2   0.50000     0.0600000   -0.1200000   2.494471e-04  1.671101e-07
    266    244   2   0.50000     0.0600000    0.1900000   2.494471e-04  1.671101e-07
    266    268   2   0.50000     0.0600000    0.0600000   6.128906e-05  1.496315e-08
    267    236   2   0.50000     0.0600000   -0.1200000   2.494471e-04  1.671101e-07
    267    244   2   0.50000     0.0600000    0.1900000   2.494471e-04  1.671101e-07
    267    268   2   0.50000     0.0600000    0.0600000   6.128906e-05  1.496315e-08
    236    245   2   0.50000    -0.1200000   -0.3300000   1.026091e-03  1.187829e-06
    236    269   2   0.50000    -0.1200000    0.0300000   1.599888e-04  9.721644e-08
    236    270   2   0.50000    -0.1200000    0.0300000   1.599888e-04  9.721644e-08
    242    245   2   0.50000    -0.1200000   -0.3300000   1.026091e-03  1.187829e-06
    242    269   2   0.50000    -0.1200000    0.0300000   1.599888e-04  9.721644e-08
    242    270   2   0.50000    -0.1200000    0.0300000   1.599888e-04  9.721644e-08
    268    245   2   0.50000     0.0600000   -0.3300000   2.521103e-04  1.063590e-07
    268    269   2   0.50000     0.0600000    0.0300000   3.930919e-05  8.704828e-09
    268    270   2   0.50000     0.0600000    0.0300000   3.930919e-05  8.704828e-09
    243    246   2   0.50000    -0.0600000    0.6250000   1.575021e-03  3.561100e-06
    269    246   2   0.50000     0.0300000    0.6250000   2.482000e-04  1.854991e-07
    270    246   2   0.50000     0.0300000    0.6250000   2.482000e-04  1.854991e-07
    244    247   2   0.50000     0.1900000   -0.4300000   1.095425e-03  1.218041e-06
    244    248   2   0.50000     0.1900000   -0.1150000   1.091018e-03  2.092768e-06
    245    249   2   0.50000    -0.3300000   -0.1150000   1.102666e-03  1.331965e-06
    245    256   2   0.50000    -0.3300000   -0.1150000   1.102666e-03  1.331965e-06
    247    249   2   0.50000    -0.4300000   -0.1150000   1.177174e-03  1.365843e-06
    247    256   2   0.50000    -0.4300000   -0.1150000   1.177174e-03  1.365843e-06
    246    250   2   0.50000     0.6250000   -0.1150000   1.692561e-03  3.993218e-06
    246    271   2   0.50000     0.6250000    0.1150000   3.510079e-04  2.623353e-07
    256    250   2   0.50000    -0.1150000   -0.1150000   1.172438e-03  2.346713e-06
    256    271   2   0.50000    -0.1150000    0.1150000   2.431434e-04  1.541678e-07
    246    255   2   0.50000     0.6250000   -0.1150000   1.692561e-03  3.993218e-06
    246    274   2   0.50000     0.6250000    0.1150000   3.510079e-04  2.623353e-07
    249    255   2   0.50000    -0.1150000   -0.1150000   1.172438e-03  2.346713e-06
    249    274   2   0.50000    -0.1150000    0.1150000   2.431434e-04  1.541678e-07
    248    251   2   0.50000    -0.1150000   -0.1150000   1.172438e-03  2.346713e-06
    248    272   2   0.50000    -0.1150000    0.1150000   2.431434e-04  1.541678e-07
    271    251   2   0.50000     0.1150000   -0.1150000   2.431434e-04  1.541678e-07
    271    272   2   0.50000     0.1150000    0.1150000   5.042375e-05  1.012808e-08
    249    252   2   0.50000    -0.1150000    0.6250000   1.692561e-03  3.993218e-06
    272    252   2   0.50000     0.1150000    0.6250000   3.510079e-04  2.623353e-07
    272    255   2   0.50000     0.1150000   -0.1150000   2.431434e-04  1.541678e-07
    250    253   2   0.50000    -0.1150000   -0.4300000   1.177174e-03  1.365843e-06
    250    254   2   0.50000    -0.1150000   -0.0800000   1.102666e-03  1.331965e-06
    255    253   2   0.50000    -0.1150000   -0.4300000   1.177174e-03  1.365843e-06
    255    254   2   0.50000    -0.1150000   -0.0800000   1.102666e-03  1.331965e-06
    250    273   2   0.50000    -0.1150000    0.1150000   2.431434e-04  1.541678e-07
    252    256   2   0.50000     0.6250000   -0.1150000   1.692561e-03  3.993218e-06
    252    273   2   0.50000     0.6250000    0.1150000   3.510079e-04  2.623353e-07
    251    279   2   0.50000    -0.1150000   -0.2000000   9.038862e-04  9.862632e-07
    253    279   2   0.50000    -0.4300000   -0.2000000   9.075373e-04  5.740287e-07
    252    278   2   0.50000     0.6250000    0.0800000   1.575021e-03  3.561100e-06
    251    274   2   0.50000    -0.1150000    0.1150000   2.431434e-04  1.541678e-07
    273    248   2   0.50000     0.1150000   -0.1150000   2.431434e-04  1.541678e-07
    273    274   2   0.50000     0.1150000    0.1150000   5.042375e-05  1.012808e-08
    282    277   2   0.50000    -0.0600000   -0.0600000   1.015252e-03  1.866303e-06
    282    298   2   0.50000    -0.0600000    0.0600000   2.494471e-04  1.671101e-07
    282    299   2   0.50000    -0.0600000    0.0600000   2.494471e-04  1.671101e-07
    296    277   2   0.50000     0.0600000   -0.0600000   2.494471e-04  1.671101e-07
    296    298   2   0.50000     0.0600000    0.0600000   6.128906e-05  1.496315e-08
    296    299   2   0.50000     0.0600000    0.0600000   6.128906e-05  1.496315e-08
    297    277   2   0.50000     0.0600000   -0.0600000   2.494471e-04  1.671101e-07
    297    298   2   0.50000     0.0600000    0.0600000   6.128906e-05  1.496315e-08
    297    299   2   0.50000     0.0600000    0.0600000   6.128906e-05  1.496315e-08
    276    281   2   0.50000    -0.1200000   -0.1200000   1.015252e-03  1.866303e-06
    276    283   2   0.50000    -0.1200000    0.1900000   1.015252e-03  1.866303e-06
    276    307   2   0.50000    -0.1200000    0.0600000   2.494471e-04  1.671101e-07
    296    281   2   0.50000     0.0600000   -0.1200000   2.494471e-04  1.671101e-07
    296    283   2   0.50000     0.0600000    0.1900000   2.494471e-04  1.671101e-07
    296    307   2   0.50000     0.0600000    0.0600000   6.128906e-05  1.496315e-08
    297    281   2   0.50000     0.0600000   -0.1200000   2.494471e-04  1.671101e-07
    297    283   2   0.50000     0.0600000    0.1900000   2.494471e-04  1.671101e-07
    297    307   2   0.50000     0.0600000    0.0600000   6.128906e-05  1.496315e-08
    275    278   2   0.50000    -0.1200000    0.0800000   1.015252e-03  1.866303e-06
    275    280   2   0.50000    -0.1200000   -0.1200000   1.015252e-03  1.866303e-06
    275    300   2   0.50000    -0.1200000    0.0600000   2.494471e-04  1.671101e-07
    298    278   2   0.50000     0.0600000    0.0800000   2.494471e-04  1.671101e-07
    298    280   2   0.50000     0.0600000   -0.1200000   2.494471e-04  1.671101e-07
    298    300   2   0.50000     0.0600000    0.0600000   6.128906e-05  1.496315e-08
    299    278   2   0.50000     0.0600000    0.0800000   2.494471e-04  1.671101e-07
    299    280   2   0.50000     0.0600000   -0.1200000   2.494471e-04  1.671101e-07
    299    300   2   0.50000     0.0600000    0.0600000   6.128906e-05  1.496315e-08
    276    279   2   0.50000    -0.1200000   -0.2000000   8.411158e-04  8.795366e-07
    276    301   2   0.50000    -0.1200000    0.0600000   2.494471e-04  1.671101e-07
    276    302   2   0.50000    -0.1200000    0.0600000   2.494471e-04  1.671101e-07
    280    279   2   0.50000    -0.1200000   -0.2000000   8.411158e-04  8.795366e-07
    280    301   2   0.50000    -0.1200000    0.0600000   2.494471e-04  1.671101e-07
    280    302   2   0.50000    -0.1200000    0.0600000   2.494471e-04  1.671101e-07
    300    279   2   0.50000     0.0600000   -0.2000000   2.066619e-04  7.875431e-08
    300    301   2   0.50000     0.0600000    0.0600000   6.128906e-05  1.496315e-08
    300    302   2   0.50000     0.0600000    0.0600000   6.128906e-05  1.496315e-08
    276    303   2   0.50000    -0.1200000    0.0600000   2.494471e-04  1.671101e-07
    276    304   2   0.50000    -0.1200000    0.0600000   2.494471e-04  1.671101e-07
    278    281   2   0.50000     0.0800000   -0.1200000   1.015252e-03  1.866303e-06
    278    303   2   0.50000     0.0800000    0.0600000   2.494471e-04  1.671101e-07
    278    304   2   0.50000     0.0800000    0.0600000   2.494471e-04  1.671101e-07
    300    281   2   0.50000     0.0600000   -0.1200000   2.494471e-04  1.671101e-07
    300    303   2   0.50000     0.0600000    0.0600000   6.128906e-05  1.496315e-08
    300    304   2   0.50000     0.0600000    0.0600000   6.128906e-05  1.496315e-08
    277    254   2   0.50000    -0.0600000   -0.0800000   1.026091e-03  1.187829e-06
    301    254   2   0.50000     0.0600000   -0.0800000   2.521103e-04  1.063590e-07
    302    254   2   0.50000     0.0600000   -0.0800000   2.521103e-04  1.063590e-07
    277    305   2   0.50000    -0.0600000    0.0600000   2.494471e-04  1.671101e-07
    277    306   2   0.50000    -0.0600000    0.0600000   2.494471e-04  1.671101e-07
    303    282   2   0.50000     0.0600000   -0.0600000   2.494471e-04  1.671101e-07
    303    305   2   0.50000     0.0600000    0.0600000   6.128906e-05  1.496315e-08
    303    306   2   0.50000     0.0600000    0.0600000   6.128906e-05  1.496315e-08
    304    282   2   0.50000     0.0600000   -0.0600000   2.494471e-04  1.671101e-07
    304    305   2   0.50000     0.0600000    0.0600000   6.128906e-05  1.496315e-08
    304    306   2   0.50000     0.0600000    0.0600000   6.128906e-05  1.496315e-08
    280    283   2   0.50000    -0.1200000    0.1900000   1.015252e-03  1.866303e-06
    280    307   2   0.50000    -0.1200000    0.0600000   2.494471e-04  1.671101e-07
    305    275   2   0.50000     0.0600000   -0.1200000   2.494471e-04  1.671101e-07
    305    283   2   0.50000     0.0600000    0.1900000   2.494471e-04  1.671101e-07
    305    307   2   0.50000     0.0600000    0.0600000   6.128906e-05  1.496315e-08
    306    275   2   0.50000     0.0600000   -0.1200000   2.494471e-04  1.671101e-07
    306    283   2   0.50000     0.0600000    0.1900000   2.494471e-04  1.671101e-07
    306    307   2   0.50000     0.0600000    0.0600000   6.128906e-05  1.496315e-08
    275    284   2   0.50000    -0.1200000   -0.3300000   1.026091e-03  1.187829e-06
    275    308   2   0.50000    -0.1200000    0.0300000   1.599888e-04  9.721644e-08
    275    309   2   0.50000    -0.1200000    0.0300000   1.599888e-04  9.721644e-08
    281    284   2   0.50000    -0.1200000   -0.3300000   1.026091e-03  1.187829e-06
    281    308   2   0.50000    -0.1200000    0.0300000   1.599888e-04  9.721644e-08
    281    309   2   0.50000    -0.1200000    0.0300000   1.599888e-04  9.721644e-08
    307    284   2   0.50000     0.0600000   -0.3300000   2.521103e-04  1.063590e-07
    307    308   2   0.50000     0.0600000    0.0300000   3.930919e-05  8.704828e-09
    307    309   2   0.50000     0.0600000    0.0300000   3.930919e-05  8.704828e-09
    282    285   2   0.50000    -0.0600000    0.6250000   1.575021e-03  3.561100e-06
    308    285   2   0.50000     0.0300000    0.6250000   2.482000e-04  1.854991e-07
    309    285   2   0.50000     0.0300000    0.6250000   2.482000e-04  1.854991e-07
    283    286   2   0.50000     0.1900000   -0.4300000   1.095425e-03  1.218041e-06
    283    287   2   0.50000     0.1900000   -0.1150000   1.091018e-03  2.092768e-06
    284    288   2   0.50000    -0.3300000   -0.1150000   1.102666e-03  1.331965e-06
    284    295   2   0.50000    -0.3300000   -0.1150000   1.102666e-03  1.331965e-06
    286    288   2   0.50000    -0.4300000   -0.1150000   1.177174e-03  1.365843e-06
    286    295   2   0.50000    -0.4300000   -0.1150000   1.177174e-03  1.365843e-06
    285    289   2   0.50000     0.6250000   -0.1150000   1.692561e-03  3.993218e-06
    285    310   2   0.50000     0.6250000    0.1150000   3.510079e-04  2.623353e-07
    295    289   2   0.50000    -0.1150000   -0.1150000   1.172438e-03  2.346713e-06
    295    310   2   0.50000    -0.1150000    0.1150000   2.431434e-04  1.541678e-07
    285    294   2   0.50000     0.6250000   -0.1150000   1.692561e-03  3.993218e-06
    285    313   2   0.50000     0.6250000    0.1150000   3.510079e-04  2.623353e-07
    288    294   2   0.50000    -0.1150000   -0.1150000   1.172438e-03  2.346713e-06
    288    313   2   0.50000    -0.1150000    0.1150000   2.431434e-04  1.541678e-07
    287    290   2   0.50000    -0.1150000   -0.1150000   1.172438e-03  2.346713e-06
    287    311   2   0.50000    -0.1150000    0.1150000   2.431434e-04  1.541678e-07
    310    290   2   0.50000     0.1150000   -0.1150000   2.431434e-04  1.541678e-07
    310    311   2   0.50000     0.1150000    0.1150000   5.042375e-05  1.012808e-08
    288    291   2   0.50000    -0.1150000    0.6250000   1.692561e-03  3.993218e-06
    311    291   2   0.50000     0.1150000    0.6250000   3.510079e-04  2.623353e-07
    311    294   2   0.50000     0.1150000   -0.1150000   2.431434e-04  1.541678e-07
    289    292   2   0.50000    -0.1150000   -0.4300000   1.177174e-03  1.365843e-06
    289    293   2   0.50000    -0.1150000   -0.0800000   1.102666e-03  1.331965e-06
    294    292   2   0.50000    -0.1150000   -0.4300000   1.177174e-03  1.365843e-06
    294    293   2   0.50000    -0.1150000   -0.0800000   1.102666e-03  1.331965e-06
    289    312   2   0.50000    -0.1150000    0.1150000   2.431434e-04  1.541678e-07
    291    295   2   0.50000     0.6250000   -0.1150000   1.692561e-03  3.993218e-06
    291    312   2   0.50000     0.6250000    0.1150000   3.510079e-04  2.623353e-07
    290    318   2   0.50000    -0.1150000   -0.2000000   9.038862e-04  9.862632e-07
    292    318   2   0.50000    -0.4300000   -0.2000000   9.075373e-04  5.740287e-07
    291    317   2   0.50000     0.6250000    0.0800000   1.575021e-03  3.561100e-06
    290    313   2   0.50000    -0.1150000    0.1150000   2.431434e-04  1.541678e-07
    312    287   2   0.50000     0.1150000   -0.1150000   2.431434e-04  1.541678e-07
    312    313   2   0.50000     0.1150000    0.1150000   5.042375e-05  1.012808e-08
    321    316   2   0.50000    -0.0600000   -0.0600000   1.015252e-03  1.866303e-06
    321    337   2   0.50000    -0.0600000    0.0600000   2.494471e-04  1.671101e-07
    321    338   2   0.50000    -0.0600000    0.0600000   2.494471e-04  1.671101e-07
    335    316   2   0.50000     0.0600000   -0.0600000   2.494471e-04  1.671101e-07
    335    337   2   0.50000     0.0600000    0.0600000   6.128906e-05  1.496315e-08
    335    338   2   0.50000     0.0600000    0.0600000   6.128906e-05  1.496315e-08
    336    316   2   0.50000     0.0600000   -0.0600000   2.494471e-04  1.671101e-07
    336    337   2   0.50000     0.0600000    0.0600000   6.128906e-05  1.496315e-08
    336    338   2   0.50000     0.0600000    0.0600000   6.128906e-05  1.496315e-08
    315    320   2   0.50000    -0.1200000   -0.1200000   1.015252e-03  1.866303e-06
    315    322   2   0.50000    -0.1200000    0.1900000   1.015252e-03  1.866303e-06
    315    346   2   0.50000    -0.1200000    0.0600000   2.494471e-04  1.671101e-07
    335    320   2   0.50000     0.0600000   -0.1200000   2.494471e-04  1.671101e-07
    335    322   2   0.50000     0.0600000    0.1900000   2.494471e-04  1.671101e-07
    335    346   2   0.50000     0.0600000    0.0600000   6.128906e-05  1.496315e-08
    336    320   2   0.50000     0.0600000   -0.1200000   2.494471e-04  1.671101e-07
    336    322   2   0.50000     0.0600000    0.1900000   2.494471e-04  1.671101e-07
    336    346   2   0.50000     0.0600000    0.0600000   6.128906e-05  1.496315e-08
    314    317   2   0.50000    -0.1200000    0.0800000   1.015252e-03  1.866303e-06
    314    319   2   0.50000    -0.1200000   -0.1200000   1.015252e-03  1.866303e-06
    314    339   2   0.50000    -0.1200000    0.0600000   2.494471e-04  1.671101e-07
    337    317   2   0.50000     0.0600000    0.0800000   2.494471e-04  1.671101e-07
    337    319   2   0.50000     0.0600000   -0.1200000   2.494471e-04  1.671101e-07
    337    339   2   0.50000     0.0600000    0.0600000   6.128906e-05  1.496315e-08
    338    317   2   0.50000     0.0600000    0.0800000   2.494471e-04  1.671101e-07
    338    319   2   0.50000     0.0600000   -0.1200000   2.494471e-04  1.671101e-07
    338    339   2   0.50000     0.0600000    0.0600000   6.128906e-05  1.496315e-08
    315    318   2   0.50000    -0.1200000   -0.2000000   8.411158e-04  8.795366e-07
    315    340   2   0.50000    -0.1200000    0.0600000   2.494471e-04  1.671101e-07
    315    341   2   0.50000    -0.1200000    0.0600000   2.494471e-04  1.671101e-07
    319    318   2   0.50000    -0.1200000   -0.2000000   8.411158e-04  8.795366e-07
    319    340   2   0.50000    -0.1200000    0.0600000   2.494471e-04  1.671101e-07
    319    341   2   0.50000    -0.1200000    0.0600000   2.494471e-04  1.671101e-07
    339    318   2   0.50000     0.0600000   -0.2000000   2.066619e-04  7.875431e-08
    339    340   2   0.50000     0.0600000    0.0600000   6.128906e-05  1.496315e-08
    339    341   2   0.50000     0.0600000    0.0600000   6.128906e-05  1.496315e-08
    315    342   2   0.50000    -0.1200000    0.0600000   2.494471e-04  1.671101e-07
    315    343   2   0.50000    -0.1200000    0.0600000   2.494471e-04  1.671101e-07
    317    320   2   0.50000     0.0800000   -0.1200000   1.015252e-03  1.866303e-06
    317    342   2   0.50000     0.0800000    0.0600000   2.494471e-04  1.671101e-07
    317    343   2   0.50000     0.0800000    0.0600000   2.494471e-04  1.671101e-07
    339    320   2   0.50000     0.0600000   -0.1200000   2.494471e-04  1.671101e-07
    339    342   2   0.50000     0.0600000    0.0600000   6.128906e-05  1.496315e-08
    339    343   2   0.50000     0.0600000    0.0600000   6.128906e-05  1.496315e-08
    316    293   2   0.50000    -0.0600000   -0.0800000   1.026091e-03  1.187829e-06
    340    293   2   0.50000     0.0600000   -0.0800000   2.521103e-04  1.063590e-07
    341    293   2   0.50000     0.0600000   -0.0800000   2.521103e-04  1.063590e-07
    316    344   2   0.50000    -0.0600000    0.0600000   2.494471e-04  1.671101e-07
    316    345   2   0.50000    -0.0600000    0.0600000   2.494471e-04  1.671101e-07
    342    321   2   0.50000     0.0600000   -0.0600000   2.494471e-04  1.671101e-07
    342    344   2   0.50000     0.0600000    0.0600000   6.128906e-05  1.496315e-08
    342    345   2   0.50000     0.0600000    0.0600000   6.128906e-05  1.496315e-08
    343    321   2   0.50000     0.0600000   -0.0600000   2.494471e-04  1.671101e-07
    343    344   2   0.50000     0.0600000    0.0600000   6.128906e-05  1.496315e-08
    343    345   2   0.50000     0.0600000    0.0600000   6.128906e-05  1.496315e-08
    319    322   2   0.50000    -0.1200000    0.1900000   1.015252e-03  1.866303e-06
    319    346   2   0.50000    -0.1200000    0.0600000   2.494471e-04  1.671101e-07
    344    314   2   0.50000     0.0600000   -0.1200000   2.494471e-04  1.671101e-07
    344    322   2   0.50000     0.0600000    0.1900000   2.494471e-04  1.671101e-07
    344    346   2   0.50000     0.0600000    0.0600000   6.128906e-05  1.496315e-08
    345    314   2   0.50000     0.0600000   -0.1200000   2.494471e-04  1.671101e-07
    345    322   2   0.50000     0.0600000    0.1900000   2.494471e-04  1.671101e-07
    345    346   2   0.50000     0.0600000    0.0600000   6.128906e-05  1.496315e-08
    314    323   2   0.50000    -0.1200000   -0.3300000   1.026091e-03  1.187829e-06
    314    347   2   0.50000    -0.1200000    0.0300000   1.599888e-04  9.721644e-08
    314    348   2   0.50000    -0.1200000    0.0300000   1.599888e-04  9.721644e-08
    320    323   2   0.50000    -0.1200000   -0.3300000   1.026091e-03  1.187829e-06
    320    347   2   0.50000    -0.1200000    0.0300000   1.599888e-04  9.721644e-08
    320    348   2   0.50000    -0.1200000    0.0300000   1.599888e-04  9.721644e-08
    346    323   2   0.50000     0.0600000   -0.3300000   2.521103e-04  1.063590e-07
    346    347   2   0.50000     0.0600000    0.0300000   3.930919e-05  8.704828e-09
    346    348   2   0.50000     0.0600000    0.0300000   3.930919e-05  8.704828e-09
    321    324   2   0.50000    -0.0600000    0.6250000   1.575021e-03  3.561100e-06
    347    324   2   0.50000     0.0300000    0.6250000   2.482000e-04  1.854991e-07
    348    324   2   0.50000     0.0300000    0.6250000   2.482000e-04  1.854991e-07
    322    325   2   0.50000     0.1900000   -0.4300000   1.095425e-03  1.218041e-06
    322    326   2   0.50000     0.1900000   -0.1150000   1.091018e-03  2.092768e-06
    323    327   2   0.50000    -0.3300000   -0.1150000   1.102666e-03  1.331965e-06
    323    334   2   0.50000    -0.3300000   -0.1150000   1.102666e-03  1.331965e-06
    325    327   2   0.50000    -0.4300000   -0.1150000   1.177174e-03  1.365843e-06
    325    334   2   0.50000    -0.4300000   -0.1150000   1.177174e-03  1.365843e-06
    324    328   2   0.50000     0.6250000   -0.1150000   1.692561e-03  3.993218e-06
    324    349   2   0.50000     0.6250000    0.1150000   3.510079e-04  2.623353e-07
    334    328   2   0.50000    -0.1150000   -0.1150000   1.172438e-03  2.346713e-06
    334    349   2   0.50000    -0.1150000    0.1150000   2.431434e-04  1.541678e-07
    324    333   2   0.50000     0.6250000   -0.1150000   1.692561e-03  3.993218e-06
    324    352   2   0.50000     0.6250000    0.1150000   3.510079e-04  2.623353e-07
    327    333   2   0.50000    -0.1150000   -0.1150000   1.172438e-03  2.346713e-06
    327    352   2   0.50000    -0.1150000    0.1150000   2.431434e-04  1.541678e-07
    326    329   2   0.50000    -0.1150000   -0.1150000   1.172438e-03  2.346713e-06
    326    350   2   0.50000    -0.1150000    0.1150000   2.431434e-04  1.541678e-07
    349    329   2   0.50000     0.1150000   -0.1150000   2.431434e-04  1.541678e-07
    349    350   2   0.50000     0.1150000    0.1150000   5.042375e-05  1.012808e-08
    327    330   2   0.50000    -0.1150000    0.6250000   1.692561e-03  3.993218e-06
    350    330   2   0.50000     0.1150000    0.6250000   3.510079e-04  2.623353e-07
    350    333   2   0.50000     0.1150000   -0.1150000   2.431434e-04  1.541678e-07
    328    331   2   0.50000    -0.1150000   -0.4300000   1.177174e-03  1.365843e-06
    328    332   2   0.50000    -0.1150000   -0.0800000   1.102666e-03  1.331965e-06
    333    331   2   0.50000    -0.1150000   -0.4300000   1.177174e-03  1.365843e-06
    333    332   2   0.50000    -0.1150000   -0.0800000   1.102666e-03  1.331965e-06
    328    351   2   0.50000    -0.1150000    0.1150000   2.431434e-04  1.541678e-07
    330    334   2   0.50000     0.6250000   -0.1150000   1.692561e-03  3.993218e-06
    330    351   2   0.50000     0.6250000    0.1150000   3.510079e-04  2.623353e-07
    329    357   2   0.50000    -0.1150000   -0.2000000   9.038862e-04  9.862632e-07
    331    357   2   0.50000    -0.4300000   -0.2000000   9.075373e-04  5.740287e-07
    330    356   2   0.50000     0.6250000    0.0800000   1.575021e-03  3.561100e-06
    329    352   2   0.50000    -0.1150000    0.1150000   2.431434e-04  1.541678e-07
    351    326   2   0.50000     0.1150000   -0.1150000   2.431434e-04  1.541678e-07
    351    352   2   0.50000     0.1150000    0.1150000   5.042375e-05  1.012808e-08
    360    355   2   0.50000    -0.0600000   -0.0600000   1.015252e-03  1.866303e-06
    360    376   2   0.50000    -0.0600000    0.0600000   2.494471e-04  1.671101e-07
    360    377   2   0.50000    -0.0600000    0.0600000   2.494471e-04  1.671101e-07
    374    355   2   0.50000     0.0600000   -0.0600000   2.494471e-04  1.671101e-07
    374    376   2   0.50000     0.0600000    0.0600000   6.128906e-05  1.496315e-08
    374    377   2   0.50000     0.0600000    0.0600000   6.128906e-05  1.496315e-08
    375    355   2   0.50000     0.0600000   -0.0600000   2.494471e-04  1.671101e-07
    375    376   2   0.50000     0.0600000    0.0600000   6.128906e-05  1.496315e-08
    375    377   2   0.50000     0.0600000    0.0600000   6.128906e-05  1.496315e-08
    354    359   2   0.50000    -0.1200000   -0.1200000   1.015252e-03  1.866303e-06
    354    361   2   0.50000    -0.1200000    0.1900000   1.015252e-03  1.866303e-06
    354    385   2   0.50000    -0.1200000    0.0600000   2.494471e-04  1.671101e-07
    374    359   2   0.50000     0.0600000   -0.1200000   2.494471e-04  1.671101e-07
    374    361   2   0.50000     0.0600000    0.1900000   2.494471e-04  1.671101e-07
    374    385   2   0.50000     0.0600000    0.0600000   6.128906e-05  1.496315e-08
    375    359   2   0.50000     0.0600000   -0.1200000   2.494471e-04  1.671101e-07
    375    361   2   0.50000     0.0600000    0.1900000   2.494471e-04  1.671101e-07
    375    385   2   0.50000     0.0600000    0.0600000   6.128906e-05  1.496315e-08
    353    356   2   0.50000    -0.1200000    0.0800000   1.015252e-03  1.866303e-06
    353    358   2   0.50000    -0.1200000   -0.1200000   1.015252e-03  1.866303e-06
    353    378   2   0.50000    -0.1200000    0.0600000   2.494471e-04  1.671101e-07
    376    356   2   0.50000     0.0600000    0.0800000   2.494471e-04  1.671101e-07
    376    358   2   0.50000     0.0600000   -0.1200000   2.494471e-04  1.671101e-07
    376    378   2   0.50000     0.0600000    0.0600000   6.128906e-05  1.496315e-08
    377    356   2   0.50000     0.0600000    0.0800000   2.494471e-04  1.671101e-07
    377    358   2   0.50000     0.0600000   -0.1200000   2.494471e-04  1.671101e-07
    377    378   2   0.50000     0.0600000    0.0600000   6.128906e-05  1.496315e-08
    354    357   2   0.50000    -0.1200000   -0.2000000   8.411158e-04  8.795366e-07
    354    379   2   0.50000    -0.1200000    0.0600000   2.494471e-04  1.671101e-07
    354    380   2   0.50000    -0.1200000    0.0600000   2.494471e-04  1.671101e-07
    358    357   2   0.50000    -0.1200000   -0.2000000   8.411158e-04  8.795366e-07
    358    379   2   0.50000    -0.1200000    0.0600000   2.494471e-04  1.671101e-07
    358    380   2   0.50000    -0.1200000    0.0600000   2.494471e-04  1.671101e-07
    378    357   2   0.50000     0.0600000   -0.2000000   2.066619e-04  7.875431e-08
    378    379   2   0.50000     0.0600000    0.0600000   6.128906e-05  1.496315e-08
    378    380   2   0.50000     0.0600000    0.0600000   6.128906e-05  1.496315e-08
    354    381   2   0.50000    -0.1200000    0.0600000   2.494471e-04  1.671101e-07
    354    382   2   0.50000    -0.1200000    0.0600000   2.494471e-04  1.671101e-07
    356    359   2   0.50000     0.0800000   -0.1200000   1.015252e-03  1.866303e-06
    356    381   2   0.50000     0.0800000    0.0600000   2.494471e-04  1.671101e-07
    356    382   2   0.50000     0.0800000    0.0600000   2.494471e-04  1.671101e-07
    378    359   2   0.50000     0.0600000   -0.1200000   2.494471e-04  1.671101e-07
    378    381   2   0.50000     0.0600000    0.0600000   6.128906e-05  1.496315e-08
    378    382   2   0.50000     0.0600000    0.0600000   6.128906e-05  1.496315e-08
    355    332   2   0.50000    -0.0600000   -0.0800000   1.026091e-03  1.187829e-06
    379    332   2   0.50000     0.0600000   -0.0800000   2.521103e-04  1.063590e-07
    380    332   2   0.50000     0.0600000   -0.0800000   2.521103e-04  1.063590e-07
    355    383   2   0.50000    -0.0600000    0.0600000   2.494471e-04  1.671101e-07
    355    384   2   0.50000    -0.0600000    0.0600000   2.494471e-04  1.671101e-07
    381    360   2   0.50000     0.0600000   -0.0600000   2.494471e-04  1.671101e-07
    381    383   2   0.50000     0.0600000    0.0600000   6.128906e-05  1.496315e-08
    381    384   2   0.50000     0.0600000    0.0600000   6.128906e-05  1.496315e-08
    382    360   2   0.50000     0.0600000   -0.0600000   2.494471e-04  1.671101e-07
    382    383   2   0.50000     0.0600000    0.0600000   6.128906e-05  1.496315e-08
    382    384   2   0.50000     0.0600000    0.0600000   6.128906e-05  1.496315e-08
    358    361   2   0.50000    -0.1200000    0.1900000   1.015252e-03  1.866303e-06
    358    385   2   0.50000    -0.1200000    0.0600000   2.494471e-04  1.671101e-07
    383    353   2   0.50000     0.0600000   -0.1200000   2.494471e-04  1.671101e-07
    383    361   2   0.50000     0.0600000    0.1900000   2.494471e-04  1.671101e-07
    383    385   2   0.50000     0.0600000    0.0600000   6.128906e-05  1.496315e-08
    384    353   2   0.50000     0.0600000   -0.1200000   2.494471e-04  1.671101e-07
    384    361   2   0.50000     0.0600000    0.1900000   2.494471e-04  1.671101e-07
    384    385   2   0.50000     0.0600000    0.0600000   6.128906e-05  1.496315e-08
    353    362   2   0.50000    -0.1200000   -0.3300000   1.026091e-03  1.187829e-06
    353    386   2   0.50000    -0.1200000    0.0300000   1.599888e-04  9.721644e-08
    353    387   2   0.50000    -0.1200000    0.0300000   1.599888e-04  9.721644e-08
    359    362   2   0.50000    -0.1200000   -0.3300000   1.026091e-03  1.187829e-06
    359    386   2   0.50000    -0.1200000    0.0300000   1.599888e-04  9.721644e-08
    359    387   2   0.50000    -0.1200000    0.0300000   1.599888e-04  9.721644e-08
    385    362   2   0.50000     0.0600000   -0.3300000   2.521103e-04  1.063590e-07
    385    386   2   0.50000     0.0600000    0.0300000   3.930919e-05  8.704828e-09
    385    387   2   0.50000     0.0600000    0.0300000   3.930919e-05  8.704828e-09
    360    363   2   0.50000    -0.0600000    0.6250000   1.575021e-03  3.561100e-06
    386    363   2   0.50000     0.0300000    0.6250000   2.482000e-04  1.854991e-07
    387    363   2   0.50000     0.0300000    0.6250000   2.482000e-04  1.854991e-07
    361    364   2   0.50000     0.1900000   -0.4300000   1.095425e-03  1.218041e-06
    361    365   2   0.50000     0.1900000   -0.1150000   1.091018e-03  2.092768e-06
    362    366   2   0.50000    -0.3300000   -0.1150000   1.102666e-03  1.331965e-06
    362    373   2   0.50000    -0.3300000   -0.1150000   1.102666e-03  1.331965e-06
    364    366   2   0.50000    -0.4300000   -0.1150000   1.177174e-03  1.365843e-06
    364    373   2   0.50000    -0.4300000   -0.1150000   1.177174e-03  1.365843e-06
    363    367   2   0.50000     0.6250000   -0.1150000   1.692561e-03  3.993218e-06
    363    388   2   0.50000     0.6250000    0.1150000   3.510079e-04  2.623353e-07
    373    367   2   0.50000    -0.1150000   -0.1150000   1.172438e-03  2.346713e-06
    373    388   2   0.50000    -0.1150000    0.1150000   2.431434e-04  1.541678e-07
    363    372   2   0.50000     0.6250000   -0.1150000   1.692561e-03  3.993218e-06
    363    391   2   0.50000     0.6250000    0.1150000   3.510079e-04  2.623353e-07
    366    372   2   0.50000    -0.1150000   -0.1150000   1.172438e-03  2.346713e-06
    366    391   2   0.50000    -0.1150000    0.1150000   2.431434e-04  1.541678e-07
    365    368   2   0.50000    -0.1150000   -0.1150000   1.172438e-03  2.346713e-06
    365    389   2   0.50000    -0.1150000    0.1150000   2.431434e-04  1.541678e-07
    388    368   2   0.50000     0.1150000   -0.1150000   2.431434e-04  1.541678e-07
    388    389   2   0.50000     0.1150000    0.1150000   5.042375e-05  1.012808e-08
    366    369   2   0.50000    -0.1150000    0.6250000   1.692561e-03  3.993218e-06
    389    369   2   0.50000     0.1150000    0.6250000   3.510079e-04  2.623353e-07
    389    372   2   0.50000     0.1150000   -0.1150000   2.431434e-04  1.541678e-07
    367    370   2   0.50000    -0.1150000   -0.4300000   1.177174e-03  1.365843e-06
    367    371   2   0.50000    -0.1150000   -0.0800000   1.102666e-03  1.331965e-06
    372    370   2   0.50000    -0.1150000   -0.4300000   1.177174e-03  1.365843e-06
    372    371   2   0.50000    -0.1150000   -0.0800000   1.102666e-03  1.331965e-06
    367    390   2   0.50000    -0.1150000    0.1150000   2.431434e-04  1.541678e-07
    369    373   2   0.50000     0.6250000   -0.1150000   1.692561e-03  3.993218e-06
    369    390   2   0.50000     0.6250000    0.1150000   3.510079e-04  2.623353e-07
    368    396   2   0.50000    -0.1150000   -0.2000000   9.038862e-04  9.862632e-07
    370    396   2   0.50000    -0.4300000   -0.2000000   9.075373e-04  5.740287e-07
    369    395   2   0.50000     0.6250000    0.0800000   1.575021e-03  3.561100e-06
    368    391   2   0.50000    -0.1150000    0.1150000   2.431434e-04  1.541678e-07
    390    365   2   0.50000     0.1150000   -0.1150000   2.431434e-04  1.541678e-07
    390    391   2   0.50000     0.1150000    0.1150000   5.042375e-05  1.012808e-08
    399    394   2   0.50000    -0.0600000   -0.0600000   1.015252e-03  1.866303e-06
    399    415   2   0.50000    -0.0600000    0.0600000   2.494471e-04  1.671101e-07
    399    416   2   0.50000    -0.0600000    0.0600000   2.494471e-04  1.671101e-07
    413    394   2   0.50000     0.0600000   -0.0600000   2.494471e-04  1.671101e-07
    413    415   2   0.50000     0.0600000    0.0600000   6.128906e-05  1.496315e-08
    413    416   2   0.50000     0.0600000    0.0600000   6.128906e-05  1.496315e-08
    414    394   2   0.50000     0.0600000   -0.0600000   2.494471e-04  1.671101e-07
    414    415   2   0.50000     0.0600000    0.0600000   6.128906e-05  1.496315e-08
    414    416   2   0.50000     0.0600000    0.0600000   6.128906e-05  1.496315e-08
    393    398   2   0.50000    -0.1200000   -0.1200000   1.015252e-03  1.866303e-06
    393    400   2   0.50000    -0.1200000    0.1900000   1.015252e-03  1.866303e-06
    393    424   2   0.50000    -0.1200000    0.0600000   2.494471e-04  1.671101e-07
    413    398   2   0.50000     0.0600000   -0.1200000   2.494471e-04  1.671101e-07
    413    400   2   0.50000     0.0600000    0.1900000   2.494471e-04  1.671101e-07
    413    424   2   0.50000     0.0600000    0.0600000   6.128906e-05  1.496315e-08
    414    398   2   0.50000     0.0600000   -0.1200000   2.494471e-04  1.671101e-07
    414    400   2   0.50000     0.0600000    0.1900000   2.494471e-04  1.671101e-07
    414    424   2   0.50000     0.0600000    0.0600000   6.128906e-05  1.496315e-08
    392    395   2   0.50000    -0.1200000    0.0800000   1.015252e-03  1.866303e-06
    392    397   2   0.50000    -0.1200000   -0.1200000   1.015252e-03  1.866303e-06
    392    417   2   0.50000    -0.1200000    0.0600000   2.494471e-04  1.671101e-07
    415    395   2   0.50000     0.0600000    0.0800000   2.494471e-04  1.671101e-07
    415    397   2   0.50000     0.0600000   -0.1200000   2.494471e-04  1.671101e-07
    415    417   2   0.50000     0.0600000    0.0600000   6.128906e-05  1.496315e-08
    416    395   2   0.50000     0.0600000    0.0800000   2.494471e-04  1.671101e-07
    416    397   2   0.50000     0.0600000   -0.1200000   2.494471e-04  1.671101e-07
    416    417   2   0.50000     0.0600000    0.0600000   6.128906e-05  1.496315e-08
    393    396   2   0.50000    -0.1200000   -0.2000000   8.411158e-04  8.795366e-07
    393    418   2   0.50000    -0.1200000    0.0600000   2.494471e-04  1.671101e-07
    393    419   2   0.50000    -0.1200000    0.0600000   2.494471e-04  1.671101e-07
    397    396   2   0.50000    -0.1200000   -0.2000000   8.411158e-04  8.795366e-07
    397    418   2   0.50000    -0.1200000    0.0600000   2.494471e-04  1.671101e-07
    397    419   2   0.50000    -0.1200000    0.0600000   2.494471e-04  1.671101e-07
    417    396   2   0.50000     0.0600000   -0.2000000   2.066619e-04  7.875431e-08
    417    418   2   0.50000     0.0600000    0.0600000   6.128906e-05  1.496315e-08
    417    419   2   0.50000     0.0600000    0.0600000   6.128906e-05  1.496315e-08
    393    420   2   0.50000    -0.1200000    0.0600000   2.494471e-04  1.671101e-07
    393    421   2   0.50000    -0.1200000    0.0600000   2.494471e-04  1.671101e-07
    395    398   2   0.50000     0.0800000   -0.1200000   1.015252e-03  1.866303e-06
    395    420   2   0.50000     0.0800000    0.0600000   2.494471e-04  1.671101e-07
    395    421   2   0.50000     0.0800000    0.0600000   2.494471e-04  1.671101e-07
    417    398   2   0.50000     0.0600000   -0.1200000   2.494471e-04  1.671101e-07
    417    420   2   0.50000     0.0600000    0.0600000   6.128906e-05  1.496315e-08
    417    421   2   0.50000     0.0600000    0.0600000   6.128906e-05  1.496315e-08
    394    371   2   0.50000    -0.0600000   -0.0800000   1.026091e-03  1.187829e-06
    418    371   2   0.50000     0.0600000   -0.0800000   2.521103e-04  1.063590e-07
    419    371   2   0.50000     0.0600000   -0.0800000   2.521103e-04  1.063590e-07
    394    422   2   0.50000    -0.0600000    0.0600000   2.494471e-04  1.671101e-07
    394    423   2   0.50000    -0.0600000    0.0600000   2.494471e-04  1.671101e-07
    420    399   2   0.50000     0.0600000   -0.0600000   2.494471e-04  1.671101e-07
    420    422   2   0.50000     0.0600000    0.0600000   6.128906e-05  1.496315e-08
    420    423   2   0.50000     0.0600000    0.0600000   6.128906e-05  1.496315e-08
    421    399   2   0.50000     0.0600000   -0.0600000   2.494471e-04  1.671101e-07
    421    422   2   0.50000     0.0600000    0.0600000   6.128906e-05  1.496315e-08
    421    423   2   0.50000     0.0600000    0.0600000   6.128906e-05  1.496315e-08
    397    400   2   0.50000    -0.1200000    0.1900000   1.015252e-03  1.866303e-06
    397    424   2   0.50000    -0.1200000    0.0600000   2.494471e-04  1.671101e-07
    422    392   2   0.50000     0.0600000   -0.1200000   2.494471e-04  1.671101e-07
    422    400   2   0.50000     0.0600000    0.1900000   2.494471e-04  1.671101e-07
    422    424   2   0.50000     0.0600000    0.0600000   6.128906e-05  1.496315e-08
    423    392   2   0.50000     0.0600000   -0.1200000   2.494471e-04  1.671101e-07
    423    400   2   0.50000     0.0600000    0.1900000   2.494471e-04  1.671101e-07
    423    424   2   0.50000     0.0600000    0.0600000   6.128906e-05  1.496315e-08
    392    401   2   0.50000    -0.1200000   -0.3300000   1.026091e-03  1.187829e-06
    392    425   2   0.50000    -0.1200000    0.0300000   1.599888e-04  9.721644e-08
    392    426   2   0.50000    -0.1200000    0.0300000   1.599888e-04  9.721644e-08
    398    401   2   0.50000    -0.1200000   -0.3300000   1.026091e-03  1.187829e-06
    398    425   2   0.50000    -0.1200000    0.0300000   1.599888e-04  9.721644e-08
    398    426   2   0.50000    -0.1200000    0.0300000   1.599888e-04  9.721644e-08
    424    401   2   0.50000     0.0600000   -0.3300000   2.521103e-04  1.063590e-07
    424    425   2   0.50000     0.0600000    0.0300000   3.930919e-05  8.704828e-09
    424    426   2   0.50000     0.0600000    0.0300000   3.930919e-05  8.704828e-09
    399    402   2   0.50000    -0.0600000    0.6250000   1.575021e-03  3.561100e-06
    425    402   2   0.50000     0.0300000    0.6250000   2.482000e-04  1.854991e-07
    426    402   2   0.50000     0.0300000    0.6250000   2.482000e-04  1.854991e-07
    400    403   2   0.50000     0.1900000   -0.4300000   1.095425e-03  1.218041e-06
    400    404   2   0.50000     0.1900000   -0.1150000   1.091018e-03  2.092768e-06
    401    405   2   0.50000    -0.3300000   -0.1150000   1.102666e-03  1.331965e-06
    401    412   2   0.50000    -0.3300000   -0.1150000   1.102666e-03  1.331965e-06
    403    405   2   0.50000    -0.4300000   -0.1150000   1.177174e-03  1.365843e-06
    403    412   2   0.50000    -0.4300000   -0.1150000   1.177174e-03  1.365843e-06
    402    406   2   0.50000     0.6250000   -0.1150000   1.692561e-03  3.993218e-06
    402    427   2   0.50000     0.6250000    0.1150000   3.510079e-04  2.623353e-07
    412    406   2   0.50000    -0.1150000   -0.1150000   1.172438e-03  2.346713e-06
    412    427   2   0.50000    -0.1150000    0.1150000   2.431434e-04  1.541678e-07
    402    411   2   0.50000     0.6250000   -0.1150000   1.692561e-03  3.993218e-06
    402    430   2   0.50000     0.6250000    0.1150000   3.510079e-04  2.623353e-07
    405    411   2   0.50000    -0.1150000   -0.1150000   1.172438e-03  2.346713e-06
    405    430   2   0.50000    -0.1150000    0.1150000   2.431434e-04  1.541678e-07
    404    407   2   0.50000    -0.1150000   -0.1150000   1.172438e-03  2.346713e-06
    404    428   2   0.50000    -0.1150000    0.1150000   2.431434e-04  1.541678e-07
    427    407   2   0.50000     0.1150000   -0.1150000   2.431434e-04  1.541678e-07
    427    428   2   0.50000     0.1150000    0.1150000   5.042375e-05  1.012808e-08
    405    408   2   0.50000    -0.1150000    0.6250000   1.692561e-03  3.993218e-06
    428    408   2   0.50000     0.1150000    0.6250000   3.510079e-04  2.623353e-07
    428    411   2   0.50000     0.1150000   -0.1150000   2.431434e-04  1.541678e-07
    406    409   2   0.50000    -0.1150000   -0.4300000   1.177174e-03  1.365843e-06
    406    410   2   0.50000    -0.1150000   -0.0800000   1.102666e-03  1.331965e-06
    411    409   2   0.50000    -0.1150000   -0.4300000   1.177174e-03  1.365843e-06
    411    410   2   0.50000    -0.1150000   -0.0800000   1.102666e-03  1.331965e-06
    406    429   2   0.50000    -0.1150000    0.1150000   2.431434e-04  1.541678e-07
    408    412   2   0.50000     0.6250000   -0.1150000   1.692561e-03  3.993218e-06
    408    429   2   0.50000     0.6250000    0.1150000   3.510079e-04  2.623353e-07
    407    435   2   0.50000    -0.1150000   -0.2000000   9.038862e-04  9.862632e-07
    409    435   2   0.50000    -0.4300000   -0.2000000   9.075373e-04  5.740287e-07
    408    434   2   0.50000     0.6250000    0.0800000   1.575021e-03  3.561100e-06
    407    430   2   0.50000    -0.1150000    0.1150000   2.431434e-04  1.541678e-07
    429    404   2   0.50000     0.1150000   -0.1150000   2.431434e-04  1.541678e-07
    429    430   2   0.50000     0.1150000    0.1150000   5.042375e-05  1.012808e-08
    438    433   2   0.50000    -0.0600000   -0.0600000   1.015252e-03  1.866303e-06
    438    454   2   0.50000    -0.0600000    0.0600000   2.494471e-04  1.671101e-07
    438    455   2   0.50000    -0.0600000    0.0600000   2.494471e-04  1.671101e-07
    452    433   2   0.50000     0.0600000   -0.0600000   2.494471e-04  1.671101e-07
    452    454   2   0.50000     0.0600000    0.0600000   6.128906e-05  1.496315e-08
    452    455   2   0.50000     0.0600000    0.0600000   6.128906e-05  1.496315e-08
    453    433   2   0.50000     0.0600000   -0.0600000   2.494471e-04  1.671101e-07
    453    454   2   0.50000     0.0600000    0.0600000   6.128906e-05  1.496315e-08
    453    455   2   0.50000     0.0600000    0.0600000   6.128906e-05  1.496315e-08
    432    437   2   0.50000    -0.1200000   -0.1200000   1.015252e-03  1.866303e-06
    432    439   2   0.50000    -0.1200000    0.1900000   1.015252e-03  1.866303e-06
    432    463   2   0.50000    -0.1200000    0.0600000   2.494471e-04  1.671101e-07
    452    437   2   0.50000     0.0600000   -0.1200000   2.494471e-04  1.671101e-07
    452    439   2   0.50000     0.0600000    0.1900000   2.494471e-04  1.671101e-07
    452    463   2   0.50000     0.0600000    0.0600000   6.128906e-05  1.496315e-08
    453    437   2   0.50000     0.0600000   -0.1200000   2.494471e-04  1.671101e-07
    453    439   2   0.50000     0.0600000    0.1900000   2.494471e-04  1.671101e-07
    453    463   2   0.50000     0.0600000    0.0600000   6.128906e-05  1.496315e-08
    431    434   2   0.50000    -0.1200000    0.0800000   1.015252e-03  1.866303e-06
    431    436   2   0.50000    -0.1200000   -0.1200000   1.015252e-03  1.866303e-06
    431    456   2   0.50000    -0.1200000    0.0600000   2.494471e-04  1.671101e-07
    454    434   2   0.50000     0.0600000    0.0800000   2.494471e-04  1.671101e-07
    454    436   2   0.50000     0.0600000   -0.1200000   2.494471e-04  1.671101e-07
    454    456   2   0.50000     0.0600000    0.0600000   6.128906e-05  1.496315e-08
    455    434   2   0.50000     0.0600000    0.0800000   2.494471e-04  1.671101e-07
    455    436   2   0.50000     0.0600000   -0.1200000   2.494471e-04  1.671101e-07
    455    456   2   0.50000     0.0600000    0.0600000   6.128906e-05  1.496315e-08
    432    435   2   0.50000    -0.1200000   -0.2000000   8.411158e-04  8.795366e-07
    432    457   2   0.50000    -0.1200000    0.0600000   2.494471e-04  1.671101e-07
    432    458   2   0.50000    -0.1200000    0.0600000   2.494471e-04  1.671101e-07
    436    435   2   0.50000    -0.1200000   -0.2000000   8.411158e-04  8.795366e-07
    436    457   2   0.50000    -0.1200000    0.0600000   2.494471e-04  1.671101e-07
    436    458   2   0.50000    -0.1200000    0.0600000   2.494471e-04  1.671101e-07
    456    435   2   0.50000     0.0600000   -0.2000000   2.066619e-04  7.875431e-08
    456    457   2   0.50000     0.0600000    0.0600000   6.128906e-05  1.496315e-08
    456    458   2   0.50000     0.0600000    0.0600000   6.128906e-05  1.496315e-08
    432    459   2   0.50000    -0.1200000    0.0600000   2.494471e-04  1.671101e-07
    432    460   2   0.50000    -0.1200000    0.0600000   2.494471e-04  1.671101e-07
    434    437   2   0.50000     0.0800000   -0.1200000   1.015252e-03  1.866303e-06
    434    459   2   0.50000     0.0800000    0.0600000   2.494471e-04  1.671101e-07
    434    460   2   0.50000     0.0800000    0.0600000   2.494471e-04  1.671101e-07
    456    437   2   0.50000     0.0600000   -0.1200000   2.494471e-04  1.671101e-07
    456    459   2   0.50000     0.0600000    0.0600000   6.128906e-05  1.496315e-08
    456    460   2   0.50000     0.0600000    0.0600000   6.128906e-05  1.496315e-08
    433    410   2   0.50000    -0.0600000   -0.0800000   1.026091e-03  1.187829e-06
    457    410   2   0.50000     0.0600000   -0.0800000   2.521103e-04  1.063590e-07
    458    410   2   0.50000     0.0600000   -0.0800000   2.521103e-04  1.063590e-07
    433    461   2   0.50000    -0.0600000    0.0600000   2.494471e-04  1.671101e-07
    433    462   2   0.50000    -0.0600000    0.0600000   2.494471e-04  1.671101e-07
    459    438   2   0.50000     0.0600000   -0.0600000   2.494471e-04  1.671101e-07
    459    461   2   0.50000     0.0600000    0.0600000   6.128906e-05  1.496315e-08
    459    462   2   0.50000     0.0600000    0.0600000   6.128906e-05  1.496315e-08
    460    438   2   0.50000     0.0600000   -0.0600000   2.494471e-04  1.671101e-07
    460    461   2   0.50000     0.0600000    0.0600000   6.128906e-05  1.496315e-08
    460    462   2   0.50000     0.0600000    0.0600000   6.128906e-05  1.496315e-08
    436    439   2   0.50000    -0.1200000    0.1900000   1.015252e-03  1.866303e-06
    436    463   2   0.50000    -0.1200000    0.0600000   2.494471e-04  1.671101e-07
    461    431   2   0.50000     0.0600000   -0.1200000   2.494471e-04  1.671101e-07
    461    439   2   0.50000     0.0600000    0.1900000   2.494471e-04  1.671101e-07
    461    463   2   0.50000     0.0600000    0.0600000   6.128906e-05  1.496315e-08
    462    431   2   0.50000     0.0600000   -0.1200000   2.494471e-04  1.671101e-07
    462    439   2   0.50000     0.0600000    0.1900000   2.494471e-04  1.671101e-07
    462    463   2   0.50000     0.0600000    0.0600000   6.128906e-05  1.496315e-08
    431    440   2   0.50000    -0.1200000   -0.3300000   1.026091e-03  1.187829e-06
    431    464   2   0.50000    -0.1200000    0.0300000   1.599888e-04  9.721644e-08
    431    465   2   0.50000    -0.1200000    0.0300000   1.599888e-04  9.721644e-08
    437    440   2   0.50000    -0.1200000   -0.3300000   1.026091e-03  1.187829e-06
    437    464   2   0.50000    -0.1200000    0.0300000   1.599888e-04  9.721644e-08
    437    465   2   0.50000    -0.1200000    0.0300000   1.599888e-04  9.721644e-08
    463    440   2   0.50000     0.0600000   -0.3300000   2.521103e-04  1.063590e-07
    463    464   2   0.50000     0.0600000    0.0300000   3.930919e-05  8.704828e-09
    463    465   2   0.50000     0.0600000    0.0300000   3.930919e-05  8.704828e-09
    438    441   2   0.50000    -0.0600000    0.6250000   1.575021e-03  3.561100e-06
    464    441   2   0.50000     0.0300000    0.6250000   2.482000e-04  1.854991e-07
    465    441   2   0.50000     0.0300000    0.6250000   2.482000e-04  1.854991e-07
    439    442   2   0.50000     0.1900000   -0.4300000   1.095425e-03  1.218041e-06
    439    443   2   0.50000     0.1900000   -0.1150000   1.091018e-03  2.092768e-06
    440    444   2   0.50000    -0.3300000   -0.1150000   1.102666e-03  1.331965e-06
    440    451   2   0.50000    -0.3300000   -0.1150000   1.102666e-03  1.331965e-06
    442    444   2   0.50000    -0.4300000   -0.1150000   1.177174e-03  1.365843e-06
    442    451   2   0.50000    -0.4300000   -0.1150000   1.177174e-03  1.365843e-06
    441    445   2   0.50000     0.6250000   -0.1150000   1.692561e-03  3.993218e-06
    441    466   2   0.50000     0.6250000    0.1150000   3.510079e-04  2.623353e-07
    451    445   2   0.50000    -0.1150000   -0.1150000   1.172438e-03  2.346713e-06
    451    466   2   0.50000    -0.1150000    0.1150000   2.431434e-04  1.541678e-07
    441    450   2   0.50000     0.6250000   -0.1150000   1.692561e-03  3.993218e-06
    441    469   2   0.50000     0.6250000    0.1150000   3.510079e-04  2.623353e-07
    444    450   2   0.50000    -0.1150000   -0.1150000   1.172438e-03  2.346713e-06
    444    469   2   0.50000    -0.1150000    0.1150000   2.431434e-04  1.541678e-07
    443    446   2   0.50000    -0.1150000   -0.1150000   1.172438e-03  2.346713e-06
    443    467   2   0.50000    -0.1150000    0.1150000   2.431434e-04  1.541678e-07
    466    446   2   0.50000     0.1150000   -0.1150000   2.431434e-04  1.541678e-07
    466    467   2   0.50000     0.1150000    0.1150000   5.042375e-05  1.012808e-08
    444    447   2   0.50000    -0.1150000    0.6250000   1.692561e-03  3.993218e-06
    467    447   2   0.50000     0.1150000    0.6250000   3.510079e-04  2.623353e-07
    467    450   2   0.50000     0.1150000   -0.1150000   2.431434e-04  1.541678e-07
    445    448   2   0.50000    -0.1150000   -0.4300000   1.177174e-03  1.365843e-06
    445    449   2   0.50000    -0.1150000   -0.0800000   1.102666e-03  1.331965e-06
    450    448   2   0.50000    -0.1150000   -0.4300000   1.177174e-03  1.365843e-06
    450    449   2   0.50000    -0.1150000   -0.0800000   1.102666e-03  1.331965e-06
    445    468   2   0.50000    -0.1150000    0.1150000   2.431434e-04  1.541678e-07
    447    451   2   0.50000     0.6250000   -0.1150000   1.692561e-03  3.993218e-06
    447    468   2   0.50000     0.6250000    0.1150000   3.510079e-04  2.623353e-07
    446    474   2   0.50000    -0.1150000   -0.2000000   9.038862e-04  9.862632e-07
    448    474   2   0.50000    -0.4300000   -0.2000000   9.075373e-04  5.740287e-07
    447    473   2   0.50000     0.6250000    0.0800000   1.575021e-03  3.561100e-06
    446    469   2   0.50000    -0.1150000    0.1150000   2.431434e-04  1.541678e-07
    468    443   2   0.50000     0.1150000   -0.1150000   2.431434e-04  1.541678e-07
    468    469   2   0.50000     0.1150000    0.1150000   5.042375e-05  1.012808e-08
    477    472   2   0.50000    -0.0600000   -0.0600000   1.015252e-03  1.866303e-06
    477    493   2   0.50000    -0.0600000    0.0600000   2.494471e-04  1.671101e-07
    477    494   2   0.50000    -0.0600000    0.0600000   2.494471e-04  1.671101e-07
    491    472   2   0.50000     0.0600000   -0.0600000   2.494471e-04  1.671101e-07
    491    493   2   0.50000     0.0600000    0.0600000   6.128906e-05  1.496315e-08
    491    494   2   0.50000     0.0600000    0.0600000   6.128906e-05  1.496315e-08
    492    472   2   0.50000     0.0600000   -0.0600000   2.494471e-04  1.671101e-07
    492    493   2   0.50000     0.0600000    0.0600000   6.128906e-05  1.496315e-08
    492    494   2   0.50000     0.0600000    0.0600000   6.128906e-05  1.496315e-08
    471    476   2   0.50000    -0.1200000   -0.1200000   1.015252e-03  1.866303e-06
    471    478   2   0.50000    -0.1200000    0.1900000   1.015252e-03  1.866303e-06
    471    502   2   0.50000    -0.1200000    0.0600000   2.494471e-04  1.671101e-07
    491    476   2   0.50000     0.0600000   -0.1200000   2.494471e-04  1.671101e-07
    491    478   2   0.50000     0.0600000    0.1900000   2.494471e-04  1.671101e-07
    491    502   2   0.50000     0.0600000    0.0600000   6.128906e-05  1.496315e-08
    492    476   2   0.50000     0.0600000   -0.1200000   2.494471e-04  1.671101e-07
    492    478   2   0.50000     0.0600000    0.1900000   2.494471e-04  1.671101e-07
    492    502   2   0.50000     0.0600000    0.0600000   6.128906e-05  1.496315e-08
    470    473   2   0.50000    -0.1200000    0.0800000   1.015252e-03  1.866303e-06
    470    475   2   0.50000    -0.1200000   -0.1200000   1.015252e-03  1.866303e-06
    470    495   2   0.50000    -0.1200000    0.0600000   2.494471e-04  1.671101e-07
    493    473   2   0.50000     0.0600000    0.0800000   2.494471e-04  1.671101e-07
    493    475   2   0.50000     0.0600000   -0.1200000   2.494471e-04  1.671101e-07
    493    495   2   0.50000     0.0600000    0.0600000   6.128906e-05  1.496315e-08
    494    473   2   0.50000     0.0600000    0.0800000   2.494471e-04  1.671101e-07
    494    475   2   0.50000     0.0600000   -0.1200000   2.494471e-04  1.671101e-07
    494    495   2   0.50000     0.0600000    0.0600000   6.128906e-05  1.496315e-08
    471    474   2   0.50000    -0.1200000   -0.2000000   8.411158e-04  8.795366e-07
    471    496   2   0.50000    -0.1200000    0.0600000   2.494471e-04  1.671101e-07
    471    497   2   0.50000    -0.1200000    0.0600000   2.494471e-04  1.671101e-07
    475    474   2   0.50000    -0.1200000   -0.2000000   8.411158e-04  8.795366e-07
    475    496   2   0.50000    -0.1200000    0.0600000   2.494471e-04  1.671101e-07
    475    497   2   0.50000    -0.1200000    0.0600000   2.494471e-04  1.671101e-07
    495    474   2   0.50000     0.0600000   -0.2000000   2.066619e-04  7.875431e-08
    495    496   2   0.50000     0.0600000    0.0600000   6.128906e-05  1.496315e-08
    495    497   2   0.50000     0.0600000    0.0600000   6.128906e-05  1.496315e-08
    471    498   2   0.50000    -0.1200000    0.0600000   2.494471e-04  1.671101e-07
    471    499   2   0.50000    -0.1200000    0.0600000   2.494471e-04  1.671101e-07
    473    476   2   0.50000     0.0800000   -0.1200000   1.015252e-03  1.866303e-06
    473    498   2   0.50000     0.0800000    0.0600000   2.494471e-04  1.671101e-07
    473    499   2   0.50000     0.0800000    0.0600000   2.494471e-04  1.671101e-07
    495    476   2   0.50000     0.0600000   -0.1200000   2.494471e-04  1.671101e-07
    495    498   2   0.50000     0.0600000    0.0600000   6.128906e-05  1.496315e-08
    495    499   2   0.50000     0.0600000    0.0600000   6.128906e-05  1.496315e-08
    472    449   2   0.50000    -0.0600000   -0.0800000   1.026091e-03  1.187829e-06
    496    449   2   0.50000     0.0600000   -0.0800000   2.521103e-04  1.063590e-07
    497    449   2   0.50000     0.0600000   -0.0800000   2.521103e-04  1.063590e-07
    472    500   2   0.50000    -0.0600000    0.0600000   2.494471e-04  1.671101e-07
    472    501   2   0.50000    -0.0600000    0.0600000   2.494471e-04  1.671101e-07
    498    477   2   0.50000     0.0600000   -0.0600000   2.494471e-04  1.671101e-07
    498    500   2   0.50000     0.0600000    0.0600000   6.128906e-05  1.496315e-08
    498    501   2   0.50000     0.0600000    0.0600000   6.128906e-05  1.496315e-08
    499    477   2   0.50000     0.0600000   -0.0600000   2.494471e-04  1.671101e-07
    499    500   2   0.50000     0.0600000    0.0600000   6.128906e-05  1.496315e-08
    499    501   2   0.50000     0.0600000    0.0600000   6.128906e-05  1.496315e-08
    475    478   2   0.50000    -0.1200000    0.1900000   1.015252e-03  1.866303e-06
    475    502   2   0.50000    -0.1200000    0.0600000   2.494471e-04  1.671101e-07
    500    470   2   0.50000     0.0600000   -0.1200000   2.494471e-04  1.671101e-07
    500    478   2   0.50000     0.0600000    0.1900000   2.494471e-04  1.671101e-07
    500    502   2   0.50000     0.0600000    0.0600000   6.128906e-05  1.496315e-08
    501    470   2   0.50000     0.0600000   -0.1200000   2.494471e-04  1.671101e-07
    501    478   2   0.50000     0.0600000    0.1900000   2.494471e-04  1.671101e-07
    501    502   2   0.50000     0.0600000    0.0600000   6.128906e-05  1.496315e-08
    470    479   2   0.50000    -0.1200000   -0.3300000   1.026091e-03  1.187829e-06
    470    503   2   0.50000    -0.1200000    0.0300000   1.599888e-04  9.721644e-08
    470    504   2   0.50000    -0.1200000    0.0300000   1.599888e-04  9.721644e-08
    476    479   2   0.50000    -0.1200000   -0.3300000   1.026091e-03  1.187829e-06
    476    503   2   0.50000    -0.1200000    0.0300000   1.599888e-04  9.721644e-08
    476    504   2   0.50000    -0.1200000    0.0300000   1.599888e-04  9.721644e-08
    502    479   2   0.50000     0.0600000   -0.3300000   2.521103e-04  1.063590e-07
    502    503   2   0.50000     0.0600000    0.0300000   3.930919e-05  8.704828e-09
    502    504   2   0.50000     0.0600000    0.0300000   3.930919e-05  8.704828e-09
    477    480   2   0.50000    -0.0600000    0.6250000   1.575021e-03  3.561100e-06
    503    480   2   0.50000     0.0300000    0.6250000   2.482000e-04  1.854991e-07
    504    480   2   0.50000     0.0300000    0.6250000   2.482000e-04  1.854991e-07
    478    481   2   0.50000     0.1900000   -0.4300000   1.095425e-03  1.218041e-06
    478    482   2   0.50000     0.1900000   -0.1150000   1.091018e-03  2.092768e-06
    479    483   2   0.50000    -0.3300000   -0.1150000   1.102666e-03  1.331965e-06
    479    490   2   0.50000    -0.3300000   -0.1150000   1.102666e-03  1.331965e-06
    481    483   2   0.50000    -0.4300000   -0.1150000   1.177174e-03  1.365843e-06
    481    490   2   0.50000    -0.4300000   -0.1150000   1.177174e-03  1.365843e-06
    480    484   2   0.50000     0.6250000   -0.1150000   1.692561e-03  3.993218e-06
    480    505   2   0.50000     0.6250000    0.1150000   3.510079e-04  2.623353e-07
    490    484   2   0.50000    -0.1150000   -0.1150000   1.172438e-03  2.346713e-06
    490    505   2   0.50000    -0.1150000    0.1150000   2.431434e-04  1.541678e-07
    480    489   2   0.50000     0.6250000   -0.1150000   1.692561e-03  3.993218e-06
    480    508   2   0.50000     0.6250000    0.1150000   3.510079e-04  2.623353e-07
    483    489   2   0.50000    -0.1150000   -0.1150000   1.172438e-03  2.346713e-06
    483    508   2   0.50000    -0.1150000    0.1150000   2.431434e-04  1.541678e-07
    482    485   2   0.50000    -0.1150000   -0.1150000   1.172438e-03  2.346713e-06
    482    506   2   0.50000    -0.1150000    0.1150000   2.431434e-04  1.541678e-07
    505    485   2   0.50000     0.1150000   -0.1150000   2.431434e-04  1.541678e-07
    505    506   2   0.50000     0.1150000    0.1150000   5.042375e-05  1.012808e-08
    483    486   2   0.50000    -0.1150000    0.6250000   1.692561e-03  3.993218e-06
    506    486   2   0.50000     0.1150000    0.6250000   3.510079e-04  2.623353e-07
    506    489   2   0.50000     0.1150000   -0.1150000   2.431434e-04  1.541678e-07
    484    487   2   0.50000    -0.1150000   -0.4300000   1.177174e-03  1.365843e-06
    484    488   2   0.50000    -0.1150000   -0.0800000   1.102666e-03  1.331965e-06
    489    487   2   0.50000    -0.1150000   -0.4300000   1.177174e-03  1.365843e-06
    489    488   2   0.50000    -0.1150000   -0.0800000   1.102666e-03  1.331965e-06
    484    507   2   0.50000    -0.1150000    0.1150000   2.431434e-04  1.541678e-07
    486    490   2   0.50000     0.6250000   -0.1150000   1.692561e-03  3.993218e-06
    486    507   2   0.50000     0.6250000    0.1150000   3.510079e-04  2.623353e-07
    485    513   2   0.50000    -0.1150000   -0.2000000   9.038862e-04  9.862632e-07
    487    513   2   0.50000    -0.4300000   -0.2000000   9.075373e-04  5.740287e-07
    486    512   2   0.50000     0.6250000    0.0800000   1.575021e-03  3.561100e-06
    485    508   2   0.50000    -0.1150000    0.1150000   2.431434e-04  1.541678e-07
    507    482   2   0.50000     0.1150000   -0.1150000   2.431434e-04  1.541678e-07
    507    508   2   0.50000     0.1150000    0.1150000   5.042375e-05  1.012808e-08
    516    511   2   0.50000    -0.0600000   -0.0600000   1.015252e-03  1.866303e-06
    516    532   2   0.50000    -0.0600000    0.0600000   2.494471e-04  1.671101e-07
    516    533   2   0.50000    -0.0600000    0.0600000   2.494471e-04  1.671101e-07
    530    511   2   0.50000     0.0600000   -0.0600000   2.494471e-04  1.671101e-07
    530    532   2   0.50000     0.0600000    0.0600000   6.128906e-05  1.496315e-08
    530    533   2   0.50000     0.0600000    0.0600000   6.128906e-05  1.496315e-08
    531    511   2   0.50000     0.0600000   -0.0600000   2.494471e-04  1.671101e-07
    531    532   2   0.50000     0.0600000    0.0600000   6.128906e-05  1.496315e-08
    531    533   2   0.50000     0.0600000    0.0600000   6.128906e-05  1.496315e-08
    510    515   2   0.50000    -0.1200000   -0.1200000   1.015252e-03  1.866303e-06
    510    517   2   0.50000    -0.1200000    0.1900000   1.015252e-03  1.866303e-06
    510    541   2   0.50000    -0.1200000    0.0600000   2.494471e-04  1.671101e-07
    530    515   2   0.50000     0.0600000   -0.1200000   2.494471e-04  1.671101e-07
    530    517   2   0.50000     0.0600000    0.1900000   2.494471e-04  1.671101e-07
    530    541   2   0.50000     0.0600000    0.0600000   6.128906e-05  1.496315e-08
    531    515   2   0.50000     0.0600000   -0.1200000   2.494471e-04  1.671101e-07
    531    517   2   0.50000     0.0600000    0.1900000   2.494471e-04  1.671101e-07
    531    541   2   0.50000     0.0600000    0.0600000   6.128906e-05  1.496315e-08
    509    512   2   0.50000    -0.1200000    0.0800000   1.015252e-03  1.866303e-06
    509    514   2   0.50000    -0.1200000   -0.1200000   1.015252e-03  1.866303e-06
    509    534   2   0.50000    -0.1200000    0.0600000   2.494471e-04  1.671101e-07
    532    512   2   0.50000     0.0600000    0.0800000   2.494471e-04  1.671101e-07
    532    514   2   0.50000     0.0600000   -0.1200000   2.494471e-04  1.671101e-07
    532    534   2   0.50000     0.0600000    0.0600000   6.128906e-05  1.496315e-08
    533    512   2   0.50000     0.0600000    0.0800000   2.494471e-04  1.671101e-07
    533    514   2   0.50000     0.0600000   -0.1200000   2.494471e-04  1.671101e-07
    533    534   2   0.50000     0.0600000    0.0600000   6.128906e-05  1.496315e-08
    510    513   2   0.50000    -0.1200000   -0.2000000   8.411158e-04  8.795366e-07
    510    535   2   0.50000    -0.1200000    0.0600000   2.494471e-04  1.671101e-07
    510    536   2   0.50000    -0.1200000    0.0600000   2.494471e-04  1.671101e-07
    514    513   2   0.50000    -0.1200000   -0.2000000   8.411158e-04  8.795366e-07
    514    535   2   0.50000    -0.1200000    0.0600000   2.494471e-04  1.671101e-07
    514    536   2   0.50000    -0.1200000    0.0600000   2.494471e-04  1.671101e-07
    534    513   2   0.50000     0.0600000   -0.2000000   2.066619e-04  7.875431e-08
    534    535   2   0.50000     0.0600000    0.0600000   6.128906e-05  1.496315e-08
    534    536   2   0.50000     0.0600000    0.0600000   6.128906e-05  1.496315e-08
    510    537   2   0.50000    -0.1200000    0.0600000   2.494471e-04  1.671101e-07
    510    538   2   0.50000    -0.1200000    0.0600000   2.494471e-04  1.671101e-07
    512    515   2   0.50000     0.0800000   -0.1200000   1.015252e-03  1.866303e-06
    512    537   2   0.50000     0.0800000    0.0600000   2.494471e-04  1.671101e-07
    512    538   2   0.50000     0.0800000    0.0600000   2.494471e-04  1.671101e-07
    534    515   2   0.50000     0.0600000   -0.1200000   2.494471e-04  1.671101e-07
    534    537   2   0.50000     0.0600000    0.0600000   6.128906e-05  1.496315e-08
    534    538   2   0.50000     0.0600000    0.0600000   6.128906e-05  1.496315e-08
    511    488   2   0.50000    -0.0600000   -0.0800000   1.026091e-03  1.187829e-06
    535    488   2   0.50000     0.0600000   -0.0800000   2.521103e-04  1.063590e-07
    536    488   2   0.50000     0.0600000   -0.0800000   2.521103e-04  1.063590e-07
    511    539   2   0.50000    -0.0600000    0.0600000   2.494471e-04  1.671101e-07
    511    540   2   0.50000    -0.0600000    0.0600000   2.494471e-04  1.671101e-07
    537    516   2   0.50000     0.0600000   -0.0600000   2.494471e-04  1.671101e-07
    537    539   2   0.50000     0.0600000    0.0600000   6.128906e-05  1.496315e-08
    537    540   2   0.50000     0.0600000    0.0600000   6.128906e-05  1.496315e-08
    538    516   2   0.50000     0.0600000   -0.0600000   2.494471e-04  1.671101e-07
    538    539   2   0.50000     0.0600000    0.0600000   6.128906e-05  1.496315e-08
    538    540   2   0.50000     0.0600000    0.0600000   6.128906e-05  1.496315e-08
    514    517   2   0.50000    -0.1200000    0.1900000   1.015252e-03  1.866303e-06
    514    541   2   0.50000    -0.1200000    0.0600000   2.494471e-04  1.671101e-07
    539    509   2   0.50000     0.0600000   -0.1200000   2.494471e-04  1.671101e-07
    539    517   2   0.50000     0.0600000    0.1900000   2.494471e-04  1.671101e-07
    539    541   2   0.50000     0.0600000    0.0600000   6.128906e-05  1.496315e-08
    540    509   2   0.50000     0.0600000   -0.1200000   2.494471e-04  1.671101e-07
    540    517   2   0.50000     0.0600000    0.1900000   2.494471e-04  1.671101e-07
    540    541   2   0.50000     0.0600000    0.0600000   6.128906e-05  1.496315e-08
    509    518   2   0.50000    -0.1200000   -0.3300000   1.026091e-03  1.187829e-06
    509    542   2   0.50000    -0.1200000    0.0300000   1.599888e-04  9.721644e-08
    509    543   2   0.50000    -0.1200000    0.0300000   1.599888e-04  9.721644e-08
    515    518   2   0.50000    -0.1200000   -0.3300000   1.026091e-03  1.187829e-06
    515    542   2   0.50000    -0.1200000    0.0300000   1.599888e-04  9.721644e-08
    515    543   2   0.50000    -0.1200000    0.0300000   1.599888e-04  9.721644e-08
    541    518   2   0.50000     0.0600000   -0.3300000   2.521103e-04  1.063590e-07
    541    542   2   0.50000     0.0600000    0.0300000   3.930919e-05  8.704828e-09
    541    543   2   0.50000     0.0600000    0.0300000   3.930919e-05  8.704828e-09
    516    519   2   0.50000    -0.0600000    0.6250000   1.575021e-03  3.561100e-06
    542    519   2   0.50000     0.0300000    0.6250000   2.482000e-04  1.854991e-07
    543    519   2   0.50000     0.0300000    0.6250000   2.482000e-04  1.854991e-07
    517    520   2   0.50000     0.1900000   -0.4300000   1.095425e-03  1.218041e-06
    517    521   2   0.50000     0.1900000   -0.1150000   1.091018e-03  2.092768e-06
    518    522   2   0.50000    -0.3300000   -0.1150000   1.102666e-03  1.331965e-06
    518    529   2   0.50000    -0.3300000   -0.1150000   1.102666e-03  1.331965e-06
    520    522   2   0.50000    -0.4300000   -0.1150000   1.177174e-03  1.365843e-06
    520    529   2   0.50000    -0.4300000   -0.1150000   1.177174e-03  1.365843e-06
    519    523   2   0.50000     0.6250000   -0.1150000   1.692561e-03  3.993218e-06
    519    544   2   0.50000     0.6250000    0.1150000   3.510079e-04  2.623353e-07
    529    523   2   0.50000    -0.1150000   -0.1150000   1.172438e-03  2.346713e-06
    529    544   2   0.50000    -0.1150000    0.1150000   2.431434e-04  1.541678e-07
    519    528   2   0.50000     0.6250000   -0.1150000   1.692561e-03  3.993218e-06
    519    547   2   0.50000     0.6250000    0.1150000   3.510079e-04  2.623353e-07
    522    528   2   0.50000    -0.1150000   -0.1150000   1.172438e-03  2.346713e-06
    522    547   2   0.50000    -0.1150000    0.1150000   2.431434e-04  1.541678e-07
    521    524   2   0.50000    -0.1150000   -0.1150000   1.172438e-03  2.346713e-06
    521    545   2   0.50000    -0.1150000    0.1150000   2.431434e-04  1.541678e-07
    544    524   2   0.50000     0.1150000   -0.1150000   2.431434e-04  1.541678e-07
    544    545   2   0.50000     0.1150000    0.1150000   5.042375e-05  1.012808e-08
    522    525   2   0.50000    -0.1150000    0.6250000   1.692561e-03  3.993218e-06
    545    525   2   0.50000     0.1150000    0.6250000   3.510079e-04  2.623353e-07
    545    528   2   0.50000     0.1150000   -0.1150000   2.431434e-04  1.541678e-07
    523    526   2   0.50000    -0.1150000   -0.4300000   1.177174e-03  1.365843e-06
    523    527   2   0.50000    -0.1150000   -0.0800000   1.102666e-03  1.331965e-06
    528    526   2   0.50000    -0.1150000   -0.4300000   1.177174e-03  1.365843e-06
    528    527   2   0.50000    -0.1150000   -0.0800000   1.102666e-03  1.331965e-06
    523    546   2   0.50000    -0.1150000    0.1150000   2.431434e-04  1.541678e-07
    525    529   2   0.50000     0.6250000   -0.1150000   1.692561e-03  3.993218e-06
    525    546   2   0.50000     0.6250000    0.1150000   3.510079e-04  2.623353e-07
    524    552   2   0.50000    -0.1150000   -0.2000000   9.038862e-04  9.862632e-07
    526    552   2   0.50000    -0.4300000   -0.2000000   9.075373e-04  5.740287e-07
    525    551   2   0.50000     0.6250000    0.0800000   1.575021e-03  3.561100e-06
    524    547   2   0.50000    -0.1150000    0.1150000   2.431434e-04  1.541678e-07
    546    521   2   0.50000     0.1150000   -0.1150000   2.431434e-04  1.541678e-07
    546    547   2   0.50000     0.1150000    0.1150000   5.042375e-05  1.012808e-08
    555    550   2   0.50000    -0.0600000   -0.0600000   1.015252e-03  1.866303e-06
    555    571   2   0.50000    -0.0600000    0.0600000   2.494471e-04  1.671101e-07
    555    572   2   0.50000    -0.0600000    0.0600000   2.494471e-04  1.671101e-07
    569    550   2   0.50000     0.0600000   -0.0600000   2.494471e-04  1.671101e-07
    569    571   2   0.50000     0.0600000    0.0600000   6.128906e-05  1.496315e-08
    569    572   2   0.50000     0.0600000    0.0600000   6.128906e-05  1.496315e-08
    570    550   2   0.50000     0.0600000   -0.0600000   2.494471e-04  1.671101e-07
    570    571   2   0.50000     0.0600000    0.0600000   6.128906e-05  1.496315e-08
    570    572   2   0.50000     0.0600000    0.0600000   6.128906e-05  1.496315e-08
    549    554   2   0.50000    -0.1200000   -0.1200000   1.015252e-03  1.866303e-06
    549    556   2   0.50000    -0.1200000    0.1900000   1.015252e-03  1.866303e-06
    549    580   2   0.50000    -0.1200000    0.0600000   2.494471e-04  1.671101e-07
    569    554   2   0.50000     0.0600000   -0.1200000   2.494471e-04  1.671101e-07
    569    556   2   0.50000     0.0600000    0.1900000   2.494471e-04  1.671101e-07
    569    580   2   0.50000     0.0600000    0.0600000   6.128906e-05  1.496315e-08
    570    554   2   0.50000     0.0600000   -0.1200000   2.494471e-04  1.671101e-07
    570    556   2   0.50000     0.0600000    0.1900000   2.494471e-04  1.671101e-07
    570    580   2   0.50000     0.0600000    0.0600000   6.128906e-05  1.496315e-08
    548    551   2   0.50000    -0.1200000    0.0800000   1.015252e-03  1.866303e-06
    548    553   2   0.50000    -0.1200000   -0.1200000   1.015252e-03  1.866303e-06
    548    573   2   0.50000    -0.1200000    0.0600000   2.494471e-04  1.671101e-07
    571    551   2   0.50000     0.0600000    0.0800000   2.494471e-04  1.671101e-07
    571    553   2   0.50000     0.0600000   -0.1200000   2.494471e-04  1.671101e-07
    571    573   2   0.50000     0.0600000    0.0600000   6.128906e-05  1.496315e-08
    572    551   2   0.50000     0.0600000    0.0800000   2.494471e-04  1.671101e-07
    572    553   2   0.50000     0.0600000   -0.1200000   2.494471e-04  1.671101e-07
    572    573   2   0.50000     0.0600000    0.0600000   6.128906e-05  1.496315e-08
    549    552   2   0.50000    -0.1200000   -0.2000000   8.411158e-04  8.795366e-07
    549    574   2   0.50000    -0.1200000    0.0600000   2.494471e-04  1.671101e-07
    549    575   2   0.50000    -0.1200000    0.0600000   2.494471e-04  1.671101e-07
    553    552   2   0.50000    -0.1200000   -0.2000000   8.411158e-04  8.795366e-07
    553    574   2   0.50000    -0.1200000    0.0600000   2.494471e-04  1.671101e-07
    553    575   2   0.50000    -0.1200000    0.0600000   2.494471e-04  1.671101e-07
    573    552   2   0.50000     0.0600000   -0.2000000   2.066619e-04  7.875431e-08
    573    574   2   0.50000     0.0600000    0.0600000   6.128906e-05  1.496315e-08
    573    575   2   0.50000     0.0600000    0.0600000   6.128906e-05  1.496315e-08
    549    576   2   0.50000    -0.1200000    0.0600000   2.494471e-04  1.671101e-07
    549    577   2   0.50000    -0.1200000    0.0600000   2.494471e-04  1.671101e-07
    551    554   2   0.50000     0.0800000   -0.1200000   1.015252e-03  1.866303e-06
    551    576   2   0.50000     0.0800000    0.0600000   2.494471e-04  1.671101e-07
    551    577   2   0.50000     0.0800000    0.0600000   2.494471e-04  1.671101e-07
    573    554   2   0.50000     0.0600000   -0.1200000   2.494471e-04  1.671101e-07
    573    576   2   0.50000     0.0600000    0.0600000   6.128906e-05  1.496315e-08
    573    577   2   0.50000     0.0600000    0.0600000   6.128906e-05  1.496315e-08
    550    527   2   0.50000    -0.0600000   -0.0800000   1.026091e-03  1.187829e-06
    574    527   2   0.50000     0.0600000   -0.0800000   2.521103e-04  1.063590e-07
    575    527   2   0.50000     0.0600000   -0.0800000   2.521103e-04  1.063590e-07
    550    578   2   0.50000    -0.0600000    0.0600000   2.494471e-04  1.671101e-07
    550    579   2   0.50000    -0.0600000    0.0600000   2.494471e-04  1.671101e-07
    576    555   2   0.50000     0.0600000   -0.0600000   2.494471e-04  1.671101e-07
    576    578   2   0.50000     0.0600000    0.0600000   6.128906e-05  1.496315e-08
    576    579   2   0.50000     0.0600000    0.0600000   6.128906e-05  1.496315e-08
    577    555   2   0.50000     0.0600000   -0.0600000   2.494471e-04  1.671101e-07
    577    578   2   0.50000     0.0600000    0.0600000   6.128906e-05  1.496315e-08
    577    579   2   0.50000     0.0600000    0.0600000   6.128906e-05  1.496315e-08
    553    556   2   0.50000    -0.1200000    0.1900000   1.015252e-03  1.866303e-06
    553    580   2   0.50000    -0.1200000    0.0600000   2.494471e-04  1.671101e-07
    578    548   2   0.50000     0.0600000   -0.1200000   2.494471e-04  1.671101e-07
    578    556   2   0.50000     0.0600000    0.1900000   2.494471e-04  1.671101e-07
    578    580   2   0.50000     0.0600000    0.0600000   6.128906e-05  1.496315e-08
    579    548   2   0.50000     0.0600000   -0.1200000   2.494471e-04  1.671101e-07
    579    556   2   0.50000     0.0600000    0.1900000   2.494471e-04  1.671101e-07
    579    580   2   0.50000     0.0600000    0.0600000   6.128906e-05  1.496315e-08
    548    557   2   0.50000    -0.1200000   -0.3300000   1.026091e-03  1.187829e-06
    548    581   2   0.50000    -0.1200000    0.0300000   1.599888e-04  9.721644e-08
    548    582   2   0.50000    -0.1200000    0.0300000   1.599888e-04  9.721644e-08
    554    557   2   0.50000    -0.1200000   -0.3300000   1.026091e-03  1.187829e-06
    554    581   2   0.50000    -0.1200000    0.0300000   1.599888e-04  9.721644e-08
    554    582   2   0.50000    -0.1200000    0.0300000   1.599888e-04  9.721644e-08
    580    557   2   0.50000     0.0600000   -0.3300000   2.521103e-04  1.063590e-07
    580    581   2   0.50000     0.0600000    0.0300000   3.930919e-05  8.704828e-09
    580    582   2   0.50000     0.0600000    0.0300000   3.930919e-05  8.704828e-09
    555    558   2   0.50000    -0.0600000    0.6250000   1.575021e-03  3.561100e-06
    581    558   2   0.50000     0.0300000    0.6250000   2.482000e-04  1.854991e-07
    582    558   2   0.50000     0.0300000    0.6250000   2.482000e-04  1.854991e-07
    556    559   2   0.50000     0.1900000   -0.4300000   1.095425e-03  1.218041e-06
    556    560   2   0.50000     0.1900000   -0.1150000   1.091018e-03  2.092768e-06
    557    561   2   0.50000    -0.3300000   -0.1150000   1.102666e-03  1.331965e-06
    557    568   2   0.50000    -0.3300000   -0.1150000   1.102666e-03  1.331965e-06
    559    561   2   0.50000    -0.4300000   -0.1150000   1.177174e-03  1.365843e-06
    559    568   2   0.50000    -0.4300000   -0.1150000   1.177174e-03  1.365843e-06
    558    562   2   0.50000     0.6250000   -0.1150000   1.692561e-03  3.993218e-06
    558    583   2   0.50000     0.6250000    0.1150000   3.510079e-04  2.623353e-07
    568    562   2   0.50000    -0.1150000   -0.1150000   1.172438e-03  2.346713e-06
    568    583   2   0.50000    -0.1150000    0.1150000   2.431434e-04  1.541678e-07
    558    567   2   0.50000     0.6250000   -0.1150000   1.692561e-03  3.993218e-06
    558    586   2   0.50000     0.6250000    0.1150000   3.510079e-04  2.623353e-07
    561    567   2   0.50000    -0.1150000   -0.1150000   1.172438e-03  2.346713e-06
    561    586   2   0.50000    -0.1150000    0.1150000   2.431434e-04  1.541678e-07
    560    563   2   0.50000    -0.1150000   -0.1150000   1.172438e-03  2.346713e-06
    560    584   2   0.50000    -0.1150000    0.1150000   2.431434e-04  1.541678e-07
    583    563   2   0.50000     0.1150000   -0.1150000   2.431434e-04  1.541678e-07
    583    584   2   0.50000     0.1150000    0.1150000   5.042375e-05  1.012808e-08
    561    564   2   0.50000    -0.1150000    0.6250000   1.692561e-03  3.993218e-06
    584    564   2   0.50000     0.1150000    0.6250000   3.510079e-04  2.623353e-07
    584    567   2   0.50000     0.1150000   -0.1150000   2.431434e-04  1.541678e-07
    562    565   2   0.50000    -0.1150000   -0.4300000   1.177174e-03  1.365843e-06
    562    566   2   0.50000    -0.1150000   -0.0800000   1.102666e-03  1.331965e-06
    567    565   2   0.50000    -0.1150000   -0.4300000   1.177174e-03  1.365843e-06
    567    566   2   0.50000    -0.1150000   -0.0800000   1.102666e-03  1.331965e-06
    562    585   2   0.50000    -0.1150000    0.1150000   2.431434e-04  1.541678e-07
    564    568   2   0.50000     0.6250000   -0.1150000   1.692561e-03  3.993218e-06
    564    585   2   0.50000     0.6250000    0.1150000   3.510079e-04  2.623353e-07
    563    591   2   0.50000    -0.1150000   -0.2000000   9.038862e-04  9.862632e-07
    565    591   2   0.50000    -0.4300000   -0.2000000   9.075373e-04  5.740287e-07
    564    590   2   0.50000     0.6250000    0.0800000   1.575021e-03  3.561100e-06
    563    586   2   0.50000    -0.1150000    0.1150000   2.431434e-04  1.541678e-07
    585    560   2   0.50000     0.1150000   -0.1150000   2.431434e-04  1.541678e-07
    585    586   2   0.50000     0.1150000    0.1150000   5.042375e-05  1.012808e-08
    594    589   2   0.50000    -0.0600000   -0.0600000   1.015252e-03  1.866303e-06
    594    610   2   0.50000    -0.0600000    0.0600000   2.494471e-04  1.671101e-07
    594    611   2   0.50000    -0.0600000    0.0600000   2.494471e-04  1.671101e-07
    608    589   2   0.50000     0.0600000   -0.0600000   2.494471e-04  1.671101e-07
    608    610   2   0.50000     0.0600000    0.0600000   6.128906e-05  1.496315e-08
    608    611   2   0.50000     0.0600000    0.0600000   6.128906e-05  1.496315e-08
    609    589   2   0.50000     0.0600000   -0.0600000   2.494471e-04  1.671101e-07
    609    610   2   0.50000     0.0600000    0.0600000   6.128906e-05  1.496315e-08
    609    611   2   0.50000     0.0600000    0.0600000   6.128906e-05  1.496315e-08
    588    593   2   0.50000    -0.1200000   -0.1200000   1.015252e-03  1.866303e-06
    588    595   2   0.50000    -0.1200000    0.1900000   1.015252e-03  1.866303e-06
    588    619   2   0.50000    -0.1200000    0.0600000   2.494471e-04  1.671101e-07
    608    593   2   0.50000     0.0600000   -0.1200000   2.494471e-04  1.671101e-07
    608    595   2   0.50000     0.0600000    0.1900000   2.494471e-04  1.671101e-07
    608    619   2   0.50000     0.0600000    0.0600000   6.128906e-05  1.496315e-08
    609    593   2   0.50000     0.0600000   -0.1200000   2.494471e-04  1.671101e-07
    609    595   2   0.50000     0.0600000    0.1900000   2.494471e-04  1.671101e-07
    609    619   2   0.50000     0.0600000    0.0600000   6.128906e-05  1.496315e-08
    587    590   2   0.50000    -0.1200000    0.0800000   1.015252e-03  1.866303e-06
    587    592   2   0.50000    -0.1200000   -0.1200000   1.015252e-03  1.866303e-06
    587    612   2   0.50000    -0.1200000    0.0600000   2.494471e-04  1.671101e-07
    610    590   2   0.50000     0.0600000    0.0800000   2.494471e-04  1.671101e-07
    610    592   2   0.50000     0.0600000   -0.1200000   2.494471e-04  1.671101e-07
    610    612   2   0.50000     0.0600000    0.0600000   6.128906e-05  1.496315e-08
    611    590   2   0.50000     0.0600000    0.0800000   2.494471e-04  1.671101e-07
    611    592   2   0.50000     0.0600000   -0.1200000   2.494471e-04  1.671101e-07
    611    612   2   0.50000     0.0600000    0.0600000   6.128906e-05  1.496315e-08
    588    591   2   0.50000    -0.1200000   -0.2000000   8.411158e-04  8.795366e-07
    588    613   2   0.50000    -0.1200000    0.0600000   2.494471e-04  1.671101e-07
    588    614   2   0.50000    -0.1200000    0.0600000   2.494471e-04  1.671101e-07
    592    591   2   0.50000    -0.1200000   -0.2000000   8.411158e-04  8.795366e-07
    592    613   2   0.50000    -0.1200000    0.0600000   2.494471e-04  1.671101e-07
    592    614   2   0.50000    -0.1200000    0.0600000   2.494471e-04  1.671101e-07
    612    591   2   0.50000     0.0600000   -0.2000000   2.066619e-04  7.875431e-08
    612    613   2   0.50000     0.0600000    0.0600000   6.128906e-05  1.496315e-08
    612    614   2   0.50000     0.0600000    0.0600000   6.128906e-05  1.496315e-08
    588    615   2   0.50000    -0.1200000    0.0600000   2.494471e-04  1.671101e-07
    588    616   2   0.50000    -0.1200000    0.0600000   2.494471e-04  1.671101e-07
    590    593   2   0.50000     0.0800000   -0.1200000   1.015252e-03  1.866303e-06
    590    615   2   0.50000     0.0800000    0.0600000   2.494471e-04  1.671101e-07
    590    616   2   0.50000     0.0800000    0.0600000   2.494471e-04  1.671101e-07
    612    593   2   0.50000     0.0600000   -0.1200000   2.494471e-04  1.671101e-07
    612    615   2   0.50000     0.0600000    0.0600000   6.128906e-05  1.496315e-08
    612    616   2   0.50000     0.0600000    0.0600000   6.128906e-05  1.496315e-08
    589    566   2   0.50000    -0.0600000   -0.0800000   1.026091e-03  1.187829e-06
    613    566   2   0.50000     0.0600000   -0.0800000   2.521103e-04  1.063590e-07
    614    566   2   0.50000     0.0600000   -0.0800000   2.521103e-04  1.063590e-07
    589    617   2   0.50000    -0.0600000    0.0600000   2.494471e-04  1.671101e-07
    589    618   2   0.50000    -0.0600000    0.0600000   2.494471e-04  1.671101e-07
    615    594   2   0.50000     0.0600000   -0.0600000   2.494471e-04  1.671101e-07
    615    617   2   0.50000     0.0600000    0.0600000   6.128906e-05  1.496315e-08
    615    618   2   0.50000     0.0600000    0.0600000   6.128906e-05  1.496315e-08
    616    594   2   0.50000     0.0600000   -0.0600000   2.494471e-04  1.671101e-07
    616    617   2   0.50000     0.0600000    0.0600000   6.128906e-05  1.496315e-08
    616    618   2   0.50000     0.0600000    0.0600000   6.128906e-05  1.496315e-08
    592    595   2   0.50000    -0.1200000    0.1900000   1.015252e-03  1.866303e-06
    592    619   2   0.50000    -0.1200000    0.0600000   2.494471e-04  1.671101e-07
    617    587   2   0.50000     0.0600000   -0.1200000   2.494471e-04  1.671101e-07
    617    595   2   0.50000     0.0600000    0.1900000   2.494471e-04  1.671101e-07
    617    619   2   0.50000     0.0600000    0.0600000   6.128906e-05  1.496315e-08
    618    587   2   0.50000     0.0600000   -0.1200000   2.494471e-04  1.671101e-07
    618    595   2   0.50000     0.0600000    0.1900000   2.494471e-04  1.671101e-07
    618    619   2   0.50000     0.0600000    0.0600000   6.128906e-05  1.496315e-08
    587    596   2   0.50000    -0.1200000   -0.3300000   1.026091e-03  1.187829e-06
    587    620   2   0.50000    -0.1200000    0.0300000   1.599888e-04  9.721644e-08
    587    621   2   0.50000    -0.1200000    0.0300000   1.599888e-04  9.721644e-08
    593    596   2   0.50000    -0.1200000   -0.3300000   1.026091e-03  1.187829e-06
    593    620   2   0.50000    -0.1200000    0.0300000   1.599888e-04  9.721644e-08
    593    621   2   0.50000    -0.1200000    0.0300000   1.599888e-04  9.721644e-08
    619    596   2   0.50000     0.0600000   -0.3300000   2.521103e-04  1.063590e-07
    619    620   2   0.50000     0.0600000    0.0300000   3.930919e-05  8.704828e-09
    619    621   2   0.50000     0.0600000    0.0300000   3.930919e-05  8.704828e-09
    594    597   2   0.50000    -0.0600000    0.6250000   1.575021e-03  3.561100e-06
    620    597   2   0.50000     0.0300000    0.6250000   2.482000e-04  1.854991e-07
    621    597   2   0.50000     0.0300000    0.6250000   2.482000e-04  1.854991e-07
    595    598   2   0.50000     0.1900000   -0.4300000   1.095425e-03  1.218041e-06
    595    599   2   0.50000     0.1900000   -0.1150000   1.091018e-03  2.092768e-06
    596    600   2   0.50000    -0.3300000   -0.1150000   1.102666e-03  1.331965e-06
    596    607   2   0.50000    -0.3300000   -0.1150000   1.102666e-03  1.331965e-06
    598    600   2   0.50000    -0.4300000   -0.1150000   1.177174e-03  1.365843e-06
    598    607   2   0.50000    -0.4300000   -0.1150000   1.177174e-03  1.365843e-06
    597    601   2   0.50000     0.6250000   -0.1150000   1.692561e-03  3.993218e-06
    597    622   2   0.50000     0.6250000    0.1150000   3.510079e-04  2.623353e-07
    607    601   2   0.50000    -0.1150000   -0.1150000   1.172438e-03  2.346713e-06
    607    622   2   0.50000    -0.1150000    0.1150000   2.431434e-04  1.541678e-07
    597    606   2   0.50000     0.6250000   -0.1150000   1.692561e-03  3.993218e-06
    597    625   2   0.50000     0.6250000    0.1150000   3.510079e-04  2.623353e-07
    600    606   2   0.50000    -0.1150000   -0.1150000   1.172438e-03  2.346713e-06
    600    625   2   0.50000    -0.1150000    0.1150000   2.431434e-04  1.541678e-07
    599    602   2   0.50000    -0.1150000   -0.1150000   1.172438e-03  2.346713e-06
    599    623   2   0.50000    -0.1150000    0.1150000   2.431434e-04  1.541678e-07
    622    602   2   0.50000     0.1150000   -0.1150000   2.431434e-04  1.541678e-07
    622    623   2   0.50000     0.1150000    0.1150000   5.042375e-05  1.012808e-08
    600    603   2   0.50000    -0.1150000    0.6250000   1.692561e-03  3.993218e-06
    623    603   2   0.50000     0.1150000    0.6250000   3.510079e-04  2.623353e-07
    623    606   2   0.50000     0.1150000   -0.1150000   2.431434e-04  1.541678e-07
    601    604   2   0.50000    -0.1150000   -0.4300000   1.177174e-03  1.365843e-06
    601    605   2   0.50000    -0.1150000   -0.0800000   1.102666e-03  1.331965e-06
    606    604   2   0.50000    -0.1150000   -0.4300000   1.177174e-03  1.365843e-06
    606    605   2   0.50000    -0.1150000   -0.0800000   1.102666e-03  1.331965e-06
    601    624   2   0.50000    -0.1150000    0.1150000   2.431434e-04  1.541678e-07
    603    607   2   0.50000     0.6250000   -0.1150000   1.692561e-03  3.993218e-06
    603    624   2   0.50000     0.6250000    0.1150000   3.510079e-04  2.623353e-07
    602    630   2   0.50000    -0.1150000   -0.2000000   9.038862e-04  9.862632e-07
    604    630   2   0.50000    -0.4300000   -0.2000000   9.075373e-04  5.740287e-07
    603    629   2   0.50000     0.6250000    0.0800000   1.575021e-03  3.561100e-06
    602    625   2   0.50000    -0.1150000    0.1150000   2.431434e-04  1.541678e-07
    624    599   2   0.50000     0.1150000   -0.1150000   2.431434e-04  1.541678e-07
    624    625   2   0.50000     0.1150000    0.1150000   5.042375e-05  1.012808e-08
    633    628   2   0.50000    -0.0600000   -0.0600000   1.015252e-03  1.866303e-06
    633    649   2   0.50000    -0.0600000    0.0600000   2.494471e-04  1.671101e-07
    633    650   2   0.50000    -0.0600000    0.0600000   2.494471e-04  1.671101e-07
    647    628   2   0.50000     0.0600000   -0.0600000   2.494471e-04  1.671101e-07
    647    649   2   0.50000     0.0600000    0.0600000   6.128906e-05  1.496315e-08
    647    650   2   0.50000     0.0600000    0.0600000   6.128906e-05  1.496315e-08
    648    628   2   0.50000     0.0600000   -0.0600000   2.494471e-04  1.671101e-07
    648    649   2   0.50000     0.0600000    0.0600000   6.128906e-05  1.496315e-08
    648    650   2   0.50000     0.0600000    0.0600000   6.128906e-05  1.496315e-08
    627    632   2   0.50000    -0.1200000   -0.1200000   1.015252e-03  1.866303e-06
    627    634   2   0.50000    -0.1200000    0.1900000   1.015252e-03  1.866303e-06
    627    658   2   0.50000    -0.1200000    0.0600000   2.494471e-04  1.671101e-07
    647    632   2   0.50000     0.0600000   -0.1200000   2.494471e-04  1.671101e-07
    647    634   2   0.50000     0.0600000    0.1900000   2.494471e-04  1.671101e-07
    647    658   2   0.50000     0.0600000    0.0600000   6.128906e-05  1.496315e-08
    648    632   2   0.50000     0.0600000   -0.1200000   2.494471e-04  1.671101e-07
    648    634   2   0.50000     0.0600000    0.1900000   2.494471e-04  1.671101e-07
    648    658   2   0.50000     0.0600000    0.0600000   6.128906e-05  1.496315e-08
    626    629   2   0.50000    -0.1200000    0.0800000   1.015252e-03  1.866303e-06
    626    631   2   0.50000    -0.1200000   -0.1200000   1.015252e-03  1.866303e-06
    626    651   2   0.50000    -0.1200000    0.0600000   2.494471e-04  1.671101e-07
    649    629   2   0.50000     0.0600000    0.0800000   2.494471e-04  1.671101e-07
    649    631   2   0.50000     0.0600000   -0.1200000   2.494471e-04  1.671101e-07
    649    651   2   0.50000     0.0600000    0.0600000   6.128906e-05  1.496315e-08
    650    629   2   0.50000     0.0600000    0.0800000   2.494471e-04  1.671101e-07
    650    631   2   0.50000     0.0600000   -0.1200000   2.494471e-04  1.671101e-07
    650    651   2   0.50000     0.0600000    0.0600000   6.128906e-05  1.496315e-08
    627    630   2   0.50000    -0.1200000   -0.2000000   8.411158e-04  8.795366e-07
    627    652   2   0.50000    -0.1200000    0.0600000   2.494471e-04  1.671101e-07
    627    653   2   0.50000    -0.1200000    0.0600000   2.494471e-04  1.671101e-07
    631    630   2   0.50000    -0.1200000   -0.2000000   8.411158e-04  8.795366e-07
    631    652   2   0.50000    -0.1200000    0.0600000   2.494471e-04  1.671101e-07
    631    653   2   0.50000    -0.1200000    0.0600000   2.494471e-04  1.671101e-07
    651    630   2   0.50000     0.0600000   -0.2000000   2.066619e-04  7.875431e-08
    651    652   2   0.50000     0.0600000    0.0600000   6.128906e-05  1.496315e-08
    651    653   2   0.50000     0.0600000    0.0600000   6.128906e-05  1.496315e-08
    627    654   2   0.50000    -0.1200000    0.0600000   2.494471e-04  1.671101e-07
    627    655   2   0.50000    -0.1200000    0.0600000   2.494471e-04  1.671101e-07
    629    632   2   0.50000     0.0800000   -0.1200000   1.015252e-03  1.866303e-06
    629    654   2   0.50000     0.0800000    0.0600000   2.494471e-04  1.671101e-07
    629    655   2   0.50000     0.0800000    0.0600000   2.494471e-04  1.671101e-07
    651    632   2   0.50000     0.0600000   -0.1200000   2.494471e-04  1.671101e-07
    651    654   2   0.50000     0.0600000    0.0600000   6.128906e-05  1.496315e-08
    651    655   2   0.50000     0.0600000    0.0600000   6.128906e-05  1.496315e-08
    628    605   2   0.50000    -0.0600000   -0.0800000   1.026091e-03  1.187829e-06
    652    605   2   0.50000     0.0600000   -0.0800000   2.521103e-04  1.063590e-07
    653    605   2   0.50000     0.0600000   -0.0800000   2.521103e-04  1.063590e-07
    628    656   2   0.50000    -0.0600000    0.0600000   2.494471e-04  1.671101e-07
    628    657   2   0.50000    -0.0600000    0.0600000   2.494471e-04  1.671101e-07
    654    633   2   0.50000     0.0600000   -0.0600000   2.494471e-04  1.671101e-07
    654    656   2   0.50000     0.0600000    0.0600000   6.128906e-05  1.496315e-08
    654    657   2   0.50000     0.0600000    0.0600000   6.128906e-05  1.496315e-08
    655    633   2   0.50000     0.0600000   -0.0600000   2.494471e-04  1.671101e-07
    655    656   2   0.50000     0.0600000    0.0600000   6.128906e-05  1.496315e-08
    655    657   2   0.50000     0.0600000    0.0600000   6.128906e-05  1.496315e-08
    631    634   2   0.50000    -0.1200000    0.1900000   1.015252e-03  1.866303e-06
    631    658   2   0.50000    -0.1200000    0.0600000   2.494471e-04  1.671101e-07
    656    626   2   0.50000     0.0600000   -0.1200000   2.494471e-04  1.671101e-07
    656    634   2   0.50000     0.0600000    0.1900000   2.494471e-04  1.671101e-07
    656    658   2   0.50000     0.0600000    0.0600000   6.128906e-05  1.496315e-08
    657    626   2   0.50000     0.0600000   -0.1200000   2.494471e-04  1.671101e-07
    657    634   2   0.50000     0.0600000    0.1900000   2.494471e-04  1.671101e-07
    657    658   2   0.50000     0.0600000    0.0600000   6.128906e-05  1.496315e-08
    626    635   2   0.50000    -0.1200000   -0.3300000   1.026091e-03  1.187829e-06
    626    659   2   0.50000    -0.1200000    0.0300000   1.599888e-04  9.721644e-08
    626    660   2   0.50000    -0.1200000    0.0300000   1.599888e-04  9.721644e-08
    632    635   2   0.50000    -0.1200000   -0.3300000   1.026091e-03  1.187829e-06
    632    659   2   0.50000    -0.1200000    0.0300000   1.599888e-04  9.721644e-08
    632    660   2   0.50000    -0.1200000    0.0300000   1.599888e-04  9.721644e-08
    658    635   2   0.50000     0.0600000   -0.3300000   2.521103e-04  1.063590e-07
    658    659   2   0.50000     0.0600000    0.0300000   3.930919e-05  8.704828e-09
    658    660   2   0.50000     0.0600000    0.0300000   3.930919e-05  8.704828e-09
    633    636   2   0.50000    -0.0600000    0.6250000   1.575021e-03  3.561100e-06
    659    636   2   0.50000     0.0300000    0.6250000   2.482000e-04  1.854991e-07
    660    636   2   0.50000     0.0300000    0.6250000   2.482000e-04  1.854991e-07
    634    637   2   0.50000     0.1900000   -0.4300000   1.095425e-03  1.218041e-06
    634    638   2   0.50000     0.1900000   -0.1150000   1.091018e-03  2.092768e-06
    635    639   2   0.50000    -0.3300000   -0.1150000   1.102666e-03  1.331965e-06
    635    646   2   0.50000    -0.3300000   -0.1150000   1.102666e-03  1.331965e-06
    637    639   2   0.50000    -0.4300000   -0.1150000   1.177174e-03  1.365843e-06
    637    646   2   0.50000    -0.4300000   -0.1150000   1.177174e-03  1.365843e-06
    636    640   2   0.50000     0.6250000   -0.1150000   1.692561e-03  3.993218e-06
    636    661   2   0.50000     0.6250000    0.1150000   3.510079e-04  2.623353e-07
    646    640   2   0.50000    -0.1150000   -0.1150000   1.172438e-03  2.346713e-06
    646    661   2   0.50000    -0.1150000    0.1150000   2.431434e-04  1.541678e-07
    636    645   2   0.50000     0.6250000   -0.1150000   1.692561e-03  3.993218e-06
    636    664   2   0.50000     0.6250000    0.1150000   3.510079e-04  2.623353e-07
    639    645   2   0.50000    -0.1150000   -0.1150000   1.172438e-03  2.346713e-06
    639    664   2   0.50000    -0.1150000    0.1150000   2.431434e-04  1.541678e-07
    638    641   2   0.50000    -0.1150000   -0.1150000   1.172438e-03  2.346713e-06
    638    662   2   0.50000    -0.1150000    0.1150000   2.431434e-04  1.541678e-07
    661    641   2   0.50000     0.1150000   -0.1150000   2.431434e-04  1.541678e-07
    661    662   2   0.50000     0.1150000    0.1150000   5.042375e-05  1.012808e-08
    639    642   2   0.50000    -0.1150000    0.6250000   1.692561e-03  3.993218e-06
    662    642   2   0.50000     0.1150000    0.6250000   3.510079e-04  2.623353e-07
    662    645   2   0.50000     0.1150000   -0.1150000   2.431434e-04  1.541678e-07
    640    643   2   0.50000    -0.1150000   -0.4300000   1.177174e-03  1.365843e-06
    640    644   2   0.50000    -0.1150000   -0.0800000   1.102666e-03  1.331965e-06
    645    643   2   0.50000    -0.1150000   -0.4300000   1.177174e-03  1.365843e-06
    645    644   2   0.50000    -0.1150000   -0.0800000   1.102666e-03  1.331965e-06
    640    663   2   0.50000    -0.1150000    0.1150000   2.431434e-04  1.541678e-07
    642    646   2   0.50000     0.6250000   -0.1150000   1.692561e-03  3.993218e-06
    642    663   2   0.50000     0.6250000    0.1150000   3.510079e-04  2.623353e-07
    641    669   2   0.50000    -0.1150000   -0.2000000   9.038862e-04  9.862632e-07
    643    669   2   0.50000    -0.4300000   -0.2000000   9.075373e-04  5.740287e-07
    642    668   2   0.50000     0.6250000    0.0800000   1.575021e-03  3.561100e-06
    641    664   2   0.50000    -0.1150000    0.1150000   2.431434e-04  1.541678e-07
    663    638   2   0.50000     0.1150000   -0.1150000   2.431434e-04  1.541678e-07
    663    664   2   0.50000     0.1150000    0.1150000   5.042375e-05  1.012808e-08
    672    667   2   0.50000    -0.0600000   -0.0600000   1.015252e-03  1.866303e-06
    672    688   2   0.50000    -0.0600000    0.0600000   2.494471e-04  1.671101e-07
    672    689   2   0.50000    -0.0600000    0.0600000   2.494471e-04  1.671101e-07
    686    667   2   0.50000     0.0600000   -0.0600000   2.494471e-04  1.671101e-07
    686    688   2   0.50000     0.0600000    0.0600000   6.128906e-05  1.496315e-08
    686    689   2   0.50000     0.0600000    0.0600000   6.128906e-05  1.496315e-08
    687    667   2   0.50000     0.0600000   -0.0600000   2.494471e-04  1.671101e-07
    687    688   2   0.50000     0.0600000    0.0600000   6.128906e-05  1.496315e-08
    687    689   2   0.50000     0.0600000    0.0600000   6.128906e-05  1.496315e-08
    666    671   2   0.50000    -0.1200000   -0.1200000   1.015252e-03  1.866303e-06
    666    673   2   0.50000    -0.1200000    0.1900000   1.015252e-03  1.866303e-06
    666    697   2   0.50000    -0.1200000    0.0600000   2.494471e-04  1.671101e-07
    686    671   2   0.50000     0.0600000   -0.1200000   2.494471e-04  1.671101e-07
    686    673   2   0.50000     0.0600000    0.1900000   2.494471e-04  1.671101e-07
    686    697   2   0.50000     0.0600000    0.0600000   6.128906e-05  1.496315e-08
    687    671   2   0.50000     0.0600000   -0.1200000   2.494471e-04  1.671101e-07
    687    673   2   0.50000     0.0600000    0.1900000   2.494471e-04  1.671101e-07
    687    697   2   0.50000     0.0600000    0.0600000   6.128906e-05  1.496315e-08
    665    668   2   0.50000    -0.1200000    0.0800000   1.015252e-03  1.866303e-06
    665    670   2   0.50000    -0.1200000   -0.1200000   1.015252e-03  1.866303e-06
    665    690   2   0.50000    -0.1200000    0.0600000   2.494471e-04  1.671101e-07
    688    668   2   0.50000     0.0600000    0.0800000   2.494471e-04  1.671101e-07
    688    670   2   0.50000     0.0600000   -0.1200000   2.494471e-04  1.671101e-07
    688    690   2   0.50000     0.0600000    0.0600000   6.128906e-05  1.496315e-08
    689    668   2   0.50000     0.0600000    0.0800000   2.494471e-04  1.671101e-07
    689    670   2   0.50000     0.0600000   -0.1200000   2.494471e-04  1.671101e-07
    689    690   2   0.50000     0.0600000    0.0600000   6.128906e-05  1.496315e-08
    666    669   2   0.50000    -0.1200000   -0.2000000   8.411158e-04  8.795366e-07
    666    691   2   0.50000    -0.1200000    0.0600000   2.494471e-04  1.671101e-07
    666    692   2   0.50000    -0.1200000    0.0600000   2.494471e-04  1.671101e-07
    670    669   2   0.50000    -0.1200000   -0.2000000   8.411158e-04  8.795366e-07
    670    691   2   0.50000    -0.1200000    0.0600000   2.494471e-04  1.671101e-07
    670    692   2   0.50000    -0.1200000    0.0600000   2.494471e-04  1.671101e-07
    690    669   2   0.50000     0.0600000   -0.2000000   2.066619e-04  7.875431e-08
    690    691   2   0.50000     0.0600000    0.0600000   6.128906e-05  1.496315e-08
    690    692   2   0.50000     0.0600000    0.0600000   6.128906e-05  1.496315e-08
    666    693   2   0.50000    -0.1200000    0.0600000   2.494471e-04  1.671101e-07
    666    694   2   0.50000    -0.1200000    0.0600000   2.494471e-04  1.671101e-07
    668    671   2   0.50000     0.0800000   -0.1200000   1.015252e-03  1.866303e-06
    668    693   2   0.50000     0.0800000    0.0600000   2.494471e-04  1.671101e-07
    668    694   2   0.50000     0.0800000    0.0600000   2.494471e-04  1.671101e-07
    690    671   2   0.50000     0.0600000   -0.1200000   2.494471e-04  1.671101e-07
    690    693   2   0.50000     0.0600000    0.0600000   6.128906e-05  1.496315e-08
    690    694   2   0.50000     0.0600000    0.0600000   6.128906e-05  1.496315e-08
    667    644   2   0.50000    -0.0600000   -0.0800000   1.026091e-03  1.187829e-06
    691    644   2   0.50000     0.0600000   -0.0800000   2.521103e-04  1.063590e-07
    692    644   2   0.50000     0.0600000   -0.0800000   2.521103e-04  1.063590e-07
    667    695   2   0.50000    -0.0600000    0.0600000   2.494471e-04  1.671101e-07
    667    696   2   0.50000    -0.0600000    0.0600000   2.494471e-04  1.671101e-07
    693    672   2   0.50000     0.0600000   -0.0600000   2.494471e-04  1.671101e-07
    693    695   2   0.50000     0.0600000    0.0600000   6.128906e-05  1.496315e-08
    693    696   2   0.50000     0.0600000    0.0600000   6.128906e-05  1.496315e-08
    694    672   2   0.50000     0.0600000   -0.0600000   2.494471e-04  1.671101e-07
    694    695   2   0.50000     0.0600000    0.0600000   6.128906e-05  1.496315e-08
    694    696   2   0.50000     0.0600000    0.0600000   6.128906e-05  1.496315e-08
    670    673   2   0.50000    -0.1200000    0.1900000   1.015252e-03  1.866303e-06
    670    697   2   0.50000    -0.1200000    0.0600000   2.494471e-04  1.671101e-07
    695    665   2   0.50000     0.0600000   -0.1200000   2.494471e-04  1.671101e-07
    695    673   2   0.50000     0.0600000    0.1900000   2.494471e-04  1.671101e-07
    695    697   2   0.50000     0.0600000    0.0600000   6.128906e-05  1.496315e-08
    696    665   2   0.50000     0.0600000   -0.1200000   2.494471e-04  1.671101e-07
    696    673   2   0.50000     0.0600000    0.1900000   2.494471e-04  1.671101e-07
    696    697   2   0.50000     0.0600000    0.0600000   6.128906e-05  1.496315e-08
    665    674   2   0.50000    -0.1200000   -0.3300000   1.026091e-03  1.187829e-06
    665    698   2   0.50000    -0.1200000    0.0300000   1.599888e-04  9.721644e-08
    665    699   2   0.50000    -0.1200000    0.0300000   1.599888e-04  9.721644e-08
    671    674   2   0.50000    -0.1200000   -0.3300000   1.026091e-03  1.187829e-06
    671    698   2   0.50000    -0.1200000    0.0300000   1.599888e-04  9.721644e-08
    671    699   2   0.50000    -0.1200000    0.0300000   1.599888e-04  9.721644e-08
    697    674   2   0.50000     0.0600000   -0.3300000   2.521103e-04  1.063590e-07
    697    698   2   0.50000     0.0600000    0.0300000   3.930919e-05  8.704828e-09
    697    699   2   0.50000     0.0600000    0.0300000   3.930919e-05  8.704828e-09
    672    675   2   0.50000    -0.0600000    0.6250000   1.575021e-03  3.561100e-06
    698    675   2   0.50000     0.0300000    0.6250000   2.482000e-04  1.854991e-07
    699    675   2   0.50000     0.0300000    0.6250000   2.482000e-04  1.854991e-07
    673    676   2   0.50000     0.1900000   -0.4300000   1.095425e-03  1.218041e-06
    673    677   2   0.50000     0.1900000   -0.1150000   1.091018e-03  2.092768e-06
    674    678   2   0.50000    -0.3300000   -0.1150000   1.102666e-03  1.331965e-06
    674    685   2   0.50000    -0.3300000   -0.1150000   1.102666e-03  1.331965e-06
    676    678   2   0.50000    -0.4300000   -0.1150000   1.177174e-03  1.365843e-06
    676    685   2   0.50000    -0.4300000   -0.1150000   1.177174e-03  1.365843e-06
    675    679   2   0.50000     0.6250000   -0.1150000   1.692561e-03  3.993218e-06
    675    700   2   0.50000     0.6250000    0.1150000   3.510079e-04  2.623353e-07
    685    679   2   0.50000    -0.1150000   -0.1150000   1.172438e-03  2.346713e-06
    685    700   2   0.50000    -0.1150000    0.1150000   2.431434e-04  1.541678e-07
    675    684   2   0.50000     0.6250000   -0.1150000   1.692561e-03  3.993218e-06
    675    703   2   0.50000     0.6250000    0.1150000   3.510079e-04  2.623353e-07
    678    684   2   0.50000    -0.1150000   -0.1150000   1.172438e-03  2.346713e-06
    678    703   2   0.50000    -0.1150000    0.1150000   2.431434e-04  1.541678e-07
    677    680   2   0.50000    -0.1150000   -0.1150000   1.172438e-03  2.346713e-06
    677    701   2   0.50000    -0.1150000    0.1150000   2.431434e-04  1.541678e-07
    700    680   2   0.50000     0.1150000   -0.1150000   2.431434e-04  1.541678e-07
    700    701   2   0.50000     0.1150000    0.1150000   5.042375e-05  1.012808e-08
    678    681   2   0.50000    -0.1150000    0.6250000   1.692561e-03  3.993218e-06
    701    681   2   0.50000     0.1150000    0.6250000   3.510079e-04  2.623353e-07
    701    684   2   0.50000     0.1150000   -0.1150000   2.431434e-04  1.541678e-07
    679    682   2   0.50000    -0.1150000   -0.4300000   1.177174e-03  1.365843e-06
    679    683   2   0.50000    -0.1150000   -0.0800000   1.102666e-03  1.331965e-06
    684    682   2   0.50000    -0.1150000   -0.4300000   1.177174e-03  1.365843e-06
    684    683   2   0.50000    -0.1150000   -0.0800000   1.102666e-03  1.331965e-06
    679    702   2   0.50000    -0.1150000    0.1150000   2.431434e-04  1.541678e-07
    681    685   2   0.50000     0.6250000   -0.1150000   1.692561e-03  3.993218e-06
    681    702   2   0.50000     0.6250000    0.1150000   3.510079e-04  2.623353e-07
    680    708   2   0.50000    -0.1150000   -0.2000000   9.038862e-04  9.862632e-07
    682    708   2   0.50000    -0.4300000   -0.2000000   9.075373e-04  5.740287e-07
    681    707   2   0.50000     0.6250000    0.0800000   1.575021e-03  3.561100e-06
    680    703   2   0.50000    -0.1150000    0.1150000   2.431434e-04  1.541678e-07
    702    677   2   0.50000     0.1150000   -0.1150000   2.431434e-04  1.541678e-07
    702    703   2   0.50000     0.1150000    0.1150000   5.042375e-05  1.012808e-08
    711    706   2   0.50000    -0.0600000   -0.0600000   1.015252e-03  1.866303e-06
    711    727   2   0.50000    -0.0600000    0.0600000   2.494471e-04  1.671101e-07
    711    728   2   0.50000    -0.0600000    0.0600000   2.494471e-04  1.671101e-07
    725    706   2   0.50000     0.0600000   -0.0600000   2.494471e-04  1.671101e-07
    725    727   2   0.50000     0.0600000    0.0600000   6.128906e-05  1.496315e-08
    725    728   2   0.50000     0.0600000    0.0600000   6.128906e-05  1.496315e-08
    726    706   2   0.50000     0.0600000   -0.0600000   2.494471e-04  1.671101e-07
    726    727   2   0.50000     0.0600000    0.0600000   6.128906e-05  1.496315e-08
    726    728   2   0.50000     0.0600000    0.0600000   6.128906e-05  1.496315e-08
    705    710   2   0.50000    -0.1200000   -0.1200000   1.015252e-03  1.866303e-06
    705    712   2   0.50000    -0.1200000    0.1900000   1.015252e-03  1.866303e-06
    705    736   2   0.50000    -0.1200000    0.0600000   2.494471e-04  1.671101e-07
    725    710   2   0.50000     0.0600000   -0.1200000   2.494471e-04  1.671101e-07
    725    712   2   0.50000     0.0600000    0.1900000   2.494471e-04  1.671101e-07
    725    736   2   0.50000     0.0600000    0.0600000   6.128906e-05  1.496315e-08
    726    710   2   0.50000     0.0600000   -0.1200000   2.494471e-04  1.671101e-07
    726    712   2   0.50000     0.0600000    0.1900000   2.494471e-04  1.671101e-07
    726    736   2   0.50000     0.0600000    0.0600000   6.128906e-05  1.496315e-08
    704    707   2   0.50000    -0.1200000    0.0800000   1.015252e-03  1.866303e-06
    704    709   2   0.50000    -0.1200000   -0.1200000   1.015252e-03  1.866303e-06
    704    729   2   0.50000    -0.1200000    0.0600000   2.494471e-04  1.671101e-07
    727    707   2   0.50000     0.0600000    0.0800000   2.494471e-04  1.671101e-07
    727    709   2   0.50000     0.0600000   -0.1200000   2.494471e-04  1.671101e-07
    727    729   2   0.50000     0.0600000    0.0600000   6.128906e-05  1.496315e-08
    728    707   2   0.50000     0.0600000    0.0800000   2.494471e-04  1.671101e-07
    728    709   2   0.50000     0.0600000   -0.1200000   2.494471e-04  1.671101e-07
    728    729   2   0.50000     0.0600000    0.0600000   6.128906e-05  1.496315e-08
    705    708   2   0.50000    -0.1200000   -0.2000000   8.411158e-04  8.795366e-07
    705    730   2   0.50000    -0.1200000    0.0600000   2.494471e-04  1.671101e-07
    705    731   2   0.50000    -0.1200000    0.0600000   2.494471e-04  1.671101e-07
    709    708   2   0.50000    -0.1200000   -0.2000000   8.411158e-04  8.795366e-07
    709    730   2   0.50000    -0.1200000    0.0600000   2.494471e-04  1.671101e-07
    709    731   2   0.50000    -0.1200000    0.0600000   2.494471e-04  1.671101e-07
    729    708   2   0.50000     0.0600000   -0.2000000   2.066619e-04  7.875431e-08
    729    730   2   0.50000     0.0600000    0.0600000   6.128906e-05  1.496315e-08
    729    731   2   0.50000     0.0600000    0.0600000   6.128906e-05  1.496315e-08
    705    732   2   0.50000    -0.1200000    0.0600000   2.494471e-04  1.671101e-07
    705    733   2   0.50000    -0.1200000    0.0600000   2.494471e-04  1.671101e-07
    707    710   2   0.50000     0.0800000   -0.1200000   1.015252e-03  1.866303e-06
    707    732   2   0.50000     0.0800000    0.0600000   2.494471e-04  1.671101e-07
    707    733   2   0.50000     0.0800000    0.0600000   2.494471e-04  1.671101e-07
    729    710   2   0.50000     0.0600000   -0.1200000   2.494471e-04  1.671101e-07
    729    732   2   0.50000     0.0600000    0.0600000   6.128906e-05  1.496315e-08
    729    733   2   0.50000     0.0600000    0.0600000   6.128906e-05  1.496315e-08
    706    683   2   0.50000    -0.0600000   -0.0800000   1.026091e-03  1.187829e-06
    730    683   2   0.50000     0.0600000   -0.0800000   2.521103e-04  1.063590e-07
    731    683   2   0.50000     0.0600000   -0.0800000   2.521103e-04  1.063590e-07
    706    734   2   0.50000    -0.0600000    0.0600000   2.494471e-04  1.671101e-07
    706    735   2   0.50000    -0.0600000    0.0600000   2.494471e-04  1.671101e-07
    732    711   2   0.50000     0.0600000   -0.0600000   2.494471e-04  1.671101e-07
    732    734   2   0.50000     0.0600000    0.0600000   6.128906e-05  1.496315e-08
    732    735   2   0.50000     0.0600000    0.0600000   6.128906e-05  1.496315e-08
    733    711   2   0.50000     0.0600000   -0.0600000   2.494471e-04  1.671101e-07
    733    734   2   0.50000     0.0600000    0.0600000   6.128906e-05  1.496315e-08
    733    735   2   0.50000     0.0600000    0.0600000   6.128906e-05  1.496315e-08
    709    712   2   0.50000    -0.1200000    0.1900000   1.015252e-03  1.866303e-06
    709    736   2   0.50000    -0.1200000    0.0600000   2.494471e-04  1.671101e-07
    734    704   2   0.50000     0.0600000   -0.1200000   2.494471e-04  1.671101e-07
    734    712   2   0.50000     0.0600000    0.1900000   2.494471e-04  1.671101e-07
    734    736   2   0.50000     0.0600000    0.0600000   6.128906e-05  1.496315e-08
    735    704   2   0.50000     0.0600000   -0.1200000   2.494471e-04  1.671101e-07
    735    712   2   0.50000     0.0600000    0.1900000   2.494471e-04  1.671101e-07
    735    736   2   0.50000     0.0600000    0.0600000   6.128906e-05  1.496315e-08
    704    713   2   0.50000    -0.1200000   -0.3300000   1.026091e-03  1.187829e-06
    704    737   2   0.50000    -0.1200000    0.0300000   1.599888e-04  9.721644e-08
    704    738   2   0.50000    -0.1200000    0.0300000   1.599888e-04  9.721644e-08
    710    713   2   0.50000    -0.1200000   -0.3300000   1.026091e-03  1.187829e-06
    710    737   2   0.50000    -0.1200000    0.0300000   1.599888e-04  9.721644e-08
    710    738   2   0.50000    -0.1200000    0.0300000   1.599888e-04  9.721644e-08
    736    713   2   0.50000     0.0600000   -0.3300000   2.521103e-04  1.063590e-07
    736    737   2   0.50000     0.0600000    0.0300000   3.930919e-05  8.704828e-09
    736    738   2   0.50000     0.0600000    0.0300000   3.930919e-05  8.704828e-09
    711    714   2   0.50000    -0.0600000    0.6250000   1.575021e-03  3.561100e-06
    737    714   2   0.50000     0.0300000    0.6250000   2.482000e-04  1.854991e-07
    738    714   2   0.50000     0.0300000    0.6250000   2.482000e-04  1.854991e-07
    712    715   2   0.50000     0.1900000   -0.4300000   1.095425e-03  1.218041e-06
    712    716   2   0.50000     0.1900000   -0.1150000   1.091018e-03  2.092768e-06
    713    717   2   0.50000    -0.3300000   -0.1150000   1.102666e-03  1.331965e-06
    713    724   2   0.50000    -0.3300000   -0.1150000   1.102666e-03  1.331965e-06
    715    717   2   0.50000    -0.4300000   -0.1150000   1.177174e-03  1.365843e-06
    715    724   2   0.50000    -0.4300000   -0.1150000   1.177174e-03  1.365843e-06
    714    718   2   0.50000     0.6250000   -0.1150000   1.692561e-03  3.993218e-06
    714    739   2   0.50000     0.6250000    0.1150000   3.510079e-04  2.623353e-07
    724    718   2   0.50000    -0.1150000   -0.1150000   1.172438e-03  2.346713e-06
    724    739   2   0.50000    -0.1150000    0.1150000   2.431434e-04  1.541678e-07
    714    723   2   0.50000     0.6250000   -0.1150000   1.692561e-03  3.993218e-06
    714    742   2   0.50000     0.6250000    0.1150000   3.510079e-04  2.623353e-07
    717    723   2   0.50000    -0.1150000   -0.1150000   1.172438e-03  2.346713e-06
    717    742   2   0.50000    -0.1150000    0.1150000   2.431434e-04  1.541678e-07
    716    719   2   0.50000    -0.1150000   -0.1150000   1.172438e-03  2.346713e-06
    716    740   2   0.50000    -0.1150000    0.1150000   2.431434e-04  1.541678e-07
    739    719   2   0.50000     0.1150000   -0.1150000   2.431434e-04  1.541678e-07
    739    740   2   0.50000     0.1150000    0.1150000   5.042375e-05  1.012808e-08
    717    720   2   0.50000    -0.1150000    0.6250000   1.692561e-03  3.993218e-06
    740    720   2   0.50000     0.1150000    0.6250000   3.510079e-04  2.623353e-07
    740    723   2   0.50000     0.1150000   -0.1150000   2.431434e-04  1.541678e-07
    718    721   2   0.50000    -0.1150000   -0.4300000   1.177174e-03  1.365843e-06
    718    722   2   0.50000    -0.1150000   -0.0800000   1.102666e-03  1.331965e-06
    723    721   2   0.50000    -0.1150000   -0.4300000   1.177174e-03  1.365843e-06
    723    722   2   0.50000    -0.1150000   -0.0800000   1.102666e-03  1.331965e-06
    718    741   2   0.50000    -0.1150000    0.1150000   2.431434e-04  1.541678e-07
    720    724   2   0.50000     0.6250000   -0.1150000   1.692561e-03  3.993218e-06
    720    741   2   0.50000     0.6250000    0.1150000   3.510079e-04  2.623353e-07
    719    747   2   0.50000    -0.1150000   -0.2000000   9.038862e-04  9.862632e-07
    721    747   2   0.50000    -0.4300000   -0.2000000   9.075373e-04  5.740287e-07
    720    746   2   0.50000     0.6250000    0.0800000   1.575021e-03  3.561100e-06
    719    742   2   0.50000    -0.1150000    0.1150000   2.431434e-04  1.541678e-07
    741    716   2   0.50000     0.1150000   -0.1150000   2.431434e-04  1.541678e-07
    741    742   2   0.50000     0.1150000    0.1150000   5.042375e-05  1.012808e-08
    750    745   2   0.50000    -0.0600000   -0.0600000   1.015252e-03  1.866303e-06
    750    766   2   0.50000    -0.0600000    0.0600000   2.494471e-04  1.671101e-07
    750    767   2   0.50000    -0.0600000    0.0600000   2.494471e-04  1.671101e-07
    764    745   2   0.50000     0.0600000   -0.0600000   2.494471e-04  1.671101e-07
    764    766   2   0.50000     0.0600000    0.0600000   6.128906e-05  1.496315e-08
    764    767   2   0.50000     0.0600000    0.0600000   6.128906e-05  1.496315e-08
    765    745   2   0.50000     0.0600000   -0.0600000   2.494471e-04  1.671101e-07
    765    766   2   0.50000     0.0600000    0.0600000   6.128906e-05  1.496315e-08
    765    767   2   0.50000     0.0600000    0.0600000   6.128906e-05  1.496315e-08
    744    749   2   0.50000    -0.1200000   -0.1200000   1.015252e-03  1.866303e-06
    744    751   2   0.50000    -0.1200000    0.1900000   1.015252e-03  1.866303e-06
    744    775   2   0.50000    -0.1200000    0.0600000   2.494471e-04  1.671101e-07
    764    749   2   0.50000     0.0600000   -0.1200000   2.494471e-04  1.671101e-07
    764    751   2   0.50000     0.0600000    0.1900000   2.494471e-04  1.671101e-07
    764    775   2   0.50000     0.0600000    0.0600000   6.128906e-05  1.496315e-08
    765    749   2   0.50000     0.0600000   -0.1200000   2.494471e-04  1.671101e-07
    765    751   2   0.50000     0.0600000    0.1900000   2.494471e-04  1.671101e-07
    765    775   2   0.50000     0.0600000    0.0600000   6.128906e-05  1.496315e-08
    743    746   2   0.50000    -0.1200000    0.0800000   1.015252e-03  1.866303e-06
    743    748   2   0.50000    -0.1200000   -0.1200000   1.015252e-03  1.866303e-06
    743    768   2   0.50000    -0.1200000    0.0600000   2.494471e-04  1.671101e-07
    766    746   2   0.50000     0.0600000    0.0800000   2.494471e-04  1.671101e-07
    766    748   2   0.50000     0.0600000   -0.1200000   2.494471e-04  1.671101e-07
    766    768   2   0.50000     0.0600000    0.0600000   6.128906e-05  1.496315e-08
    767    746   2   0.50000     0.0600000    0.0800000   2.494471e-04  1.671101e-07
    767    748   2   0.50000     0.0600000   -0.1200000   2.494471e-04  1.671101e-07
    767    768   2   0.50000     0.0600000    0.0600000   6.128906e-05  1.496315e-08
    744    747   2   0.50000    -0.1200000   -0.2000000   8.411158e-04  8.795366e-07
    744    769   2   0.50000    -0.1200000    0.0600000   2.494471e-04  1.671101e-07
    744    770   2   0.50000    -0.1200000    0.0600000   2.494471e-04  1.671101e-07
    748    747   2   0.50000    -0.1200000   -0.2000000   8.411158e-04  8.795366e-07
    748    769   2   0.50000    -0.1200000    0.0600000   2.494471e-04  1.671101e-07
    748    770   2   0.50000    -0.1200000    0.0600000   2.494471e-04  1.671101e-07
    768    747   2   0.50000     0.0600000   -0.2000000   2.066619e-04  7.875431e-08
    768    769   2   0.50000     0.0600000    0.0600000   6.128906e-05  1.496315e-08
    768    770   2   0.50000     0.0600000    0.0600000   6.128906e-05  1.496315e-08
    744    771   2   0.50000    -0.1200000    0.0600000   2.494471e-04  1.671101e-07
    744    772   2   0.50000    -0.1200000    0.0600000   2.494471e-04  1.671101e-07
    746    749   2   0.50000     0.0800000   -0.1200000   1.015252e-03  1.866303e-06
    746    771   2   0.50000     0.0800000    0.0600000   2.494471e-04  1.671101e-07
    746    772   2   0.50000     0.0800000    0.0600000   2.494471e-04  1.671101e-07
    768    749   2   0.50000     0.0600000   -0.1200000   2.494471e-04  1.671101e-07
    768    771   2   0.50000     0.0600000    0.0600000   6.128906e-05  1.496315e-08
    768    772   2   0.50000     0.0600000    0.0600000   6.128906e-05  1.496315e-08
    745    722   2   0.50000    -0.0600000   -0.0800000   1.026091e-03  1.187829e-06
    769    722   2   0.50000     0.0600000   -0.0800000   2.521103e-04  1.063590e-07
    770    722   2   0.50000     0.0600000   -0.0800000   2.521103e-04  1.063590e-07
    745    773   2   0.50000    -0.0600000    0.0600000   2.494471e-04  1.671101e-07
    745    774   2   0.50000    -0.0600000    0.0600000   2.494471e-04  1.671101e-07
    771    750   2   0.50000     0.0600000   -0.0600000   2.494471e-04  1.671101e-07
    771    773   2   0.50000     0.0600000    0.0600000   6.128906e-05  1.496315e-08
    771    774   2   0.50000     0.0600000    0.0600000   6.128906e-05  1.496315e-08
    772    750   2   0.50000     0.0600000   -0.0600000   2.494471e-04  1.671101e-07
    772    773   2   0.50000     0.0600000    0.0600000   6.128906e-05  1.496315e-08
    772    774   2   0.50000     0.0600000    0.0600000   6.128906e-05  1.496315e-08
    748    751   2   0.50000    -0.1200000    0.1900000   1.015252e-03  1.866303e-06
    748    775   2   0.50000    -0.1200000    0.0600000   2.494471e-04  1.671101e-07
    773    743   2   0.50000     0.0600000   -0.1200000   2.494471e-04  1.671101e-07
    773    751   2   0.50000     0.0600000    0.1900000   2.494471e-04  1.671101e-07
    773    775   2   0.50000     0.0600000    0.0600000   6.128906e-05  1.496315e-08
    774    743   2   0.50000     0.0600000   -0.1200000   2.494471e-04  1.671101e-07
    774    751   2   0.50000     0.0600000    0.1900000   2.494471e-04  1.671101e-07
    774    775   2   0.50000     0.0600000    0.0600000   6.128906e-05  1.496315e-08
    743    752   2   0.50000    -0.1200000   -0.3300000   1.026091e-03  1.187829e-06
    743    776   2   0.50000    -0.1200000    0.0300000   1.599888e-04  9.721644e-08
    743    777   2   0.50000    -0.1200000    0.0300000   1.599888e-04  9.721644e-08
    749    752   2   0.50000    -0.1200000   -0.3300000   1.026091e-03  1.187829e-06
    749    776   2   0.50000    -0.1200000    0.0300000   1.599888e-04  9.721644e-08
    749    777   2   0.50000    -0.1200000    0.0300000   1.599888e-04  9.721644e-08
    775    752   2   0.50000     0.0600000   -0.3300000   2.521103e-04  1.063590e-07
    775    776   2   0.50000     0.0600000    0.0300000   3.930919e-05  8.704828e-09
    775    777   2   0.50000     0.0600000    0.0300000   3.930919e-05  8.704828e-09
    750    753   2   0.50000    -0.0600000    0.6250000   1.575021e-03  3.561100e-06
    776    753   2   0.50000     0.0300000    0.6250000   2.482000e-04  1.854991e-07
    777    753   2   0.50000     0.0300000    0.6250000   2.482000e-04  1.854991e-07
    751    754   2   0.50000     0.1900000   -0.4300000   1.095425e-03  1.218041e-06
    751    755   2   0.50000     0.1900000   -0.1150000   1.091018e-03  2.092768e-06
    752    756   2   0.50000    -0.3300000   -0.1150000   1.102666e-03  1.331965e-06
    752    763   2   0.50000    -0.3300000   -0.1150000   1.102666e-03  1.331965e-06
    754    756   2   0.50000    -0.4300000   -0.1150000   1.177174e-03  1.365843e-06
    754    763   2   0.50000    -0.4300000   -0.1150000   1.177174e-03  1.365843e-06
    753    757   2   0.50000     0.6250000   -0.1150000   1.692561e-03  3.993218e-06
    753    778   2   0.50000     0.6250000    0.1150000   3.510079e-04  2.623353e-07
    763    757   2   0.50000    -0.1150000   -0.1150000   1.172438e-03  2.346713e-06
    763    778   2   0.50000    -0.1150000    0.1150000   2.431434e-04  1.541678e-07
    753    762   2   0.50000     0.6250000   -0.1150000   1.692561e-03  3.993218e-06
    753    781   2   0.50000     0.6250000    0.1150000   3.510079e-04  2.623353e-07
    756    762   2   0.50000    -0.1150000   -0.1150000   1.172438e-03  2.346713e-06
    756    781   2   0.50000    -0.1150000    0.1150000   2.431434e-04  1.541678e-07
    755    758   2   0.50000    -0.1150000   -0.1150000   1.172438e-03  2.346713e-06
    755    779   2   0.50000    -0.1150000    0.1150000   2.431434e-04  1.541678e-07
    778    758   2   0.50000     0.1150000   -0.1150000   2.431434e-04  1.541678e-07
    778    779   2   0.50000     0.1150000    0.1150000   5.042375e-05  1.012808e-08
    756    759   2   0.50000    -0.1150000    0.6350000   1.692561e-03  3.993218e-06
    779    759   2   0.50000     0.1150000    0.6350000   3.510079e-04  2.623353e-07
    779    762   2   0.50000     0.1150000   -0.1150000   2.431434e-04  1.541678e-07
    757    760   2   0.50000    -0.1150000   -0.4400000   1.177174e-03  1.365843e-06
    757    761   2   0.50000    -0.1150000   -0.5300000   1.102666e-03  1.331965e-06
    762    760   2   0.50000    -0.1150000   -0.4400000   1.177174e-03  1.365843e-06
    762    761   2   0.50000    -0.1150000   -0.5300000   1.102666e-03  1.331965e-06
    757    780   2   0.50000    -0.1150000    0.1150000   2.431434e-04  1.541678e-07
    759    763   2   0.50000     0.6350000   -0.1150000   1.692561e-03  3.993218e-06
    759    780   2   0.50000     0.6350000    0.1150000   3.510079e-04  2.623353e-07
    758    782   2   0.50000    -0.1150000    0.4500000   2.144502e-06  1.199282e-11
    760    782   2   0.50000    -0.4400000    0.4500000   2.153164e-06  6.980110e-12
    758    781   2   0.50000    -0.1150000    0.1150000   2.431434e-04  1.541678e-07
    780    755   2   0.50000     0.1150000   -0.1150000   2.431434e-04  1.541678e-07
    780    781   2   0.50000     0.1150000    0.1150000   5.042375e-05  1.012808e-08

[ angles ]
; ai  aj  ak
      2      1      8   1    112.7000    488.2728
      2      1     22   1    110.7000    313.8000
      2      1     23   1    110.7000    313.8000
      8      1     22   1    110.7000    313.8000
      8      1     23   1    110.7000    313.8000
     22      1     23   1    107.8000    276.1440
      1      2      3   1    112.7000    488.2728
      1      2     24   1    110.7000    313.8000
      1      2     25   1    110.7000    313.8000
      3      2     24   1    110.7000    313.8000
      3      2     25   1    110.7000    313.8000
     24      2     25   1    107.8000    276.1440
      2      3      4   1    112.7000    488.2728
      2      3      6   1    112.7000    488.2728
      2      3     26   1    110.7000    313.8000
      4      3      6   1    112.7000    488.2728
      4      3     26   1    110.7000    313.8000
      6      3     26   1    110.7000    313.8000
      3      4      5   1    109.5000    418.4000
      3      4     27   1    110.7000    313.8000
      3      4     28   1    110.7000    313.8000
      5      4     27   1    109.5000    292.8800
      5      4     28   1    109.5000    292.8800
     27      4     28   1    107.8000    276.1440
      4      5     40   1    108.5000    460.2400
      3      6      7   1    112.7000    488.2728
      3      6     29   1    110.7000    313.8000
      3      6     30   1    110.7000    313.8000
      7      6     29   1    110.7000    313.8000
      7      6     30   1    110.7000    313.8000
     29      6     30   1    107.8000    276.1440
      6      7      8   1    112.7000    488.2728
      6      7     31   1    110.7000    313.8000
      6      7     32   1    110.7000    313.8000
      8      7     31   1    110.7000    313.8000
      8      7     32   1    110.7000    313.8000
     31      7     32   1    107.8000    276.1440
      1      8      7   1    112.7000    488.2728
      1      8      9   1    112.7000    488.2728
      1      8     33   1    110.7000    313.8000
      7      8      9   1    112.7000    488.2728
      7      8     33   1    110.7000    313.8000
      9      8     33   1    110.7000    313.8000
      8      9     10   1    109.5000    418.4000
      8      9     34   1    110.7000    313.8000
      8      9     35   1    110.7000    313.8000
     10      9     34   1    109.5000    292.8800
     10      9     35   1    109.5000    292.8800
     34      9     35   1    107.8000    276.1440
      9     10     11   1    116.9000    694.5440
     10     11     12   1    123.4000    694.5440
     10     11     13   1    111.4000    677.8080
     12     11     13   1    123.7840    627.6000
     11     13     14   1    119.5260    502.0800
     11     13     21   1    119.5260    502.0800
     14     13     21   1    120.0000    527.1840
     13     14     15   1    120.0000    527.1840
     13     14     36   1    120.0000    292.8800
     15     14     36   1    120.0000    292.8800
     14     15     16   1    120.0000    527.1840
     14     15     37   1    120.0000    292.8800
     16     15     37   1    120.0000    292.8800
     15     16     17   1    119.5260    502.0800
     15     16     20   1    120.0000    527.1840
     17     16     20   1    119.5260    502.0800
     16     17     18   1    123.7840    627.6000
     16     17     19   1    111.4000    677.8080
     18     17     19   1    123.4000    694.5440
     17     19     45   1    112.0000   1004.1600
     16     20     21   1    120.0000    527.1840
     16     20     38   1    120.0000    292.8800
     21     20     38   1    120.0000    292.8800
     13     21     20   1    120.0000    527.1840
     13     21     39   1    120.0000    292.8800
     20     21     39   1    120.0000    292.8800
     42     41     48   1    112.7000    488.2728
     42     41     62   1    110.7000    313.8000
     42     41     63   1    110.7000    313.8000
     48     41     62   1    110.7000    313.8000
     48     41     63   1    110.7000    313.8000
     62     41     63   1    107.8000    276.1440
     41     42     43   1    112.7000    488.2728
     41     42     64   1    110.7000    313.8000
     41     42     65   1    110.7000    313.8000
     43     42     64   1    110.7000    313.8000
     43     42     65   1    110.7000    313.8000
     64     42     65   1    107.8000    276.1440
     42     43     44   1    112.7000    488.2728
     42     43     46   1    112.7000    488.2728
     42     43     66   1    110.7000    313.8000
     44     43     46   1    112.7000    488.2728
     44     43     66   1    110.7000    313.8000
     46     43     66   1    110.7000    313.8000
     43     44     45   1    109.5000    418.4000
     43     44     67   1    110.7000    313.8000
     43     44     68   1    110.7000    313.8000
     45     44     67   1    109.5000    292.8800
     45     44     68   1    109.5000    292.8800
     67     44     68   1    107.8000    276.1440
     19     45     44   1    107.0000   1046.0000
     43     46     47   1    112.7000    488.2728
     43     46     69   1    110.7000    313.8000
     43     46     70   1    110.7000    313.8000
     47     46     69   1    110.7000    313.8000
     47     46     70   1    110.7000    313.8000
     69     46     70   1    107.8000    276.1440
     46     47     48   1    112.7000    488.2728
     46     47     71   1    110.7000    313.8000
     46     47     72   1    110.7000    313.8000
     48     47     71   1    110.7000    313.8000
     48     47     72   1    110.7000    313.8000
     71     47     72   1    107.8000    276.1440
     41     48     47   1    112.7000    488.2728
     41     48     49   1    112.7000    488.2728
     41     48     73   1    110.7000    313.8000
     47     48     49   1    112.7000    488.2728
     47     48     73   1    110.7000    313.8000
     49     48     73   1    110.7000    313.8000
     48     49     50   1    109.5000    418.4000
     48     49     74   1    110.7000    313.8000
     48     49     75   1    110.7000    313.8000
     50     49     74   1    109.5000    292.8800
     50     49     75   1    109.5000    292.8800
     74     49     75   1    107.8000    276.1440
     49     50     51   1    116.9000    694.5440
     50     51     52   1    123.4000    694.5440
     50     51     53   1    111.4000    677.8080
     52     51     53   1    123.7840    627.6000
     51     53     54   1    119.5260    502.0800
     51     53     61   1    119.5260    502.0800
     54     53     61   1    120.0000    527.1840
     53     54     55   1    120.0000    527.1840
     53     54     76   1    120.0000    292.8800
     55     54     76   1    120.0000    292.8800
     54     55     56   1    120.0000    527.1840
     54     55     77   1    120.0000    292.8800
     56     55     77   1    120.0000    292.8800
     55     56     57   1    119.5260    502.0800
     55     56     60   1    120.0000    527.1840
     57     56     60   1    119.5260    502.0800
     56     57     58   1    123.7840    627.6000
     56     57     59   1    111.4000    677.8080
     58     57     59   1    123.4000    694.5440
     57     59     84   1    112.0000   1004.1600
     56     60     61   1    120.0000    527.1840
     56     60     78   1    120.0000    292.8800
     61     60     78   1    120.0000    292.8800
     53     61     60   1    120.0000    527.1840
     53     61     79   1    120.0000    292.8800
     60     61     79   1    120.0000    292.8800
     81     80     87   1    112.7000    488.2728
     81     80    101   1    110.7000    313.8000
     81     80    102   1    110.7000    313.8000
     87     80    101   1    110.7000    313.8000
     87     80    102   1    110.7000    313.8000
    101     80    102   1    107.8000    276.1440
     80     81     82   1    112.7000    488.2728
     80     81    103   1    110.7000    313.8000
     80     81    104   1    110.7000    313.8000
     82     81    103   1    110.7000    313.8000
     82     81    104   1    110.7000    313.8000
    103     81    104   1    107.8000    276.1440
     81     82     83   1    112.7000    488.2728
     81     82     85   1    112.7000    488.2728
     81     82    105   1    110.7000    313.8000
     83     82     85   1    112.7000    488.2728
     83     82    105   1    110.7000    313.8000
     85     82    105   1    110.7000    313.8000
     82     83     84   1    109.5000    418.4000
     82     83    106   1    110.7000    313.8000
     82     83    107   1    110.7000    313.8000
     84     83    106   1    109.5000    292.8800
     84     83    107   1    109.5000    292.8800
    106     83    107   1    107.8000    276.1440
     59     84     83   1    107.0000   1046.0000
     82     85     86   1    112.7000    488.2728
     82     85    108   1    110.7000    313.8000
     82     85    109   1    110.7000    313.8000
     86     85    108   1    110.7000    313.8000
     86     85    109   1    110.7000    313.8000
    108     85    109   1    107.8000    276.1440
     85     86     87   1    112.7000    488.2728
     85     86    110   1    110.7000    313.8000
     85     86    111   1    110.7000    313.8000
     87     86    110   1    110.7000    313.8000
     87     86    111   1    110.7000    313.8000
    110     86    111   1    107.8000    276.1440
     80     87     86   1    112.7000    488.2728
     80     87     88   1    112.7000    488.2728
     80     87    112   1    110.7000    313.8000
     86     87     88   1    112.7000    488.2728
     86     87    112   1    110.7000    313.8000
     88     87    112   1    110.7000    313.8000
     87     88     89   1    109.5000    418.4000
     87     88    113   1    110.7000    313.8000
     87     88    114   1    110.7000    313.8000
     89     88    113   1    109.5000    292.8800
     89     88    114   1    109.5000    292.8800
    113     88    114   1    107.8000    276.1440
     88     89     90   1    116.9000    694.5440
     89     90     91   1    123.4000    694.5440
     89     90     92   1    111.4000    677.8080
     91     90     92   1    123.7840    627.6000
     90     92     93   1    119.5260    502.0800
     90     92    100   1    119.5260    502.0800
     93     92    100   1    120.0000    527.1840
     92     93     94   1    120.0000    527.1840
     92     93    115   1    120.0000    292.8800
     94     93    115   1    120.0000    292.8800
     93     94     95   1    120.0000    527.1840
     93     94    116   1    120.0000    292.8800
     95     94    116   1    120.0000    292.8800
     94     95     96   1    119.5260    502.0800
     94     95     99   1    120.0000    527.1840
     96     95     99   1    119.5260    502.0800
     95     96     97   1    123.7840    627.6000
     95     96     98   1    111.4000    677.8080
     97     96     98   1    123.4000    694.5440
     96     98    123   1    112.0000   1004.1600
     95     99    100   1    120.0000    527.1840
     95     99    117   1    120.0000    292.8800
    100     99    117   1    120.0000    292.8800
     92    100     99   1    120.0000    527.1840
     92    100    118   1    120.0000    292.8800
     99    100    118   1    120.0000    292.8800
    120    119    126   1    112.7000    488.2728
    120    119    140   1    110.7000    313.8000
    120    119    141   1    110.7000    313.8000
    126    119    140   1    110.7000    313.8000
    126    119    141   1    110.7000    313.8000
    140    119    141   1    107.8000    276.1440
    119    120    121   1    112.7000    488.2728
    119    120    142   1    110.7000    313.8000
    119    120    143   1    110.7000    313.8000
    121    120    142   1    110.7000    313.8000
    121    120    143   1    110.7000    313.8000
    142    120    143   1    107.8000    276.1440
    120    121    122   1    112.7000    488.2728
    120    121    124   1    112.7000    488.2728
    120    121    144   1    110.7000    313.8000
    122    121    124   1    112.7000    488.2728
    122    121    144   1    110.7000    313.8000
    124    121    144   1    110.7000    313.8000
    121    122    123   1    109.5000    418.4000
    121    122    145   1    110.7000    313.8000
    121    122    146   1    110.7000    313.8000
    123    122    145   1    109.5000    292.8800
    123    122    146   1    109.5000    292.8800
    145    122    146   1    107.8000    276.1440
     98    123    122   1    107.0000   1046.0000
    121    124    125   1    112.7000    488.2728
    121    124    147   1    110.7000    313.8000
    121    124    148   1    110.7000    313.8000
    125    124    147   1    110.7000    313.8000
    125    124    148   1    110.7000    313.8000
    147    124    148   1    107.8000    276.1440
    124    125    126   1    112.7000    488.2728
    124    125    149   1    110.7000    313.8000
    124    125    150   1    110.7000    313.8000
    126    125    149   1    110.7000    313.8000
    126    125    150   1    110.7000    313.8000
    149    125    150   1    107.8000    276.1440
    119    126    125   1    112.7000    488.2728
    119    126    127   1    112.7000    488.2728
    119    126    151   1    110.7000    313.8000
    125    126    127   1    112.7000    488.2728
    125    126    151   1    110.7000    313.8000
    127    126    151   1    110.7000    313.8000
    126    127    128   1    109.5000    418.4000
    126    127    152   1    110.7000    313.8000
    126    127    153   1    110.7000    313.8000
    128    127    152   1    109.5000    292.8800
    128    127    153   1    109.5000    292.8800
    152    127    153   1    107.8000    276.1440
    127    128    129   1    116.9000    694.5440
    128    129    130   1    123.4000    694.5440
    128    129    131   1    111.4000    677.8080
    130    129    131   1    123.7840    627.6000
    129    131    132   1    119.5260    502.0800
    129    131    139   1    119.5260    502.0800
    132    131    139   1    120.0000    527.1840
    131    132    133   1    120.0000    527.1840
    131    132    154   1    120.0000    292.8800
    133    132    154   1    120.0000    292.8800
    132    133    134   1    120.0000    527.1840
    132    133    155   1    120.0000    292.8800
    134    133    155   1    120.0000    292.8800
    133    134    135   1    119.5260    502.0800
    133    134    138   1    120.0000    527.1840
    135    134    138   1    119.5260    502.0800
    134    135    136   1    123.7840    627.6000
    134    135    137   1    111.4000    677.8080
    136    135    137   1    123.4000    694.5440
    135    137    162   1    112.0000   1004.1600
    134    138    139   1    120.0000    527.1840
    134    138    156   1    120.0000    292.8800
    139    138    156   1    120.0000    292.8800
    131    139    138   1    120.0000    527.1840
    131    139    157   1    120.0000    292.8800
    138    139    157   1    120.0000    292.8800
    159    158    165   1    112.7000    488.2728
    159    158    179   1    110.7000    313.8000
    159    158    180   1    110.7000    313.8000
    165    158    179   1    110.7000    313.8000
    165    158    180   1    110.7000    313.8000
    179    158    180   1    107.8000    276.1440
    158    159    160   1    112.7000    488.2728
    158    159    181   1    110.7000    313.8000
    158    159    182   1    110.7000    313.8000
    160    159    181   1    110.7000    313.8000
    160    159    182   1    110.7000    313.8000
    181    159    182   1    107.8000    276.1440
    159    160    161   1    112.7000    488.2728
    159    160    163   1    112.7000    488.2728
    159    160    183   1    110.7000    313.8000
    161    160    163   1    112.7000    488.2728
    161    160    183   1    110.7000    313.8000
    163    160    183   1    110.7000    313.8000
    160    161    162   1    109.5000    418.4000
    160    161    184   1    110.7000    313.8000
    160    161    185   1    110.7000    313.8000
    162    161    184   1    109.5000    292.8800
    162    161    185   1    109.5000    292.8800
    184    161    185   1    107.8000    276.1440
    137    162    161   1    107.0000   1046.0000
    160    163    164   1    112.7000    488.2728
    160    163    186   1    110.7000    313.8000
    160    163    187   1    110.7000    313.8000
    164    163    186   1    110.7000    313.8000
    164    163    187   1    110.7000    313.8000
    186    163    187   1    107.8000    276.1440
    163    164    165   1    112.7000    488.2728
    163    164    188   1    110.7000    313.8000
    163    164    189   1    110.7000    313.8000
    165    164    188   1    110.7000    313.8000
    165    164    189   1    110.7000    313.8000
    188    164    189   1    107.8000    276.1440
    158    165    164   1    112.7000    488.2728
    158    165    166   1    112.7000    488.2728
    158    165    190   1    110.7000    313.8000
    164    165    166   1    112.7000    488.2728
    164    165    190   1    110.7000    313.8000
    166    165    190   1    110.7000    313.8000
    165    166    167   1    109.5000    418.4000
    165    166    191   1    110.7000    313.8000
    165    166    192   1    110.7000    313.8000
    167    166    191   1    109.5000    292.8800
    167    166    192   1    109.5000    292.8800
    191    166    192   1    107.8000    276.1440
    166    167    168   1    116.9000    694.5440
    167    168    169   1    123.4000    694.5440
    167    168    170   1    111.4000    677.8080
    169    168    170   1    123.7840    627.6000
    168    170    171   1    119.5260    502.0800
    168    170    178   1    119.5260    502.0800
    171    170    178   1    120.0000    527.1840
    170    171    172   1    120.0000    527.1840
    170    171    193   1    120.0000    292.8800
    172    171    193   1    120.0000    292.8800
    171    172    173   1    120.0000    527.1840
    171    172    194   1    120.0000    292.8800
    173    172    194   1    120.0000    292.8800
    172    173    174   1    119.5260    502.0800
    172    173    177   1    120.0000    527.1840
    174    173    177   1    119.5260    502.0800
    173    174    175   1    123.7840    627.6000
    173    174    176   1    111.4000    677.8080
    175    174    176   1    123.4000    694.5440
    174    176    201   1    112.0000   1004.1600
    173    177    178   1    120.0000    527.1840
    173    177    195   1    120.0000    292.8800
    178    177    195   1    120.0000    292.8800
    170    178    177   1    120.0000    527.1840
    170    178    196   1    120.0000    292.8800
    177    178    196   1    120.0000    292.8800
    198    197    204   1    112.7000    488.2728
    198    197    218   1    110.7000    313.8000
    198    197    219   1    110.7000    313.8000
    204    197    218   1    110.7000    313.8000
    204    197    219   1    110.7000    313.8000
    218    197    219   1    107.8000    276.1440
    197    198    199   1    112.7000    488.2728
    197    198    220   1    110.7000    313.8000
    197    198    221   1    110.7000    313.8000
    199    198    220   1    110.7000    313.8000
    199    198    221   1    110.7000    313.8000
    220    198    221   1    107.8000    276.1440
    198    199    200   1    112.7000    488.2728
    198    199    202   1    112.7000    488.2728
    198    199    222   1    110.7000    313.8000
    200    199    202   1    112.7000    488.2728
    200    199    222   1    110.7000    313.8000
    202    199    222   1    110.7000    313.8000
    199    200    201   1    109.5000    418.4000
    199    200    223   1    110.7000    313.8000
    199    200    224   1    110.7000    313.8000
    201    200    223   1    109.5000    292.8800
    201    200    224   1    109.5000    292.8800
    223    200    224   1    107.8000    276.1440
    176    201    200   1    107.0000   1046.0000
    199    202    203   1    112.7000    488.2728
    199    202    225   1    110.7000    313.8000
    199    202    226   1    110.7000    313.8000
    203    202    225   1    110.7000    313.8000
    203    202    226   1    110.7000    313.8000
    225    202    226   1    107.8000    276.1440
    202    203    204   1    112.7000    488.2728
    202    203    227   1    110.7000    313.8000
    202    203    228   1    110.7000    313.8000
    204    203    227   1    110.7000    313.8000
    204    203    228   1    110.7000    313.8000
    227    203    228   1    107.8000    276.1440
    197    204    203   1    112.7000    488.2728
    197    204    205   1    112.7000    488.2728
    197    204    229   1    110.7000    313.8000
    203    204    205   1    112.7000    488.2728
    203    204    229   1    110.7000    313.8000
    205    204    229   1    110.7000    313.8000
    204    205    206   1    109.5000    418.4000
    204    205    230   1    110.7000    313.8000
    204    205    231   1    110.7000    313.8000
    206    205    230   1    109.5000    292.8800
    206    205    231   1    109.5000    292.8800
    230    205    231   1    107.8000    276.1440
    205    206    207   1    116.9000    694.5440
    206    207    208   1    123.4000    694.5440
    206    207    209   1    111.4000    677.8080
    208    207    209   1    123.7840    627.6000
    207    209    210   1    119.5260    502.0800
    207    209    217   1    119.5260    502.0800
    210    209    217   1    120.0000    527.1840
    209    210    211   1    120.0000    527.1840
    209    210    232   1    120.0000    292.8800
    211    210    232   1    120.0000    292.8800
    210    211    212   1    120.0000    527.1840
    210    211    233   1    120.0000    292.8800
    212    211    233   1    120.0000    292.8800
    211    212    213   1    119.5260    502.0800
    211    212    216   1    120.0000    527.1840
    213    212    216   1    119.5260    502.0800
    212    213    214   1    123.7840    627.6000
    212    213    215   1    111.4000    677.8080
    214    213    215   1    123.4000    694.5440
    213    215    240   1    112.0000   1004.1600
    212    216    217   1    120.0000    527.1840
    212    216    234   1    120.0000    292.8800
    217    216    234   1    120.0000    292.8800
    209    217    216   1    120.0000    527.1840
    209    217    235   1    120.0000    292.8800
    216    217    235   1    120.0000    292.8800
    237    236    243   1    112.7000    488.2728
    237    236    257   1    110.7000    313.8000
    237    236    258   1    110.7000    313.8000
    243    236    257   1    110.7000    313.8000
    243    236    258   1    110.7000    313.8000
    257    236    258   1    107.8000    276.1440
    236    237    238   1    112.7000    488.2728
    236    237    259   1    110.7000    313.8000
    236    237    260   1    110.7000    313.8000
    238    237    259   1    110.7000    313.8000
    238    237    260   1    110.7000    313.8000
    259    237    260   1    107.8000    276.1440
    237    238    239   1    112.7000    488.2728
    237    238    241   1    112.7000    488.2728
    237    238    261   1    110.7000    313.8000
    239    238    241   1    112.7000    488.2728
    239    238    261   1    110.7000    313.8000
    241    238    261   1    110.7000    313.8000
    238    239    240   1    109.5000    418.4000
    238    239    262   1    110.7000    313.8000
    238    239    263   1    110.7000    313.8000
    240    239    262   1    109.5000    292.8800
    240    239    263   1    109.5000    292.8800
    262    239    263   1    107.8000    276.1440
    215    240    239   1    107.0000   1046.0000
    238    241    242   1    112.7000    488.2728
    238    241    264   1    110.7000    313.8000
    238    241    265   1    110.7000    313.8000
    242    241    264   1    110.7000    313.8000
    242    241    265   1    110.7000    313.8000
    264    241    265   1    107.8000    276.1440
    241    242    243   1    112.7000    488.2728
    241    242    266   1    110.7000    313.8000
    241    242    267   1    110.7000    313.8000
    243    242    266   1    110.7000    313.8000
    243    242    267   1    110.7000    313.8000
    266    242    267   1    107.8000    276.1440
    236    243    242   1    112.7000    488.2728
    236    243    244   1    112.7000    488.2728
    236    243    268   1    110.7000    313.8000
    242    243    244   1    112.7000    488.2728
    242    243    268   1    110.7000    313.8000
    244    243    268   1    110.7000    313.8000
    243    244    245   1    109.5000    418.4000
    243    244    269   1    110.7000    313.8000
    243    244    270   1    110.7000    313.8000
    245    244    269   1    109.5000    292.8800
    245    244    270   1    109.5000    292.8800
    269    244    270   1    107.8000    276.1440
    244    245    246   1    116.9000    694.5440
    245    246    247   1    123.4000    694.5440
    245    246    248   1    111.4000    677.8080
    247    246    248   1    123.7840    627.6000
    246    248    249   1    119.5260    502.0800
    246    248    256   1    119.5260    502.0800
    249    248    256   1    120.0000    527.1840
    248    249    250   1    120.0000    527.1840
    248    249    271   1    120.0000    292.8800
    250    249    271   1    120.0000    292.8800
    249    250    251   1    120.0000    527.1840
    249    250    272   1    120.0000    292.8800
    251    250    272   1    120.0000    292.8800
    250    251    252   1    119.5260    502.0800
    250    251    255   1    120.0000    527.1840
    252    251    255   1    119.5260    502.0800
    251    252    253   1    123.7840    627.6000
    251    252    254   1    111.4000    677.8080
    253    252    254   1    123.4000    694.5440
    252    254    279   1    112.0000   1004.1600
    251    255    256   1    120.0000    527.1840
    251    255    273   1    120.0000    292.8800
    256    255    273   1    120.0000    292.8800
    248    256    255   1    120.0000    527.1840
    248    256    274   1    120.0000    292.8800
    255    256    274   1    120.0000    292.8800
    276    275    282   1    112.7000    488.2728
    276    275    296   1    110.7000    313.8000
    276    275    297   1    110.7000    313.8000
    282    275    296   1    110.7000    313.8000
    282    275    297   1    110.7000    313.8000
    296    275    297   1    107.8000    276.1440
    275    276    277   1    112.7000    488.2728
    275    276    298   1    110.7000    313.8000
    275    276    299   1    110.7000    313.8000
    277    276    298   1    110.7000    313.8000
    277    276    299   1    110.7000    313.8000
    298    276    299   1    107.8000    276.1440
    276    277    278   1    112.7000    488.2728
    276    277    280   1    112.7000    488.2728
    276    277    300   1    110.7000    313.8000
    278    277    280   1    112.7000    488.2728
    278    277    300   1    110.7000    313.8000
    280    277    300   1    110.7000    313.8000
    277    278    279   1    109.5000    418.4000
    277    278    301   1    110.7000    313.8000
    277    278    302   1    110.7000    313.8000
    279    278    301   1    109.5000    292.8800
    279    278    302   1    109.5000    292.8800
    301    278    302   1    107.8000    276.1440
    254    279    278   1    107.0000   1046.0000
    277    280    281   1    112.7000    488.2728
    277    280    303   1    110.7000    313.8000
    277    280    304   1    110.7000    313.8000
    281    280    303   1    110.7000    313.8000
    281    280    304   1    110.7000    313.8000
    303    280    304   1    107.8000    276.1440
    280    281    282   1    112.7000    488.2728
    280    281    305   1    110.7000    313.8000
    280    281    306   1    110.7000    313.8000
    282    281    305   1    110.7000    313.8000
    282    281    306   1    110.7000    313.8000
    305    281    306   1    107.8000    276.1440
    275    282    281   1    112.7000    488.2728
    275    282    283   1    112.7000    488.2728
    275    282    307   1    110.7000    313.8000
    281    282    283   1    112.7000    488.2728
    281    282    307   1    110.7000    313.8000
    283    282    307   1    110.7000    313.8000
    282    283    284   1    109.5000    418.4000
    282    283    308   1    110.7000    313.8000
    282    283    309   1    110.7000    313.8000
    284    283    308   1    109.5000    292.8800
    284    283    309   1    109.5000    292.8800
    308    283    309   1    107.8000    276.1440
    283    284    285   1    116.9000    694.5440
    284    285    286   1    123.4000    694.5440
    284    285    287   1    111.4000    677.8080
    286    285    287   1    123.7840    627.6000
    285    287    288   1    119.5260    502.0800
    285    287    295   1    119.5260    502.0800
    288    287    295   1    120.0000    527.1840
    287    288    289   1    120.0000    527.1840
    287    288    310   1    120.0000    292.8800
    289    288    310   1    120.0000    292.8800
    288    289    290   1    120.0000    527.1840
    288    289    311   1    120.0000    292.8800
    290    289    311   1    120.0000    292.8800
    289    290    291   1    119.5260    502.0800
    289    290    294   1    120.0000    527.1840
    291    290    294   1    119.5260    502.0800
    290    291    292   1    123.7840    627.6000
    290    291    293   1    111.4000    677.8080
    292    291    293   1    123.4000    694.5440
    291    293    318   1    112.0000   1004.1600
    290    294    295   1    120.0000    527.1840
    290    294    312   1    120.0000    292.8800
    295    294    312   1    120.0000    292.8800
    287    295    294   1    120.0000    527.1840
    287    295    313   1    120.0000    292.8800
    294    295    313   1    120.0000    292.8800
    315    314    321   1    112.7000    488.2728
    315    314    335   1    110.7000    313.8000
    315    314    336   1    110.7000    313.8000
    321    314    335   1    110.7000    313.8000
    321    314    336   1    110.7000    313.8000
    335    314    336   1    107.8000    276.1440
    314    315    316   1    112.7000    488.2728
    314    315    337   1    110.7000    313.8000
    314    315    338   1    110.7000    313.8000
    316    315    337   1    110.7000    313.8000
    316    315    338   1    110.7000    313.8000
    337    315    338   1    107.8000    276.1440
    315    316    317   1    112.7000    488.2728
    315    316    319   1    112.7000    488.2728
    315    316    339   1    110.7000    313.8000
    317    316    319   1    112.7000    488.2728
    317    316    339   1    110.7000    313.8000
    319    316    339   1    110.7000    313.8000
    316    317    318   1    109.5000    418.4000
    316    317    340   1    110.7000    313.8000
    316    317    341   1    110.7000    313.8000
    318    317    340   1    109.5000    292.8800
    318    317    341   1    109.5000    292.8800
    340    317    341   1    107.8000    276.1440
    293    318    317   1    107.0000   1046.0000
    316    319    320   1    112.7000    488.2728
    316    319    342   1    110.7000    313.8000
    316    319    343   1    110.7000    313.8000
    320    319    342   1    110.7000    313.8000
    320    319    343   1    110.7000    313.8000
    342    319    343   1    107.8000    276.1440
    319    320    321   1    112.7000    488.2728
    319    320    344   1    110.7000    313.8000
    319    320    345   1    110.7000    313.8000
    321    320    344   1    110.7000    313.8000
    321    320    345   1    110.7000    313.8000
    344    320    345   1    107.8000    276.1440
    314    321    320   1    112.7000    488.2728
    314    321    322   1    112.7000    488.2728
    314    321    346   1    110.7000    313.8000
    320    321    322   1    112.7000    488.2728
    320    321    346   1    110.7000    313.8000
    322    321    346   1    110.7000    313.8000
    321    322    323   1    109.5000    418.4000
    321    322    347   1    110.7000    313.8000
    321    322    348   1    110.7000    313.8000
    323    322    347   1    109.5000    292.8800
    323    322    348   1    109.5000    292.8800
    347    322    348   1    107.8000    276.1440
    322    323    324   1    116.9000    694.5440
    323    324    325   1    123.4000    694.5440
    323    324    326   1    111.4000    677.8080
    325    324    326   1    123.7840    627.6000
    324    326    327   1    119.5260    502.0800
    324    326    334   1    119.5260    502.0800
    327    326    334   1    120.0000    527.1840
    326    327    328   1    120.0000    527.1840
    326    327    349   1    120.0000    292.8800
    328    327    349   1    120.0000    292.8800
    327    328    329   1    120.0000    527.1840
    327    328    350   1    120.0000    292.8800
    329    328    350   1    120.0000    292.8800
    328    329    330   1    119.5260    502.0800
    328    329    333   1    120.0000    527.1840
    330    329    333   1    119.5260    502.0800
    329    330    331   1    123.7840    627.6000
    329    330    332   1    111.4000    677.8080
    331    330    332   1    123.4000    694.5440
    330    332    357   1    112.0000   1004.1600
    329    333    334   1    120.0000    527.1840
    329    333    351   1    120.0000    292.8800
    334    333    351   1    120.0000    292.8800
    326    334    333   1    120.0000    527.1840
    326    334    352   1    120.0000    292.8800
    333    334    352   1    120.0000    292.8800
    354    353    360   1    112.7000    488.2728
    354    353    374   1    110.7000    313.8000
    354    353    375   1    110.7000    313.8000
    360    353    374   1    110.7000    313.8000
    360    353    375   1    110.7000    313.8000
    374    353    375   1    107.8000    276.1440
    353    354    355   1    112.7000    488.2728
    353    354    376   1    110.7000    313.8000
    353    354    377   1    110.7000    313.8000
    355    354    376   1    110.7000    313.8000
    355    354    377   1    110.7000    313.8000
    376    354    377   1    107.8000    276.1440
    354    355    356   1    112.7000    488.2728
    354    355    358   1    112.7000    488.2728
    354    355    378   1    110.7000    313.8000
    356    355    358   1    112.7000    488.2728
    356    355    378   1    110.7000    313.8000
    358    355    378   1    110.7000    313.8000
    355    356    357   1    109.5000    418.4000
    355    356    379   1    110.7000    313.8000
    355    356    380   1    110.7000    313.8000
    357    356    379   1    109.5000    292.8800
    357    356    380   1    109.5000    292.8800
    379    356    380   1    107.8000    276.1440
    332    357    356   1    107.0000   1046.0000
    355    358    359   1    112.7000    488.2728
    355    358    381   1    110.7000    313.8000
    355    358    382   1    110.7000    313.8000
    359    358    381   1    110.7000    313.8000
    359    358    382   1    110.7000    313.8000
    381    358    382   1    107.8000    276.1440
    358    359    360   1    112.7000    488.2728
    358    359    383   1    110.7000    313.8000
    358    359    384   1    110.7000    313.8000
    360    359    383   1    110.7000    313.8000
    360    359    384   1    110.7000    313.8000
    383    359    384   1    107.8000    276.1440
    353    360    359   1    112.7000    488.2728
    353    360    361   1    112.7000    488.2728
    353    360    385   1    110.7000    313.8000
    359    360    361   1    112.7000    488.2728
    359    360    385   1    110.7000    313.8000
    361    360    385   1    110.7000    313.8000
    360    361    362   1    109.5000    418.4000
    360    361    386   1    110.7000    313.8000
    360    361    387   1    110.7000    313.8000
    362    361    386   1    109.5000    292.8800
    362    361    387   1    109.5000    292.8800
    386    361    387   1    107.8000    276.1440
    361    362    363   1    116.9000    694.5440
    362    363    364   1    123.4000    694.5440
    362    363    365   1    111.4000    677.8080
    364    363    365   1    123.7840    627.6000
    363    365    366   1    119.5260    502.0800
    363    365    373   1    119.5260    502.0800
    366    365    373   1    120.0000    527.1840
    365    366    367   1    120.0000    527.1840
    365    366    388   1    120.0000    292.8800
    367    366    388   1    120.0000    292.8800
    366    367    368   1    120.0000    527.1840
    366    367    389   1    120.0000    292.8800
    368    367    389   1    120.0000    292.8800
    367    368    369   1    119.5260    502.0800
    367    368    372   1    120.0000    527.1840
    369    368    372   1    119.5260    502.0800
    368    369    370   1    123.7840    627.6000
    368    369    371   1    111.4000    677.8080
    370    369    371   1    123.4000    694.5440
    369    371    396   1    112.0000   1004.1600
    368    372    373   1    120.0000    527.1840
    368    372    390   1    120.0000    292.8800
    373    372    390   1    120.0000    292.8800
    365    373    372   1    120.0000    527.1840
    365    373    391   1    120.0000    292.8800
    372    373    391   1    120.0000    292.8800
    393    392    399   1    112.7000    488.2728
    393    392    413   1    110.7000    313.8000
    393    392    414   1    110.7000    313.8000
    399    392    413   1    110.7000    313.8000
    399    392    414   1    110.7000    313.8000
    413    392    414   1    107.8000    276.1440
    392    393    394   1    112.7000    488.2728
    392    393    415   1    110.7000    313.8000
    392    393    416   1    110.7000    313.8000
    394    393    415   1    110.7000    313.8000
    394    393    416   1    110.7000    313.8000
    415    393    416   1    107.8000    276.1440
    393    394    395   1    112.7000    488.2728
    393    394    397   1    112.7000    488.2728
    393    394    417   1    110.7000    313.8000
    395    394    397   1    112.7000    488.2728
    395    394    417   1    110.7000    313.8000
    397    394    417   1    110.7000    313.8000
    394    395    396   1    109.5000    418.4000
    394    395    418   1    110.7000    313.8000
    394    395    419   1    110.7000    313.8000
    396    395    418   1    109.5000    292.8800
    396    395    419   1    109.5000    292.8800
    418    395    419   1    107.8000    276.1440
    371    396    395   1    107.0000   1046.0000
    394    397    398   1    112.7000    488.2728
    394    397    420   1    110.7000    313.8000
    394    397    421   1    110.7000    313.8000
    398    397    420   1    110.7000    313.8000
    398    397    421   1    110.7000    313.8000
    420    397    421   1    107.8000    276.1440
    397    398    399   1    112.7000    488.2728
    397    398    422   1    110.7000    313.8000
    397    398    423   1    110.7000    313.8000
    399    398    422   1    110.7000    313.8000
    399    398    423   1    110.7000    313.8000
    422    398    423   1    107.8000    276.1440
    392    399    398   1    112.7000    488.2728
    392    399    400   1    112.7000    488.2728
    392    399    424   1    110.7000    313.8000
    398    399    400   1    112.7000    488.2728
    398    399    424   1    110.7000    313.8000
    400    399    424   1    110.7000    313.8000
    399    400    401   1    109.5000    418.4000
    399    400    425   1    110.7000    313.8000
    399    400    426   1    110.7000    313.8000
    401    400    425   1    109.5000    292.8800
    401    400    426   1    109.5000    292.8800
    425    400    426   1    107.8000    276.1440
    400    401    402   1    116.9000    694.5440
    401    402    403   1    123.4000    694.5440
    401    402    404   1    111.4000    677.8080
    403    402    404   1    123.7840    627.6000
    402    404    405   1    119.5260    502.0800
    402    404    412   1    119.5260    502.0800
    405    404    412   1    120.0000    527.1840
    404    405    406   1    120.0000    527.1840
    404    405    427   1    120.0000    292.8800
    406    405    427   1    120.0000    292.8800
    405    406    407   1    120.0000    527.1840
    405    406    428   1    120.0000    292.8800
    407    406    428   1    120.0000    292.8800
    406    407    408   1    119.5260    502.0800
    406    407    411   1    120.0000    527.1840
    408    407    411   1    119.5260    502.0800
    407    408    409   1    123.7840    627.6000
    407    408    410   1    111.4000    677.8080
    409    408    410   1    123.4000    694.5440
    408    410    435   1    112.0000   1004.1600
    407    411    412   1    120.0000    527.1840
    407    411    429   1    120.0000    292.8800
    412    411    429   1    120.0000    292.8800
    404    412    411   1    120.0000    527.1840
    404    412    430   1    120.0000    292.8800
    411    412    430   1    120.0000    292.8800
    432    431    438   1    112.7000    488.2728
    432    431    452   1    110.7000    313.8000
    432    431    453   1    110.7000    313.8000
    438    431    452   1    110.7000    313.8000
    438    431    453   1    110.7000    313.8000
    452    431    453   1    107.8000    276.1440
    431    432    433   1    112.7000    488.2728
    431    432    454   1    110.7000    313.8000
    431    432    455   1    110.7000    313.8000
    433    432    454   1    110.7000    313.8000
    433    432    455   1    110.7000    313.8000
    454    432    455   1    107.8000    276.1440
    432    433    434   1    112.7000    488.2728
    432    433    436   1    112.7000    488.2728
    432    433    456   1    110.7000    313.8000
    434    433    436   1    112.7000    488.2728
    434    433    456   1    110.7000    313.8000
    436    433    456   1    110.7000    313.8000
    433    434    435   1    109.5000    418.4000
    433    434    457   1    110.7000    313.8000
    433    434    458   1    110.7000    313.8000
    435    434    457   1    109.5000    292.8800
    435    434    458   1    109.5000    292.8800
    457    434    458   1    107.8000    276.1440
    410    435    434   1    107.0000   1046.0000
    433    436    437   1    112.7000    488.2728
    433    436    459   1    110.7000    313.8000
    433    436    460   1    110.7000    313.8000
    437    436    459   1    110.7000    313.8000
    437    436    460   1    110.7000    313.8000
    459    436    460   1    107.8000    276.1440
    436    437    438   1    112.7000    488.2728
    436    437    461   1    110.7000    313.8000
    436    437    462   1    110.7000    313.8000
    438    437    461   1    110.7000    313.8000
    438    437    462   1    110.7000    313.8000
    461    437    462   1    107.8000    276.1440
    431    438    437   1    112.7000    488.2728
    431    438    439   1    112.7000    488.2728
    431    438    463   1    110.7000    313.8000
    437    438    439   1    112.7000    488.2728
    437    438    463   1    110.7000    313.8000
    439    438    463   1    110.7000    313.8000
    438    439    440   1    109.5000    418.4000
    438    439    464   1    110.7000    313.8000
    438    439    465   1    110.7000    313.8000
    440    439    464   1    109.5000    292.8800
    440    439    465   1    109.5000    292.8800
    464    439    465   1    107.8000    276.1440
    439    440    441   1    116.9000    694.5440
    440    441    442   1    123.4000    694.5440
    440    441    443   1    111.4000    677.8080
    442    441    443   1    123.7840    627.6000
    441    443    444   1    119.5260    502.0800
    441    443    451   1    119.5260    502.0800
    444    443    451   1    120.0000    527.1840
    443    444    445   1    120.0000    527.1840
    443    444    466   1    120.0000    292.8800
    445    444    466   1    120.0000    292.8800
    444    445    446   1    120.0000    527.1840
    444    445    467   1    120.0000    292.8800
    446    445    467   1    120.0000    292.8800
    445    446    447   1    119.5260    502.0800
    445    446    450   1    120.0000    527.1840
    447    446    450   1    119.5260    502.0800
    446    447    448   1    123.7840    627.6000
    446    447    449   1    111.4000    677.8080
    448    447    449   1    123.4000    694.5440
    447    449    474   1    112.0000   1004.1600
    446    450    451   1    120.0000    527.1840
    446    450    468   1    120.0000    292.8800
    451    450    468   1    120.0000    292.8800
    443    451    450   1    120.0000    527.1840
    443    451    469   1    120.0000    292.8800
    450    451    469   1    120.0000    292.8800
    471    470    477   1    112.7000    488.2728
    471    470    491   1    110.7000    313.8000
    471    470    492   1    110.7000    313.8000
    477    470    491   1    110.7000    313.8000
    477    470    492   1    110.7000    313.8000
    491    470    492   1    107.8000    276.1440
    470    471    472   1    112.7000    488.2728
    470    471    493   1    110.7000    313.8000
    470    471    494   1    110.7000    313.8000
    472    471    493   1    110.7000    313.8000
    472    471    494   1    110.7000    313.8000
    493    471    494   1    107.8000    276.1440
    471    472    473   1    112.7000    488.2728
    471    472    475   1    112.7000    488.2728
    471    472    495   1    110.7000    313.8000
    473    472    475   1    112.7000    488.2728
    473    472    495   1    110.7000    313.8000
    475    472    495   1    110.7000    313.8000
    472    473    474   1    109.5000    418.4000
    472    473    496   1    110.7000    313.8000
    472    473    497   1    110.7000    313.8000
    474    473    496   1    109.5000    292.8800
    474    473    497   1    109.5000    292.8800
    496    473    497   1    107.8000    276.1440
    449    474    473   1    107.0000   1046.0000
    472    475    476   1    112.7000    488.2728
    472    475    498   1    110.7000    313.8000
    472    475    499   1    110.7000    313.8000
    476    475    498   1    110.7000    313.8000
    476    475    499   1    110.7000    313.8000
    498    475    499   1    107.8000    276.1440
    475    476    477   1    112.7000    488.2728
    475    476    500   1    110.7000    313.8000
    475    476    501   1    110.7000    313.8000
    477    476    500   1    110.7000    313.8000
    477    476    501   1    110.7000    313.8000
    500    476    501   1    107.8000    276.1440
    470    477    476   1    112.7000    488.2728
    470    477    478   1    112.7000    488.2728
    470    477    502   1    110.7000    313.8000
    476    477    478   1    112.7000    488.2728
    476    477    502   1    110.7000    313.8000
    478    477    502   1    110.7000    313.8000
    477    478    479   1    109.5000    418.4000
    477    478    503   1    110.7000    313.8000
    477    478    504   1    110.7000    313.8000
    479    478    503   1    109.5000    292.8800
    479    478    504   1    109.5000    292.8800
    503    478    504   1    107.8000    276.1440
    478    479    480   1    116.9000    694.5440
    479    480    481   1    123.4000    694.5440
    479    480    482   1    111.4000    677.8080
    481    480    482   1    123.7840    627.6000
    480    482    483   1    119.5260    502.0800
    480    482    490   1    119.5260    502.0800
    483    482    490   1    120.0000    527.1840
    482    483    484   1    120.0000    527.1840
    482    483    505   1    120.0000    292.8800
    484    483    505   1    120.0000    292.8800
    483    484    485   1    120.0000    527.1840
    483    484    506   1    120.0000    292.8800
    485    484    506   1    120.0000    292.8800
    484    485    486   1    119.5260    502.0800
    484    485    489   1    120.0000    527.1840
    486    485    489   1    119.5260    502.0800
    485    486    487   1    123.7840    627.6000
    485    486    488   1    111.4000    677.8080
    487    486    488   1    123.4000    694.5440
    486    488    513   1    112.0000   1004.1600
    485    489    490   1    120.0000    527.1840
    485    489    507   1    120.0000    292.8800
    490    489    507   1    120.0000    292.8800
    482    490    489   1    120.0000    527.1840
    482    490    508   1    120.0000    292.8800
    489    490    508   1    120.0000    292.8800
    510    509    516   1    112.7000    488.2728
    510    509    530   1    110.7000    313.8000
    510    509    531   1    110.7000    313.8000
    516    509    530   1    110.7000    313.8000
    516    509    531   1    110.7000    313.8000
    530    509    531   1    107.8000    276.1440
    509    510    511   1    112.7000    488.2728
    509    510    532   1    110.7000    313.8000
    509    510    533   1    110.7000    313.8000
    511    510    532   1    110.7000    313.8000
    511    510    533   1    110.7000    313.8000
    532    510    533   1    107.8000    276.1440
    510    511    512   1    112.7000    488.2728
    510    511    514   1    112.7000    488.2728
    510    511    534   1    110.7000    313.8000
    512    511    514   1    112.7000    488.2728
    512    511    534   1    110.7000    313.8000
    514    511    534   1    110.7000    313.8000
    511    512    513   1    109.5000    418.4000
    511    512    535   1    110.7000    313.8000
    511    512    536   1    110.7000    313.8000
    513    512    535   1    109.5000    292.8800
    513    512    536   1    109.5000    292.8800
    535    512    536   1    107.8000    276.1440
    488    513    512   1    107.0000   1046.0000
    511    514    515   1    112.7000    488.2728
    511    514    537   1    110.7000    313.8000
    511    514    538   1    110.7000    313.8000
    515    514    537   1    110.7000    313.8000
    515    514    538   1    110.7000    313.8000
    537    514    538   1    107.8000    276.1440
    514    515    516   1    112.7000    488.2728
    514    515    539   1    110.7000    313.8000
    514    515    540   1    110.7000    313.8000
    516    515    539   1    110.7000    313.8000
    516    515    540   1    110.7000    313.8000
    539    515    540   1    107.8000    276.1440
    509    516    515   1    112.7000    488.2728
    509    516    517   1    112.7000    488.2728
    509    516    541   1    110.7000    313.8000
    515    516    517   1    112.7000    488.2728
    515    516    541   1    110.7000    313.8000
    517    516    541   1    110.7000    313.8000
    516    517    518   1    109.5000    418.4000
    516    517    542   1    110.7000    313.8000
    516    517    543   1    110.7000    313.8000
    518    517    542   1    109.5000    292.8800
    518    517    543   1    109.5000    292.8800
    542    517    543   1    107.8000    276.1440
    517    518    519   1    116.9000    694.5440
    518    519    520   1    123.4000    694.5440
    518    519    521   1    111.4000    677.8080
    520    519    521   1    123.7840    627.6000
    519    521    522   1    119.5260    502.0800
    519    521    529   1    119.5260    502.0800
    522    521    529   1    120.0000    527.1840
    521    522    523   1    120.0000    527.1840
    521    522    544   1    120.0000    292.8800
    523    522    544   1    120.0000    292.8800
    522    523    524   1    120.0000    527.1840
    522    523    545   1    120.0000    292.8800
    524    523    545   1    120.0000    292.8800
    523    524    525   1    119.5260    502.0800
    523    524    528   1    120.0000    527.1840
    525    524    528   1    119.5260    502.0800
    524    525    526   1    123.7840    627.6000
    524    525    527   1    111.4000    677.8080
    526    525    527   1    123.4000    694.5440
    525    527    552   1    112.0000   1004.1600
    524    528    529   1    120.0000    527.1840
    524    528    546   1    120.0000    292.8800
    529    528    546   1    120.0000    292.8800
    521    529    528   1    120.0000    527.1840
    521    529    547   1    120.0000    292.8800
    528    529    547   1    120.0000    292.8800
    549    548    555   1    112.7000    488.2728
    549    548    569   1    110.7000    313.8000
    549    548    570   1    110.7000    313.8000
    555    548    569   1    110.7000    313.8000
    555    548    570   1    110.7000    313.8000
    569    548    570   1    107.8000    276.1440
    548    549    550   1    112.7000    488.2728
    548    549    571   1    110.7000    313.8000
    548    549    572   1    110.7000    313.8000
    550    549    571   1    110.7000    313.8000
    550    549    572   1    110.7000    313.8000
    571    549    572   1    107.8000    276.1440
    549    550    551   1    112.7000    488.2728
    549    550    553   1    112.7000    488.2728
    549    550    573   1    110.7000    313.8000
    551    550    553   1    112.7000    488.2728
    551    550    573   1    110.7000    313.8000
    553    550    573   1    110.7000    313.8000
    550    551    552   1    109.5000    418.4000
    550    551    574   1    110.7000    313.8000
    550    551    575   1    110.7000    313.8000
    552    551    574   1    109.5000    292.8800
    552    551    575   1    109.5000    292.8800
    574    551    575   1    107.8000    276.1440
    527    552    551   1    107.0000   1046.0000
    550    553    554   1    112.7000    488.2728
    550    553    576   1    110.7000    313.8000
    550    553    577   1    110.7000    313.8000
    554    553    576   1    110.7000    313.8000
    554    553    577   1    110.7000    313.8000
    576    553    577   1    107.8000    276.1440
    553    554    555   1    112.7000    488.2728
    553    554    578   1    110.7000    313.8000
    553    554    579   1    110.7000    313.8000
    555    554    578   1    110.7000    313.8000
    555    554    579   1    110.7000    313.8000
    578    554    579   1    107.8000    276.1440
    548    555    554   1    112.7000    488.2728
    548    555    556   1    112.7000    488.2728
    548    555    580   1    110.7000    313.8000
    554    555    556   1    112.7000    488.2728
    554    555    580   1    110.7000    313.8000
    556    555    580   1    110.7000    313.8000
    555    556    557   1    109.5000    418.4000
    555    556    581   1    110.7000    313.8000
    555    556    582   1    110.7000    313.8000
    557    556    581   1    109.5000    292.8800
    557    556    582   1    109.5000    292.8800
    581    556    582   1    107.8000    276.1440
    556    557    558   1    116.9000    694.5440
    557    558    559   1    123.4000    694.5440
    557    558    560   1    111.4000    677.8080
    559    558    560   1    123.7840    627.6000
    558    560    561   1    119.5260    502.0800
    558    560    568   1    119.5260    502.0800
    561    560    568   1    120.0000    527.1840
    560    561    562   1    120.0000    527.1840
    560    561    583   1    120.0000    292.8800
    562    561    583   1    120.0000    292.8800
    561    562    563   1    120.0000    527.1840
    561    562    584   1    120.0000    292.8800
    563    562    584   1    120.0000    292.8800
    562    563    564   1    119.5260    502.0800
    562    563    567   1    120.0000    527.1840
    564    563    567   1    119.5260    502.0800
    563    564    565   1    123.7840    627.6000
    563    564    566   1    111.4000    677.8080
    565    564    566   1    123.4000    694.5440
    564    566    591   1    112.0000   1004.1600
    563    567    568   1    120.0000    527.1840
    563    567    585   1    120.0000    292.8800
    568    567    585   1    120.0000    292.8800
    560    568    567   1    120.0000    527.1840
    560    568    586   1    120.0000    292.8800
    567    568    586   1    120.0000    292.8800
    588    587    594   1    112.7000    488.2728
    588    587    608   1    110.7000    313.8000
    588    587    609   1    110.7000    313.8000
    594    587    608   1    110.7000    313.8000
    594    587    609   1    110.7000    313.8000
    608    587    609   1    107.8000    276.1440
    587    588    589   1    112.7000    488.2728
    587    588    610   1    110.7000    313.8000
    587    588    611   1    110.7000    313.8000
    589    588    610   1    110.7000    313.8000
    589    588    611   1    110.7000    313.8000
    610    588    611   1    107.8000    276.1440
    588    589    590   1    112.7000    488.2728
    588    589    592   1    112.7000    488.2728
    588    589    612   1    110.7000    313.8000
    590    589    592   1    112.7000    488.2728
    590    589    612   1    110.7000    313.8000
    592    589    612   1    110.7000    313.8000
    589    590    591   1    109.5000    418.4000
    589    590    613   1    110.7000    313.8000
    589    590    614   1    110.7000    313.8000
    591    590    613   1    109.5000    292.8800
    591    590    614   1    109.5000    292.8800
    613    590    614   1    107.8000    276.1440
    566    591    590   1    107.0000   1046.0000
    589    592    593   1    112.7000    488.2728
    589    592    615   1    110.7000    313.8000
    589    592    616   1    110.7000    313.8000
    593    592    615   1    110.7000    313.8000
    593    592    616   1    110.7000    313.8000
    615    592    616   1    107.8000    276.1440
    592    593    594   1    112.7000    488.2728
    592    593    617   1    110.7000    313.8000
    592    593    618   1    110.7000    313.8000
    594    593    617   1    110.7000    313.8000
    594    593    618   1    110.7000    313.8000
    617    593    618   1    107.8000    276.1440
    587    594    593   1    112.7000    488.2728
    587    594    595   1    112.7000    488.2728
    587    594    619   1    110.7000    313.8000
    593    594    595   1    112.7000    488.2728
    593    594    619   1    110.7000    313.8000
    595    594    619   1    110.7000    313.8000
    594    595    596   1    109.5000    418.4000
    594    595    620   1    110.7000    313.8000
    594    595    621   1    110.7000    313.8000
    596    595    620   1    109.5000    292.8800
    596    595    621   1    109.5000    292.8800
    620    595    621   1    107.8000    276.1440
    595    596    597   1    116.9000    694.5440
    596    597    598   1    123.4000    694.5440
    596    597    599   1    111.4000    677.8080
    598    597    599   1    123.7840    627.6000
    597    599    600   1    119.5260    502.0800
    597    599    607   1    119.5260    502.0800
    600    599    607   1    120.0000    527.1840
    599    600    601   1    120.0000    527.1840
    599    600    622   1    120.0000    292.8800
    601    600    622   1    120.0000    292.8800
    600    601    602   1    120.0000    527.1840
    600    601    623   1    120.0000    292.8800
    602    601    623   1    120.0000    292.8800
    601    602    603   1    119.5260    502.0800
    601    602    606   1    120.0000    527.1840
    603    602    606   1    119.5260    502.0800
    602    603    604   1    123.7840    627.6000
    602    603    605   1    111.4000    677.8080
    604    603    605   1    123.4000    694.5440
    603    605    630   1    112.0000   1004.1600
    602    606    607   1    120.0000    527.1840
    602    606    624   1    120.0000    292.8800
    607    606    624   1    120.0000    292.8800
    599    607    606   1    120.0000    527.1840
    599    607    625   1    120.0000    292.8800
    606    607    625   1    120.0000    292.8800
    627    626    633   1    112.7000    488.2728
    627    626    647   1    110.7000    313.8000
    627    626    648   1    110.7000    313.8000
    633    626    647   1    110.7000    313.8000
    633    626    648   1    110.7000    313.8000
    647    626    648   1    107.8000    276.1440
    626    627    628   1    112.7000    488.2728
    626    627    649   1    110.7000    313.8000
    626    627    650   1    110.7000    313.8000
    628    627    649   1    110.7000    313.8000
    628    627    650   1    110.7000    313.8000
    649    627    650   1    107.8000    276.1440
    627    628    629   1    112.7000    488.2728
    627    628    631   1    112.7000    488.2728
    627    628    651   1    110.7000    313.8000
    629    628    631   1    112.7000    488.2728
    629    628    651   1    110.7000    313.8000
    631    628    651   1    110.7000    313.8000
    628    629    630   1    109.5000    418.4000
    628    629    652   1    110.7000    313.8000
    628    629    653   1    110.7000    313.8000
    630    629    652   1    109.5000    292.8800
    630    629    653   1    109.5000    292.8800
    652    629    653   1    107.8000    276.1440
    605    630    629   1    107.0000   1046.0000
    628    631    632   1    112.7000    488.2728
    628    631    654   1    110.7000    313.8000
    628    631    655   1    110.7000    313.8000
    632    631    654   1    110.7000    313.8000
    632    631    655   1    110.7000    313.8000
    654    631    655   1    107.8000    276.1440
    631    632    633   1    112.7000    488.2728
    631    632    656   1    110.7000    313.8000
    631    632    657   1    110.7000    313.8000
    633    632    656   1    110.7000    313.8000
    633    632    657   1    110.7000    313.8000
    656    632    657   1    107.8000    276.1440
    626    633    632   1    112.7000    488.2728
    626    633    634   1    112.7000    488.2728
    626    633    658   1    110.7000    313.8000
    632    633    634   1    112.7000    488.2728
    632    633    658   1    110.7000    313.8000
    634    633    658   1    110.7000    313.8000
    633    634    635   1    109.5000    418.4000
    633    634    659   1    110.7000    313.8000
    633    634    660   1    110.7000    313.8000
    635    634    659   1    109.5000    292.8800
    635    634    660   1    109.5000    292.8800
    659    634    660   1    107.8000    276.1440
    634    635    636   1    116.9000    694.5440
    635    636    637   1    123.4000    694.5440
    635    636    638   1    111.4000    677.8080
    637    636    638   1    123.7840    627.6000
    636    638    639   1    119.5260    502.0800
    636    638    646   1    119.5260    502.0800
    639    638    646   1    120.0000    527.1840
    638    639    640   1    120.0000    527.1840
    638    639    661   1    120.0000    292.8800
    640    639    661   1    120.0000    292.8800
    639    640    641   1    120.0000    527.1840
    639    640    662   1    120.0000    292.8800
    641    640    662   1    120.0000    292.8800
    640    641    642   1    119.5260    502.0800
    640    641    645   1    120.0000    527.1840
    642    641    645   1    119.5260    502.0800
    641    642    643   1    123.7840    627.6000
    641    642    644   1    111.4000    677.8080
    643    642    644   1    123.4000    694.5440
    642    644    669   1    112.0000   1004.1600
    641    645    646   1    120.0000    527.1840
    641    645    663   1    120.0000    292.8800
    646    645    663   1    120.0000    292.8800
    638    646    645   1    120.0000    527.1840
    638    646    664   1    120.0000    292.8800
    645    646    664   1    120.0000    292.8800
    666    665    672   1    112.7000    488.2728
    666    665    686   1    110.7000    313.8000
    666    665    687   1    110.7000    313.8000
    672    665    686   1    110.7000    313.8000
    672    665    687   1    110.7000    313.8000
    686    665    687   1    107.8000    276.1440
    665    666    667   1    112.7000    488.2728
    665    666    688   1    110.7000    313.8000
    665    666    689   1    110.7000    313.8000
    667    666    688   1    110.7000    313.8000
    667    666    689   1    110.7000    313.8000
    688    666    689   1    107.8000    276.1440
    666    667    668   1    112.7000    488.2728
    666    667    670   1    112.7000    488.2728
    666    667    690   1    110.7000    313.8000
    668    667    670   1    112.7000    488.2728
    668    667    690   1    110.7000    313.8000
    670    667    690   1    110.7000    313.8000
    667    668    669   1    109.5000    418.4000
    667    668    691   1    110.7000    313.8000
    667    668    692   1    110.7000    313.8000
    669    668    691   1    109.5000    292.8800
    669    668    692   1    109.5000    292.8800
    691    668    692   1    107.8000    276.1440
    644    669    668   1    107.0000   1046.0000
    667    670    671   1    112.7000    488.2728
    667    670    693   1    110.7000    313.8000
    667    670    694   1    110.7000    313.8000
    671    670    693   1    110.7000    313.8000
    671    670    694   1    110.7000    313.8000
    693    670    694   1    107.8000    276.1440
    670    671    672   1    112.7000    488.2728
    670    671    695   1    110.7000    313.8000
    670    671    696   1    110.7000    313.8000
    672    671    695   1    110.7000    313.8000
    672    671    696   1    110.7000    313.8000
    695    671    696   1    107.8000    276.1440
    665    672    671   1    112.7000    488.2728
    665    672    673   1    112.7000    488.2728
    665    672    697   1    110.7000    313.8000
    671    672    673   1    112.7000    488.2728
    671    672    697   1    110.7000    313.8000
    673    672    697   1    110.7000    313.8000
    672    673    674   1    109.5000    418.4000
    672    673    698   1    110.7000    313.8000
    672    673    699   1    110.7000    313.8000
    674    673    698   1    109.5000    292.8800
    674    673    699   1    109.5000    292.8800
    698    673    699   1    107.8000    276.1440
    673    674    675   1    116.9000    694.5440
    674    675    676   1    123.4000    694.5440
    674    675    677   1    111.4000    677.8080
    676    675    677   1    123.7840    627.6000
    675    677    678   1    119.5260    502.0800
    675    677    685   1    119.5260    502.0800
    678    677    685   1    120.0000    527.1840
    677    678    679   1    120.0000    527.1840
    677    678    700   1    120.0000    292.8800
    679    678    700   1    120.0000    292.8800
    678    679    680   1    120.0000    527.1840
    678    679    701   1    120.0000    292.8800
    680    679    701   1    120.0000    292.8800
    679    680    681   1    119.5260    502.0800
    679    680    684   1    120.0000    527.1840
    681    680    684   1    119.5260    502.0800
    680    681    682   1    123.7840    627.6000
    680    681    683   1    111.4000    677.8080
    682    681    683   1    123.4000    694.5440
    681    683    708   1    112.0000   1004.1600
    680    684    685   1    120.0000    527.1840
    680    684    702   1    120.0000    292.8800
    685    684    702   1    120.0000    292.8800
    677    685    684   1    120.0000    527.1840
    677    685    703   1    120.0000    292.8800
    684    685    703   1    120.0000    292.8800
    705    704    711   1    112.7000    488.2728
    705    704    725   1    110.7000    313.8000
    705    704    726   1    110.7000    313.8000
    711    704    725   1    110.7000    313.8000
    711    704    726   1    110.7000    313.8000
    725    704    726   1    107.8000    276.1440
    704    705    706   1    112.7000    488.2728
    704    705    727   1    110.7000    313.8000
    704    705    728   1    110.7000    313.8000
    706    705    727   1    110.7000    313.8000
    706    705    728   1    110.7000    313.8000
    727    705    728   1    107.8000    276.1440
    705    706    707   1    112.7000    488.2728
    705    706    709   1    112.7000    488.2728
    705    706    729   1    110.7000    313.8000
    707    706    709   1    112.7000    488.2728
    707    706    729   1    110.7000    313.8000
    709    706    729   1    110.7000    313.8000
    706    707    708   1    109.5000    418.4000
    706    707    730   1    110.7000    313.8000
    706    707    731   1    110.7000    313.8000
    708    707    730   1    109.5000    292.8800
    708    707    731   1    109.5000    292.8800
    730    707    731   1    107.8000    276.1440
    683    708    707   1    107.0000   1046.0000
    706    709    710   1    112.7000    488.2728
    706    709    732   1    110.7000    313.8000
    706    709    733   1    110.7000    313.8000
    710    709    732   1    110.7000    313.8000
    710    709    733   1    110.7000    313.8000
    732    709    733   1    107.8000    276.1440
    709    710    711   1    112.7000    488.2728
    709    710    734   1    110.7000    313.8000
    709    710    735   1    110.7000    313.8000
    711    710    734   1    110.7000    313.8000
    711    710    735   1    110.7000    313.8000
    734    710    735   1    107.8000    276.1440
    704    711    710   1    112.7000    488.2728
    704    711    712   1    112.7000    488.2728
    704    711    736   1    110.7000    313.8000
    710    711    712   1    112.7000    488.2728
    710    711    736   1    110.7000    313.8000
    712    711    736   1    110.7000    313.8000
    711    712    713   1    109.5000    418.4000
    711    712    737   1    110.7000    313.8000
    711    712    738   1    110.7000    313.8000
    713    712    737   1    109.5000    292.8800
    713    712    738   1    109.5000    292.8800
    737    712    738   1    107.8000    276.1440
    712    713    714   1    116.9000    694.5440
    713    714    715   1    123.4000    694.5440
    713    714    716   1    111.4000    677.8080
    715    714    716   1    123.7840    627.6000
    714    716    717   1    119.5260    502.0800
    714    716    724   1    119.5260    502.0800
    717    716    724   1    120.0000    527.1840
    716    717    718   1    120.0000    527.1840
    716    717    739   1    120.0000    292.8800
    718    717    739   1    120.0000    292.8800
    717    718    719   1    120.0000    527.1840
    717    718    740   1    120.0000    292.8800
    719    718    740   1    120.0000    292.8800
    718    719    720   1    119.5260    502.0800
    718    719    723   1    120.0000    527.1840
    720    719    723   1    119.5260    502.0800
    719    720    721   1    123.7840    627.6000
    719    720    722   1    111.4000    677.8080
    721    720    722   1    123.4000    694.5440
    720    722    747   1    112.0000   1004.1600
    719    723    724   1    120.0000    527.1840
    719    723    741   1    120.0000    292.8800
    724    723    741   1    120.0000    292.8800
    716    724    723   1    120.0000    527.1840
    716    724    742   1    120.0000    292.8800
    723    724    742   1    120.0000    292.8800
    744    743    750   1    112.7000    488.2728
    744    743    764   1    110.7000    313.8000
    744    743    765   1    110.7000    313.8000
    750    743    764   1    110.7000    313.8000
    750    743    765   1    110.7000    313.8000
    764    743    765   1    107.8000    276.1440
    743    744    745   1    112.7000    488.2728
    743    744    766   1    110.7000    313.8000
    743    744    767   1    110.7000    313.8000
    745    744    766   1    110.7000    313.8000
    745    744    767   1    110.7000    313.8000
    766    744    767   1    107.8000    276.1440
    744    745    746   1    112.7000    488.2728
    744    745    748   1    112.7000    488.2728
    744    745    768   1    110.7000    313.8000
    746    745    748   1    112.7000    488.2728
    746    745    768   1    110.7000    313.8000
    748    745    768   1    110.7000    313.8000
    745    746    747   1    109.5000    418.4000
    745    746    769   1    110.7000    313.8000
    745    746    770   1    110.7000    313.8000
    747    746    769   1    109.5000    292.8800
    747    746    770   1    109.5000    292.8800
    769    746    770   1    107.8000    276.1440
    722    747    746   1    107.0000   1046.0000
    745    748    749   1    112.7000    488.2728
    745    748    771   1    110.7000    313.8000
    745    748    772   1    110.7000    313.8000
    749    748    771   1    110.7000    313.8000
    749    748    772   1    110.7000    313.8000
    771    748    772   1    107.8000    276.1440
    748    749    750   1    112.7000    488.2728
    748    749    773   1    110.7000    313.8000
    748    749    774   1    110.7000    313.8000
    750    749    773   1    110.7000    313.8000
    750    749    774   1    110.7000    313.8000
    773    749    774   1    107.8000    276.1440
    743    750    749   1    112.7000    488.2728
    743    750    751   1    112.7000    488.2728
    743    750    775   1    110.7000    313.8000
    749    750    751   1    112.7000    488.2728
    749    750    775   1    110.7000    313.8000
    751    750    775   1    110.7000    313.8000
    750    751    752   1    109.5000    418.4000
    750    751    776   1    110.7000    313.8000
    750    751    777   1    110.7000    313.8000
    752    751    776   1    109.5000    292.8800
    752    751    777   1    109.5000    292.8800
    776    751    777   1    107.8000    276.1440
    751    752    753   1    116.9000    694.5440
    752    753    754   1    123.4000    694.5440
    752    753    755   1    111.4000    677.8080
    754    753    755   1    123.7840    627.6000
    753    755    756   1    119.5260    502.0800
    753    755    763   1    119.5260    502.0800
    756    755    763   1    120.0000    527.1840
    755    756    757   1    120.0000    527.1840
    755    756    778   1    120.0000    292.8800
    757    756    778   1    120.0000    292.8800
    756    757    758   1    120.0000    527.1840
    756    757    779   1    120.0000    292.8800
    758    757    779   1    120.0000    292.8800
    757    758    759   1    120.0000    711.2800
    757    758    762   1    120.0000    527.1840
    759    758    762   1    120.0000    711.2800
    758    759    760   1    120.4000    669.4400
    758    759    761   1    111.8800    711.2800
    760    759    761   1    123.3200    836.8000
    759    761    782   1    113.0000    292.8800
    758    762    763   1    120.0000    527.1840
    758    762    780   1    120.0000    292.8800
    763    762    780   1    120.0000    292.8800
    755    763    762   1    120.0000    527.1840
    755    763    781   1    120.0000    292.8800
    762    763    781   1    120.0000    292.8800

[ dihedrals ]
; Proper dihedrals
      8      1      2      3   5     4.74884    -0.63178     1.67360  0.0
      8      1      2     24   5     0.00000     0.00000     1.25520  0.0
      8      1      2     25   5     0.00000     0.00000     1.25520  0.0
     22      1      2      3   5     0.00000     0.00000     1.25520  0.0
     22      1      2     24   5     0.00000     0.00000     1.25520  0.0
     22      1      2     25   5     0.00000     0.00000     1.25520  0.0
     23      1      2      3   5     0.00000     0.00000     1.25520  0.0
     23      1      2     24   5     0.00000     0.00000     1.25520  0.0
     23      1      2     25   5     0.00000     0.00000     1.25520  0.0
      2      1      8      7   5     4.74884    -0.63178     1.67360  0.0
      2      1      8      9   5     4.74884    -0.63178     1.67360  0.0
      2      1      8     33   5     0.00000     0.00000     1.25520  0.0
     22      1      8      7   5     0.00000     0.00000     1.25520  0.0
     22      1      8      9   5     0.00000     0.00000     1.25520  0.0
     22      1      8     33   5     0.00000     0.00000     1.25520  0.0
     23      1      8      7   5     0.00000     0.00000     1.25520  0.0
     23      1      8      9   5     0.00000     0.00000     1.25520  0.0
     23      1      8     33   5     0.00000     0.00000     1.25520  0.0
      1      2      3      4   5     4.74884    -0.63178     1.67360  0.0
      1      2      3      6   5     4.74884    -0.63178     1.67360  0.0
      1      2      3     26   5     0.00000     0.00000     1.25520  0.0
     24      2      3      4   5     0.00000     0.00000     1.25520  0.0
     24      2      3      6   5     0.00000     0.00000     1.25520  0.0
     24      2      3     26   5     0.00000     0.00000     1.25520  0.0
     25      2      3      4   5     0.00000     0.00000     1.25520  0.0
     25      2      3      6   5     0.00000     0.00000     1.25520  0.0
     25      2      3     26   5     0.00000     0.00000     1.25520  0.0
      2      3      4      5   5     7.23832    -1.46440     1.74054  0.0
      2      3      4     27   5     0.00000     0.00000     1.25520  0.0
      2      3      4     28   5     0.00000     0.00000     1.25520  0.0
      6      3      4      5   5     7.23832    -1.46440     1.74054  0.0
      6      3      4     27   5     0.00000     0.00000     1.25520  0.0
      6      3      4     28   5     0.00000     0.00000     1.25520  0.0
     26      3      4      5   5     0.00000     0.00000     1.95811  0.0
     26      3      4     27   5     0.00000     0.00000     1.25520  0.0
     26      3      4     28   5     0.00000     0.00000     1.25520  0.0
      2      3      6      7   5     4.74884    -0.63178     1.67360  0.0
      2      3      6     29   5     0.00000     0.00000     1.25520  0.0
      2      3      6     30   5     0.00000     0.00000     1.25520  0.0
      4      3      6      7   5     4.74884    -0.63178     1.67360  0.0
      4      3      6     29   5     0.00000     0.00000     1.25520  0.0
      4      3      6     30   5     0.00000     0.00000     1.25520  0.0
     26      3      6      7   5     0.00000     0.00000     1.25520  0.0
     26      3      6     29   5     0.00000     0.00000     1.25520  0.0
     26      3      6     30   5     0.00000     0.00000     1.25520  0.0
      3      4      5     40   5    -0.97069    -0.79078     1.77820  0.0
     27      4      5     40   5     0.00000     0.00000     1.62758  0.0
     28      4      5     40   5     0.00000     0.00000     1.62758  0.0
      3      6      7      8   5     4.74884    -0.63178     1.67360  0.0
      3      6      7     31   5     0.00000     0.00000     1.25520  0.0
      3      6      7     32   5     0.00000     0.00000     1.25520  0.0
     29      6      7      8   5     0.00000     0.00000     1.25520  0.0
     29      6      7     31   5     0.00000     0.00000     1.25520  0.0
     29      6      7     32   5     0.00000     0.00000     1.25520  0.0
     30      6      7      8   5     0.00000     0.00000     1.25520  0.0
     30      6      7     31   5     0.00000     0.00000     1.25520  0.0
     30      6      7     32   5     0.00000     0.00000     1.25520  0.0
      6      7      8      1   5     4.74884    -0.63178     1.67360  0.0
      6      7      8      9   5     4.74884    -0.63178     1.67360  0.0
      6      7      8     33   5     0.00000     0.00000     1.25520  0.0
     31      7      8      1   5     0.00000     0.00000     1.25520  0.0
     31      7      8      9   5     0.00000     0.00000     1.25520  0.0
     31      7      8     33   5     0.00000     0.00000     1.25520  0.0
     32      7      8      1   5     0.00000     0.00000     1.25520  0.0
     32      7      8      9   5     0.00000     0.00000     1.25520  0.0
     32      7      8     33   5     0.00000     0.00000     1.25520  0.0
      1      8      9     10   5     5.25092    -2.58990     2.28446  0.0
      1      8      9     34   5     0.00000     0.00000     1.25520  0.0
      1      8      9     35   5     0.00000     0.00000     1.25520  0.0
      7      8      9     10   5     5.25092    -2.58990     2.28446  0.0
      7      8      9     34   5     0.00000     0.00000     1.25520  0.0
      7      8      9     35   5     0.00000     0.00000     1.25520  0.0
     33      8      9     10   5     0.00000     0.00000     1.95811  0.0
     33      8      9     34   5     0.00000     0.00000     1.25520  0.0
     33      8      9     35   5     0.00000     0.00000     1.25520  0.0
      8      9     10     11   5    -2.16731    -3.93296     0.98324  0.0
     34      9     10     11   5     0.00000     0.00000     0.67362  0.0
     35      9     10     11   5     0.00000     0.00000     0.67362  0.0
      9     10     11     12   5     0.00000    25.10400     0.00000  0.0
      9     10     11     13   5     5.01662    27.18345     0.00000  0.0
     10     11     13     14   5     0.00000     8.26340     0.00000  0.0
     10     11     13     21   5     0.00000     8.26340     0.00000  0.0
     12     11     13     14   5     0.00000     8.78640     0.00000  0.0
     12     11     13     21   5     0.00000     8.78640     0.00000  0.0
     11     13     14     15   5     0.00000    30.33400     0.00000  0.0
     11     13     14     36   5     0.00000    30.33400     0.00000  0.0
     21     13     14     15   5     0.00000    30.33400     0.00000  0.0
     21     13     14     36   5     0.00000    30.33400     0.00000  0.0
     11     13     21     20   5     0.00000    30.33400     0.00000  0.0
     11     13     21     39   5     0.00000    30.33400     0.00000  0.0
     14     13     21     20   5     0.00000    30.33400     0.00000  0.0
     14     13     21     39   5     0.00000    30.33400     0.00000  0.0
     13     14     15     16   5     0.00000    30.33400     0.00000  0.0
     13     14     15     37   5     0.00000    30.33400     0.00000  0.0
     36     14     15     16   5     0.00000    30.33400     0.00000  0.0
     36     14     15     37   5     0.00000    30.33400     0.00000  0.0
     14     15     16     17   5     0.00000    30.33400     0.00000  0.0
     14     15     16     20   5     0.00000    30.33400     0.00000  0.0
     37     15     16     17   5     0.00000    30.33400     0.00000  0.0
     37     15     16     20   5     0.00000    30.33400     0.00000  0.0
     15     16     17     18   5     0.00000     8.78640     0.00000  0.0
     15     16     17     19   5     0.00000     8.26340     0.00000  0.0
     20     16     17     18   5     0.00000     8.78640     0.00000  0.0
     20     16     17     19   5     0.00000     8.26340     0.00000  0.0
     15     16     20     21   5     0.00000    30.33400     0.00000  0.0
     15     16     20     38   5     0.00000    30.33400     0.00000  0.0
     17     16     20     21   5     0.00000    30.33400     0.00000  0.0
     17     16     20     38   5     0.00000    30.33400     0.00000  0.0
     16     17     19     45   5     0.00000    16.73600     0.00000  0.0
     18     17     19     45   5     0.00000    25.10400     0.00000  0.0
     17     19     45     44   5     0.00000   -20.92000     0.00000  0.0
     16     20     21     13   5     0.00000    30.33400     0.00000  0.0
     16     20     21     39   5     0.00000    30.33400     0.00000  0.0
     38     20     21     13   5     0.00000    30.33400     0.00000  0.0
     38     20     21     39   5     0.00000    30.33400     0.00000  0.0
     48     41     42     43   5     4.74884    -0.63178     1.67360  0.0
     48     41     42     64   5     0.00000     0.00000     1.25520  0.0
     48     41     42     65   5     0.00000     0.00000     1.25520  0.0
     62     41     42     43   5     0.00000     0.00000     1.25520  0.0
     62     41     42     64   5     0.00000     0.00000     1.25520  0.0
     62     41     42     65   5     0.00000     0.00000     1.25520  0.0
     63     41     42     43   5     0.00000     0.00000     1.25520  0.0
     63     41     42     64   5     0.00000     0.00000     1.25520  0.0
     63     41     42     65   5     0.00000     0.00000     1.25520  0.0
     42     41     48     47   5     4.74884    -0.63178     1.67360  0.0
     42     41     48     49   5     4.74884    -0.63178     1.67360  0.0
     42     41     48     73   5     0.00000     0.00000     1.25520  0.0
     62     41     48     47   5     0.00000     0.00000     1.25520  0.0
     62     41     48     49   5     0.00000     0.00000     1.25520  0.0
     62     41     48     73   5     0.00000     0.00000     1.25520  0.0
     63     41     48     47   5     0.00000     0.00000     1.25520  0.0
     63     41     48     49   5     0.00000     0.00000     1.25520  0.0
     63     41     48     73   5     0.00000     0.00000     1.25520  0.0
     41     42     43     44   5     4.74884    -0.63178     1.67360  0.0
     41     42     43     46   5     4.74884    -0.63178     1.67360  0.0
     41     42     43     66   5     0.00000     0.00000     1.25520  0.0
     64     42     43     44   5     0.00000     0.00000     1.25520  0.0
     64     42     43     46   5     0.00000     0.00000     1.25520  0.0
     64     42     43     66   5     0.00000     0.00000     1.25520  0.0
     65     42     43     44   5     0.00000     0.00000     1.25520  0.0
     65     42     43     46   5     0.00000     0.00000     1.25520  0.0
     65     42     43     66   5     0.00000     0.00000     1.25520  0.0
     42     43     44     45   5     5.25092    -2.58990     2.28446  0.0
     42     43     44     67   5     0.00000     0.00000     1.25520  0.0
     42     43     44     68   5     0.00000     0.00000     1.25520  0.0
     46     43     44     45   5     5.25092    -2.58990     2.28446  0.0
     46     43     44     67   5     0.00000     0.00000     1.25520  0.0
     46     43     44     68   5     0.00000     0.00000     1.25520  0.0
     66     43     44     45   5     0.00000     0.00000     1.95811  0.0
     66     43     44     67   5     0.00000     0.00000     1.25520  0.0
     66     43     44     68   5     0.00000     0.00000     1.25520  0.0
     42     43     46     47   5     4.74884    -0.63178     1.67360  0.0
     42     43     46     69   5     0.00000     0.00000     1.25520  0.0
     42     43     46     70   5     0.00000     0.00000     1.25520  0.0
     44     43     46     47   5     4.74884    -0.63178     1.67360  0.0
     44     43     46     69   5     0.00000     0.00000     1.25520  0.0
     44     43     46     70   5     0.00000     0.00000     1.25520  0.0
     66     43     46     47   5     0.00000     0.00000     1.25520  0.0
     66     43     46     69   5     0.00000     0.00000     1.25520  0.0
     66     43     46     70   5     0.00000     0.00000     1.25520  0.0
     43     44     45     19   5     0.00000     0.00000     3.13800  0.0
     67     44     45     19   5     0.00000     0.00000     3.13800  0.0
     68     44     45     19   5     0.00000     0.00000     3.13800  0.0
     43     46     47     48   5     4.74884    -0.63178     1.67360  0.0
     43     46     47     71   5     0.00000     0.00000     1.25520  0.0
     43     46     47     72   5     0.00000     0.00000     1.25520  0.0
     69     46     47     48   5     0.00000     0.00000     1.25520  0.0
     69     46     47     71   5     0.00000     0.00000     1.25520  0.0
     69     46     47     72   5     0.00000     0.00000     1.25520  0.0
     70     46     47     48   5     0.00000     0.00000     1.25520  0.0
     70     46     47     71   5     0.00000     0.00000     1.25520  0.0
     70     46     47     72   5     0.00000     0.00000     1.25520  0.0
     46     47     48     41   5     4.74884    -0.63178     1.67360  0.0
     46     47     48     49   5     4.74884    -0.63178     1.67360  0.0
     46     47     48     73   5     0.00000     0.00000     1.25520  0.0
     71     47     48     41   5     0.00000     0.00000     1.25520  0.0
     71     47     48     49   5     0.00000     0.00000     1.25520  0.0
     71     47     48     73   5     0.00000     0.00000     1.25520  0.0
     72     47     48     41   5     0.00000     0.00000     1.25520  0.0
     72     47     48     49   5     0.00000     0.00000     1.25520  0.0
     72     47     48     73   5     0.00000     0.00000     1.25520  0.0
     41     48     49     50   5     5.25092    -2.58990     2.28446  0.0
     41     48     49     74   5     0.00000     0.00000     1.25520  0.0
     41     48     49     75   5     0.00000     0.00000     1.25520  0.0
     47     48     49     50   5     5.25092    -2.58990     2.28446  0.0
     47     48     49     74   5     0.00000     0.00000     1.25520  0.0
     47     48     49     75   5     0.00000     0.00000     1.25520  0.0
     73     48     49     50   5     0.00000     0.00000     1.95811  0.0
     73     48     49     74   5     0.00000     0.00000     1.25520  0.0
     73     48     49     75   5     0.00000     0.00000     1.25520  0.0
     48     49     50     51   5    -2.16731    -3.93296     0.98324  0.0
     74     49     50     51   5     0.00000     0.00000     0.67362  0.0
     75     49     50     51   5     0.00000     0.00000     0.67362  0.0
     49     50     51     52   5     0.00000    25.10400     0.00000  0.0
     49     50     51     53   5     5.01662    27.18345     0.00000  0.0
     50     51     53     54   5     0.00000     8.26340     0.00000  0.0
     50     51     53     61   5     0.00000     8.26340     0.00000  0.0
     52     51     53     54   5     0.00000     8.78640     0.00000  0.0
     52     51     53     61   5     0.00000     8.78640     0.00000  0.0
     51     53     54     55   5     0.00000    30.33400     0.00000  0.0
     51     53     54     76   5     0.00000    30.33400     0.00000  0.0
     61     53     54     55   5     0.00000    30.33400     0.00000  0.0
     61     53     54     76   5     0.00000    30.33400     0.00000  0.0
     51     53     61     60   5     0.00000    30.33400     0.00000  0.0
     51     53     61     79   5     0.00000    30.33400     0.00000  0.0
     54     53     61     60   5     0.00000    30.33400     0.00000  0.0
     54     53     61     79   5     0.00000    30.33400     0.00000  0.0
     53     54     55     56   5     0.00000    30.33400     0.00000  0.0
     53     54     55     77   5     0.00000    30.33400     0.00000  0.0
     76     54     55     56   5     0.00000    30.33400     0.00000  0.0
     76     54     55     77   5     0.00000    30.33400     0.00000  0.0
     54     55     56     57   5     0.00000    30.33400     0.00000  0.0
     54     55     56     60   5     0.00000    30.33400     0.00000  0.0
     77     55     56     57   5     0.00000    30.33400     0.00000  0.0
     77     55     56     60   5     0.00000    30.33400     0.00000  0.0
     55     56     57     58   5     0.00000     8.78640     0.00000  0.0
     55     56     57     59   5     0.00000     8.26340     0.00000  0.0
     60     56     57     58   5     0.00000     8.78640     0.00000  0.0
     60     56     57     59   5     0.00000     8.26340     0.00000  0.0
     55     56     60     61   5     0.00000    30.33400     0.00000  0.0
     55     56     60     78   5     0.00000    30.33400     0.00000  0.0
     57     56     60     61   5     0.00000    30.33400     0.00000  0.0
     57     56     60     78   5     0.00000    30.33400     0.00000  0.0
     56     57     59     84   5     0.00000    16.73600     0.00000  0.0
     58     57     59     84   5     0.00000    25.10400     0.00000  0.0
     57     59     84     83   5     0.00000   -20.92000     0.00000  0.0
     56     60     61     53   5     0.00000    30.33400     0.00000  0.0
     56     60     61     79   5     0.00000    30.33400     0.00000  0.0
     78     60     61     53   5     0.00000    30.33400     0.00000  0.0
     78     60     61     79   5     0.00000    30.33400     0.00000  0.0
     87     80     81     82   5     4.74884    -0.63178     1.67360  0.0
     87     80     81    103   5     0.00000     0.00000     1.25520  0.0
     87     80     81    104   5     0.00000     0.00000     1.25520  0.0
    101     80     81     82   5     0.00000     0.00000     1.25520  0.0
    101     80     81    103   5     0.00000     0.00000     1.25520  0.0
    101     80     81    104   5     0.00000     0.00000     1.25520  0.0
    102     80     81     82   5     0.00000     0.00000     1.25520  0.0
    102     80     81    103   5     0.00000     0.00000     1.25520  0.0
    102     80     81    104   5     0.00000     0.00000     1.25520  0.0
     81     80     87     86   5     4.74884    -0.63178     1.67360  0.0
     81     80     87     88   5     4.74884    -0.63178     1.67360  0.0
     81     80     87    112   5     0.00000     0.00000     1.25520  0.0
    101     80     87     86   5     0.00000     0.00000     1.25520  0.0
    101     80     87     88   5     0.00000     0.00000     1.25520  0.0
    101     80     87    112   5     0.00000     0.00000     1.25520  0.0
    102     80     87     86   5     0.00000     0.00000     1.25520  0.0
    102     80     87     88   5     0.00000     0.00000     1.25520  0.0
    102     80     87    112   5     0.00000     0.00000     1.25520  0.0
     80     81     82     83   5     4.74884    -0.63178     1.67360  0.0
     80     81     82     85   5     4.74884    -0.63178     1.67360  0.0
     80     81     82    105   5     0.00000     0.00000     1.25520  0.0
    103     81     82     83   5     0.00000     0.00000     1.25520  0.0
    103     81     82     85   5     0.00000     0.00000     1.25520  0.0
    103     81     82    105   5     0.00000     0.00000     1.25520  0.0
    104     81     82     83   5     0.00000     0.00000     1.25520  0.0
    104     81     82     85   5     0.00000     0.00000     1.25520  0.0
    104     81     82    105   5     0.00000     0.00000     1.25520  0.0
     81     82     83     84   5     5.25092    -2.58990     2.28446  0.0
     81     82     83    106   5     0.00000     0.00000     1.25520  0.0
     81     82     83    107   5     0.00000     0.00000     1.25520  0.0
     85     82     83     84   5     5.25092    -2.58990     2.28446  0.0
     85     82     83    106   5     0.00000     0.00000     1.25520  0.0
     85     82     83    107   5     0.00000     0.00000     1.25520  0.0
    105     82     83     84   5     0.00000     0.00000     1.95811  0.0
    105     82     83    106   5     0.00000     0.00000     1.25520  0.0
    105     82     83    107   5     0.00000     0.00000     1.25520  0.0
     81     82     85     86   5     4.74884    -0.63178     1.67360  0.0
     81     82     85    108   5     0.00000     0.00000     1.25520  0.0
     81     82     85    109   5     0.00000     0.00000     1.25520  0.0
     83     82     85     86   5     4.74884    -0.63178     1.67360  0.0
     83     82     85    108   5     0.00000     0.00000     1.25520  0.0
     83     82     85    109   5     0.00000     0.00000     1.25520  0.0
    105     82     85     86   5     0.00000     0.00000     1.25520  0.0
    105     82     85    108   5     0.00000     0.00000     1.25520  0.0
    105     82     85    109   5     0.00000     0.00000     1.25520  0.0
     82     83     84     59   5     0.00000     0.00000     3.13800  0.0
    106     83     84     59   5     0.00000     0.00000     3.13800  0.0
    107     83     84     59   5     0.00000     0.00000     3.13800  0.0
     82     85     86     87   5     4.74884    -0.63178     1.67360  0.0
     82     85     86    110   5     0.00000     0.00000     1.25520  0.0
     82     85     86    111   5     0.00000     0.00000     1.25520  0.0
    108     85     86     87   5     0.00000     0.00000     1.25520  0.0
    108     85     86    110   5     0.00000     0.00000     1.25520  0.0
    108     85     86    111   5     0.00000     0.00000     1.25520  0.0
    109     85     86     87   5     0.00000     0.00000     1.25520  0.0
    109     85     86    110   5     0.00000     0.00000     1.25520  0.0
    109     85     86    111   5     0.00000     0.00000     1.25520  0.0
     85     86     87     80   5     4.74884    -0.63178     1.67360  0.0
     85     86     87     88   5     4.74884    -0.63178     1.67360  0.0
     85     86     87    112   5     0.00000     0.00000     1.25520  0.0
    110     86     87     80   5     0.00000     0.00000     1.25520  0.0
    110     86     87     88   5     0.00000     0.00000     1.25520  0.0
    110     86     87    112   5     0.00000     0.00000     1.25520  0.0
    111     86     87     80   5     0.00000     0.00000     1.25520  0.0
    111     86     87     88   5     0.00000     0.00000     1.25520  0.0
    111     86     87    112   5     0.00000     0.00000     1.25520  0.0
     80     87     88     89   5     5.25092    -2.58990     2.28446  0.0
     80     87     88    113   5     0.00000     0.00000     1.25520  0.0
     80     87     88    114   5     0.00000     0.00000     1.25520  0.0
     86     87     88     89   5     5.25092    -2.58990     2.28446  0.0
     86     87     88    113   5     0.00000     0.00000     1.25520  0.0
     86     87     88    114   5     0.00000     0.00000     1.25520  0.0
    112     87     88     89   5     0.00000     0.00000     1.95811  0.0
    112     87     88    113   5     0.00000     0.00000     1.25520  0.0
    112     87     88    114   5     0.00000     0.00000     1.25520  0.0
     87     88     89     90   5    -2.16731    -3.93296     0.98324  0.0
    113     88     89     90   5     0.00000     0.00000     0.67362  0.0
    114     88     89     90   5     0.00000     0.00000     0.67362  0.0
     88     89     90     91   5     0.00000    25.10400     0.00000  0.0
     88     89     90     92   5     5.01662    27.18345     0.00000  0.0
     89     90     92     93   5     0.00000     8.26340     0.00000  0.0
     89     90     92    100   5     0.00000     8.26340     0.00000  0.0
     91     90     92     93   5     0.00000     8.78640     0.00000  0.0
     91     90     92    100   5     0.00000     8.78640     0.00000  0.0
     90     92     93     94   5     0.00000    30.33400     0.00000  0.0
     90     92     93    115   5     0.00000    30.33400     0.00000  0.0
    100     92     93     94   5     0.00000    30.33400     0.00000  0.0
    100     92     93    115   5     0.00000    30.33400     0.00000  0.0
     90     92    100     99   5     0.00000    30.33400     0.00000  0.0
     90     92    100    118   5     0.00000    30.33400     0.00000  0.0
     93     92    100     99   5     0.00000    30.33400     0.00000  0.0
     93     92    100    118   5     0.00000    30.33400     0.00000  0.0
     92     93     94     95   5     0.00000    30.33400     0.00000  0.0
     92     93     94    116   5     0.00000    30.33400     0.00000  0.0
    115     93     94     95   5     0.00000    30.33400     0.00000  0.0
    115     93     94    116   5     0.00000    30.33400     0.00000  0.0
     93     94     95     96   5     0.00000    30.33400     0.00000  0.0
     93     94     95     99   5     0.00000    30.33400     0.00000  0.0
    116     94     95     96   5     0.00000    30.33400     0.00000  0.0
    116     94     95     99   5     0.00000    30.33400     0.00000  0.0
     94     95     96     97   5     0.00000     8.78640     0.00000  0.0
     94     95     96     98   5     0.00000     8.26340     0.00000  0.0
     99     95     96     97   5     0.00000     8.78640     0.00000  0.0
     99     95     96     98   5     0.00000     8.26340     0.00000  0.0
     94     95     99    100   5     0.00000    30.33400     0.00000  0.0
     94     95     99    117   5     0.00000    30.33400     0.00000  0.0
     96     95     99    100   5     0.00000    30.33400     0.00000  0.0
     96     95     99    117   5     0.00000    30.33400     0.00000  0.0
     95     96     98    123   5     0.00000    16.73600     0.00000  0.0
     97     96     98    123   5     0.00000    25.10400     0.00000  0.0
     96     98    123    122   5     0.00000   -20.92000     0.00000  0.0
     95     99    100     92   5     0.00000    30.33400     0.00000  0.0
     95     99    100    118   5     0.00000    30.33400     0.00000  0.0
    117     99    100     92   5     0.00000    30.33400     0.00000  0.0
    117     99    100    118   5     0.00000    30.33400     0.00000  0.0
    126    119    120    121   5     4.74884    -0.63178     1.67360  0.0
    126    119    120    142   5     0.00000     0.00000     1.25520  0.0
    126    119    120    143   5     0.00000     0.00000     1.25520  0.0
    140    119    120    121   5     0.00000     0.00000     1.25520  0.0
    140    119    120    142   5     0.00000     0.00000     1.25520  0.0
    140    119    120    143   5     0.00000     0.00000     1.25520  0.0
    141    119    120    121   5     0.00000     0.00000     1.25520  0.0
    141    119    120    142   5     0.00000     0.00000     1.25520  0.0
    141    119    120    143   5     0.00000     0.00000     1.25520  0.0
    120    119    126    125   5     4.74884    -0.63178     1.67360  0.0
    120    119    126    127   5     4.74884    -0.63178     1.67360  0.0
    120    119    126    151   5     0.00000     0.00000     1.25520  0.0
    140    119    126    125   5     0.00000     0.00000     1.25520  0.0
    140    119    126    127   5     0.00000     0.00000     1.25520  0.0
    140    119    126    151   5     0.00000     0.00000     1.25520  0.0
    141    119    126    125   5     0.00000     0.00000     1.25520  0.0
    141    119    126    127   5     0.00000     0.00000     1.25520  0.0
    141    119    126    151   5     0.00000     0.00000     1.25520  0.0
    119    120    121    122   5     4.74884    -0.63178     1.67360  0.0
    119    120    121    124   5     4.74884    -0.63178     1.67360  0.0
    119    120    121    144   5     0.00000     0.00000     1.25520  0.0
    142    120    121    122   5     0.00000     0.00000     1.25520  0.0
    142    120    121    124   5     0.00000     0.00000     1.25520  0.0
    142    120    121    144   5     0.00000     0.00000     1.25520  0.0
    143    120    121    122   5     0.00000     0.00000     1.25520  0.0
    143    120    121    124   5     0.00000     0.00000     1.25520  0.0
    143    120    121    144   5     0.00000     0.00000     1.25520  0.0
    120    121    122    123   5     5.25092    -2.58990     2.28446  0.0
    120    121    122    145   5     0.00000     0.00000     1.25520  0.0
    120    121    122    146   5     0.00000     0.00000     1.25520  0.0
    124    121    122    123   5     5.25092    -2.58990     2.28446  0.0
    124    121    122    145   5     0.00000     0.00000     1.25520  0.0
    124    121    122    146   5     0.00000     0.00000     1.25520  0.0
    144    121    122    123   5     0.00000     0.00000     1.95811  0.0
    144    121    122    145   5     0.00000     0.00000     1.25520  0.0
    144    121    122    146   5     0.00000     0.00000     1.25520  0.0
    120    121    124    125   5     4.74884    -0.63178     1.67360  0.0
    120    121    124    147   5     0.00000     0.00000     1.25520  0.0
    120    121    124    148   5     0.00000     0.00000     1.25520  0.0
    122    121    124    125   5     4.74884    -0.63178     1.67360  0.0
    122    121    124    147   5     0.00000     0.00000     1.25520  0.0
    122    121    124    148   5     0.00000     0.00000     1.25520  0.0
    144    121    124    125   5     0.00000     0.00000     1.25520  0.0
    144    121    124    147   5     0.00000     0.00000     1.25520  0.0
    144    121    124    148   5     0.00000     0.00000     1.25520  0.0
    121    122    123     98   5     0.00000     0.00000     3.13800  0.0
    145    122    123     98   5     0.00000     0.00000     3.13800  0.0
    146    122    123     98   5     0.00000     0.00000     3.13800  0.0
    121    124    125    126   5     4.74884    -0.63178     1.67360  0.0
    121    124    125    149   5     0.00000     0.00000     1.25520  0.0
    121    124    125    150   5     0.00000     0.00000     1.25520  0.0
    147    124    125    126   5     0.00000     0.00000     1.25520  0.0
    147    124    125    149   5     0.00000     0.00000     1.25520  0.0
    147    124    125    150   5     0.00000     0.00000     1.25520  0.0
    148    124    125    126   5     0.00000     0.00000     1.25520  0.0
    148    124    125    149   5     0.00000     0.00000     1.25520  0.0
    148    124    125    150   5     0.00000     0.00000     1.25520  0.0
    124    125    126    119   5     4.74884    -0.63178     1.67360  0.0
    124    125    126    127   5     4.74884    -0.63178     1.67360  0.0
    124    125    126    151   5     0.00000     0.00000     1.25520  0.0
    149    125    126    119   5     0.00000     0.00000     1.25520  0.0
    149    125    126    127   5     0.00000     0.00000     1.25520  0.0
    149    125    126    151   5     0.00000     0.00000     1.25520  0.0
    150    125    126    119   5     0.00000     0.00000     1.25520  0.0
    150    125    126    127   5     0.00000     0.00000     1.25520  0.0
    150    125    126    151   5     0.00000     0.00000     1.25520  0.0
    119    126    127    128   5     5.25092    -2.58990     2.28446  0.0
    119    126    127    152   5     0.00000     0.00000     1.25520  0.0
    119    126    127    153   5     0.00000     0.00000     1.25520  0.0
    125    126    127    128   5     5.25092    -2.58990     2.28446  0.0
    125    126    127    152   5     0.00000     0.00000     1.25520  0.0
    125    126    127    153   5     0.00000     0.00000     1.25520  0.0
    151    126    127    128   5     0.00000     0.00000     1.95811  0.0
    151    126    127    152   5     0.00000     0.00000     1.25520  0.0
    151    126    127    153   5     0.00000     0.00000     1.25520  0.0
    126    127    128    129   5    -2.16731    -3.93296     0.98324  0.0
    152    127    128    129   5     0.00000     0.00000     0.67362  0.0
    153    127    128    129   5     0.00000     0.00000     0.67362  0.0
    127    128    129    130   5     0.00000    25.10400     0.00000  0.0
    127    128    129    131   5     5.01662    27.18345     0.00000  0.0
    128    129    131    132   5     0.00000     8.26340     0.00000  0.0
    128    129    131    139   5     0.00000     8.26340     0.00000  0.0
    130    129    131    132   5     0.00000     8.78640     0.00000  0.0
    130    129    131    139   5     0.00000     8.78640     0.00000  0.0
    129    131    132    133   5     0.00000    30.33400     0.00000  0.0
    129    131    132    154   5     0.00000    30.33400     0.00000  0.0
    139    131    132    133   5     0.00000    30.33400     0.00000  0.0
    139    131    132    154   5     0.00000    30.33400     0.00000  0.0
    129    131    139    138   5     0.00000    30.33400     0.00000  0.0
    129    131    139    157   5     0.00000    30.33400     0.00000  0.0
    132    131    139    138   5     0.00000    30.33400     0.00000  0.0
    132    131    139    157   5     0.00000    30.33400     0.00000  0.0
    131    132    133    134   5     0.00000    30.33400     0.00000  0.0
    131    132    133    155   5     0.00000    30.33400     0.00000  0.0
    154    132    133    134   5     0.00000    30.33400     0.00000  0.0
    154    132    133    155   5     0.00000    30.33400     0.00000  0.0
    132    133    134    135   5     0.00000    30.33400     0.00000  0.0
    132    133    134    138   5     0.00000    30.33400     0.00000  0.0
    155    133    134    135   5     0.00000    30.33400     0.00000  0.0
    155    133    134    138   5     0.00000    30.33400     0.00000  0.0
    133    134    135    136   5     0.00000     8.78640     0.00000  0.0
    133    134    135    137   5     0.00000     8.26340     0.00000  0.0
    138    134    135    136   5     0.00000     8.78640     0.00000  0.0
    138    134    135    137   5     0.00000     8.26340     0.00000  0.0
    133    134    138    139   5     0.00000    30.33400     0.00000  0.0
    133    134    138    156   5     0.00000    30.33400     0.00000  0.0
    135    134    138    139   5     0.00000    30.33400     0.00000  0.0
    135    134    138    156   5     0.00000    30.33400     0.00000  0.0
    134    135    137    162   5     0.00000    16.73600     0.00000  0.0
    136    135    137    162   5     0.00000    25.10400     0.00000  0.0
    135    137    162    161   5     0.00000   -20.92000     0.00000  0.0
    134    138    139    131   5     0.00000    30.33400     0.00000  0.0
    134    138    139    157   5     0.00000    30.33400     0.00000  0.0
    156    138    139    131   5     0.00000    30.33400     0.00000  0.0
    156    138    139    157   5     0.00000    30.33400     0.00000  0.0
    165    158    159    160   5     4.74884    -0.63178     1.67360  0.0
    165    158    159    181   5     0.00000     0.00000     1.25520  0.0
    165    158    159    182   5     0.00000     0.00000     1.25520  0.0
    179    158    159    160   5     0.00000     0.00000     1.25520  0.0
    179    158    159    181   5     0.00000     0.00000     1.25520  0.0
    179    158    159    182   5     0.00000     0.00000     1.25520  0.0
    180    158    159    160   5     0.00000     0.00000     1.25520  0.0
    180    158    159    181   5     0.00000     0.00000     1.25520  0.0
    180    158    159    182   5     0.00000     0.00000     1.25520  0.0
    159    158    165    164   5     4.74884    -0.63178     1.67360  0.0
    159    158    165    166   5     4.74884    -0.63178     1.67360  0.0
    159    158    165    190   5     0.00000     0.00000     1.25520  0.0
    179    158    165    164   5     0.00000     0.00000     1.25520  0.0
    179    158    165    166   5     0.00000     0.00000     1.25520  0.0
    179    158    165    190   5     0.00000     0.00000     1.25520  0.0
    180    158    165    164   5     0.00000     0.00000     1.25520  0.0
    180    158    165    166   5     0.00000     0.00000     1.25520  0.0
    180    158    165    190   5     0.00000     0.00000     1.25520  0.0
    158    159    160    161   5     4.74884    -0.63178     1.67360  0.0
    158    159    160    163   5     4.74884    -0.63178     1.67360  0.0
    158    159    160    183   5     0.00000     0.00000     1.25520  0.0
    181    159    160    161   5     0.00000     0.00000     1.25520  0.0
    181    159    160    163   5     0.00000     0.00000     1.25520  0.0
    181    159    160    183   5     0.00000     0.00000     1.25520  0.0
    182    159    160    161   5     0.00000     0.00000     1.25520  0.0
    182    159    160    163   5     0.00000     0.00000     1.25520  0.0
    182    159    160    183   5     0.00000     0.00000     1.25520  0.0
    159    160    161    162   5     5.25092    -2.58990     2.28446  0.0
    159    160    161    184   5     0.00000     0.00000     1.25520  0.0
    159    160    161    185   5     0.00000     0.00000     1.25520  0.0
    163    160    161    162   5     5.25092    -2.58990     2.28446  0.0
    163    160    161    184   5     0.00000     0.00000     1.25520  0.0
    163    160    161    185   5     0.00000     0.00000     1.25520  0.0
    183    160    161    162   5     0.00000     0.00000     1.95811  0.0
    183    160    161    184   5     0.00000     0.00000     1.25520  0.0
    183    160    161    185   5     0.00000     0.00000     1.25520  0.0
    159    160    163    164   5     4.74884    -0.63178     1.67360  0.0
    159    160    163    186   5     0.00000     0.00000     1.25520  0.0
    159    160    163    187   5     0.00000     0.00000     1.25520  0.0
    161    160    163    164   5     4.74884    -0.63178     1.67360  0.0
    161    160    163    186   5     0.00000     0.00000     1.25520  0.0
    161    160    163    187   5     0.00000     0.00000     1.25520  0.0
    183    160    163    164   5     0.00000     0.00000     1.25520  0.0
    183    160    163    186   5     0.00000     0.00000     1.25520  0.0
    183    160    163    187   5     0.00000     0.00000     1.25520  0.0
    160    161    162    137   5     0.00000     0.00000     3.13800  0.0
    184    161    162    137   5     0.00000     0.00000     3.13800  0.0
    185    161    162    137   5     0.00000     0.00000     3.13800  0.0
    160    163    164    165   5     4.74884    -0.63178     1.67360  0.0
    160    163    164    188   5     0.00000     0.00000     1.25520  0.0
    160    163    164    189   5     0.00000     0.00000     1.25520  0.0
    186    163    164    165   5     0.00000     0.00000     1.25520  0.0
    186    163    164    188   5     0.00000     0.00000     1.25520  0.0
    186    163    164    189   5     0.00000     0.00000     1.25520  0.0
    187    163    164    165   5     0.00000     0.00000     1.25520  0.0
    187    163    164    188   5     0.00000     0.00000     1.25520  0.0
    187    163    164    189   5     0.00000     0.00000     1.25520  0.0
    163    164    165    158   5     4.74884    -0.63178     1.67360  0.0
    163    164    165    166   5     4.74884    -0.63178     1.67360  0.0
    163    164    165    190   5     0.00000     0.00000     1.25520  0.0
    188    164    165    158   5     0.00000     0.00000     1.25520  0.0
    188    164    165    166   5     0.00000     0.00000     1.25520  0.0
    188    164    165    190   5     0.00000     0.00000     1.25520  0.0
    189    164    165    158   5     0.00000     0.00000     1.25520  0.0
    189    164    165    166   5     0.00000     0.00000     1.25520  0.0
    189    164    165    190   5     0.00000     0.00000     1.25520  0.0
    158    165    166    167   5     5.25092    -2.58990     2.28446  0.0
    158    165    166    191   5     0.00000     0.00000     1.25520  0.0
    158    165    166    192   5     0.00000     0.00000     1.25520  0.0
    164    165    166    167   5     5.25092    -2.58990     2.28446  0.0
    164    165    166    191   5     0.00000     0.00000     1.25520  0.0
    164    165    166    192   5     0.00000     0.00000     1.25520  0.0
    190    165    166    167   5     0.00000     0.00000     1.95811  0.0
    190    165    166    191   5     0.00000     0.00000     1.25520  0.0
    190    165    166    192   5     0.00000     0.00000     1.25520  0.0
    165    166    167    168   5    -2.16731    -3.93296     0.98324  0.0
    191    166    167    168   5     0.00000     0.00000     0.67362  0.0
    192    166    167    168   5     0.00000     0.00000     0.67362  0.0
    166    167    168    169   5     0.00000    25.10400     0.00000  0.0
    166    167    168    170   5     5.01662    27.18345     0.00000  0.0
    167    168    170    171   5     0.00000     8.26340     0.00000  0.0
    167    168    170    178   5     0.00000     8.26340     0.00000  0.0
    169    168    170    171   5     0.00000     8.78640     0.00000  0.0
    169    168    170    178   5     0.00000     8.78640     0.00000  0.0
    168    170    171    172   5     0.00000    30.33400     0.00000  0.0
    168    170    171    193   5     0.00000    30.33400     0.00000  0.0
    178    170    171    172   5     0.00000    30.33400     0.00000  0.0
    178    170    171    193   5     0.00000    30.33400     0.00000  0.0
    168    170    178    177   5     0.00000    30.33400     0.00000  0.0
    168    170    178    196   5     0.00000    30.33400     0.00000  0.0
    171    170    178    177   5     0.00000    30.33400     0.00000  0.0
    171    170    178    196   5     0.00000    30.33400     0.00000  0.0
    170    171    172    173   5     0.00000    30.33400     0.00000  0.0
    170    171    172    194   5     0.00000    30.33400     0.00000  0.0
    193    171    172    173   5     0.00000    30.33400     0.00000  0.0
    193    171    172    194   5     0.00000    30.33400     0.00000  0.0
    171    172    173    174   5     0.00000    30.33400     0.00000  0.0
    171    172    173    177   5     0.00000    30.33400     0.00000  0.0
    194    172    173    174   5     0.00000    30.33400     0.00000  0.0
    194    172    173    177   5     0.00000    30.33400     0.00000  0.0
    172    173    174    175   5     0.00000     8.78640     0.00000  0.0
    172    173    174    176   5     0.00000     8.26340     0.00000  0.0
    177    173    174    175   5     0.00000     8.78640     0.00000  0.0
    177    173    174    176   5     0.00000     8.26340     0.00000  0.0
    172    173    177    178   5     0.00000    30.33400     0.00000  0.0
    172    173    177    195   5     0.00000    30.33400     0.00000  0.0
    174    173    177    178   5     0.00000    30.33400     0.00000  0.0
    174    173    177    195   5     0.00000    30.33400     0.00000  0.0
    173    174    176    201   5     0.00000    16.73600     0.00000  0.0
    175    174    176    201   5     0.00000    25.10400     0.00000  0.0
    174    176    201    200   5     0.00000   -20.92000     0.00000  0.0
    173    177    178    170   5     0.00000    30.33400     0.00000  0.0
    173    177    178    196   5     0.00000    30.33400     0.00000  0.0
    195    177    178    170   5     0.00000    30.33400     0.00000  0.0
    195    177    178    196   5     0.00000    30.33400     0.00000  0.0
    204    197    198    199   5     4.74884    -0.63178     1.67360  0.0
    204    197    198    220   5     0.00000     0.00000     1.25520  0.0
    204    197    198    221   5     0.00000     0.00000     1.25520  0.0
    218    197    198    199   5     0.00000     0.00000     1.25520  0.0
    218    197    198    220   5     0.00000     0.00000     1.25520  0.0
    218    197    198    221   5     0.00000     0.00000     1.25520  0.0
    219    197    198    199   5     0.00000     0.00000     1.25520  0.0
    219    197    198    220   5     0.00000     0.00000     1.25520  0.0
    219    197    198    221   5     0.00000     0.00000     1.25520  0.0
    198    197    204    203   5     4.74884    -0.63178     1.67360  0.0
    198    197    204    205   5     4.74884    -0.63178     1.67360  0.0
    198    197    204    229   5     0.00000     0.00000     1.25520  0.0
    218    197    204    203   5     0.00000     0.00000     1.25520  0.0
    218    197    204    205   5     0.00000     0.00000     1.25520  0.0
    218    197    204    229   5     0.00000     0.00000     1.25520  0.0
    219    197    204    203   5     0.00000     0.00000     1.25520  0.0
    219    197    204    205   5     0.00000     0.00000     1.25520  0.0
    219    197    204    229   5     0.00000     0.00000     1.25520  0.0
    197    198    199    200   5     4.74884    -0.63178     1.67360  0.0
    197    198    199    202   5     4.74884    -0.63178     1.67360  0.0
    197    198    199    222   5     0.00000     0.00000     1.25520  0.0
    220    198    199    200   5     0.00000     0.00000     1.25520  0.0
    220    198    199    202   5     0.00000     0.00000     1.25520  0.0
    220    198    199    222   5     0.00000     0.00000     1.25520  0.0
    221    198    199    200   5     0.00000     0.00000     1.25520  0.0
    221    198    199    202   5     0.00000     0.00000     1.25520  0.0
    221    198    199    222   5     0.00000     0.00000     1.25520  0.0
    198    199    200    201   5     5.25092    -2.58990     2.28446  0.0
    198    199    200    223   5     0.00000     0.00000     1.25520  0.0
    198    199    200    224   5     0.00000     0.00000     1.25520  0.0
    202    199    200    201   5     5.25092    -2.58990     2.28446  0.0
    202    199    200    223   5     0.00000     0.00000     1.25520  0.0
    202    199    200    224   5     0.00000     0.00000     1.25520  0.0
    222    199    200    201   5     0.00000     0.00000     1.95811  0.0
    222    199    200    223   5     0.00000     0.00000     1.25520  0.0
    222    199    200    224   5     0.00000     0.00000     1.25520  0.0
    198    199    202    203   5     4.74884    -0.63178     1.67360  0.0
    198    199    202    225   5     0.00000     0.00000     1.25520  0.0
    198    199    202    226   5     0.00000     0.00000     1.25520  0.0
    200    199    202    203   5     4.74884    -0.63178     1.67360  0.0
    200    199    202    225   5     0.00000     0.00000     1.25520  0.0
    200    199    202    226   5     0.00000     0.00000     1.25520  0.0
    222    199    202    203   5     0.00000     0.00000     1.25520  0.0
    222    199    202    225   5     0.00000     0.00000     1.25520  0.0
    222    199    202    226   5     0.00000     0.00000     1.25520  0.0
    199    200    201    176   5     0.00000     0.00000     3.13800  0.0
    223    200    201    176   5     0.00000     0.00000     3.13800  0.0
    224    200    201    176   5     0.00000     0.00000     3.13800  0.0
    199    202    203    204   5     4.74884    -0.63178     1.67360  0.0
    199    202    203    227   5     0.00000     0.00000     1.25520  0.0
    199    202    203    228   5     0.00000     0.00000     1.25520  0.0
    225    202    203    204   5     0.00000     0.00000     1.25520  0.0
    225    202    203    227   5     0.00000     0.00000     1.25520  0.0
    225    202    203    228   5     0.00000     0.00000     1.25520  0.0
    226    202    203    204   5     0.00000     0.00000     1.25520  0.0
    226    202    203    227   5     0.00000     0.00000     1.25520  0.0
    226    202    203    228   5     0.00000     0.00000     1.25520  0.0
    202    203    204    197   5     4.74884    -0.63178     1.67360  0.0
    202    203    204    205   5     4.74884    -0.63178     1.67360  0.0
    202    203    204    229   5     0.00000     0.00000     1.25520  0.0
    227    203    204    197   5     0.00000     0.00000     1.25520  0.0
    227    203    204    205   5     0.00000     0.00000     1.25520  0.0
    227    203    204    229   5     0.00000     0.00000     1.25520  0.0
    228    203    204    197   5     0.00000     0.00000     1.25520  0.0
    228    203    204    205   5     0.00000     0.00000     1.25520  0.0
    228    203    204    229   5     0.00000     0.00000     1.25520  0.0
    197    204    205    206   5     5.25092    -2.58990     2.28446  0.0
    197    204    205    230   5     0.00000     0.00000     1.25520  0.0
    197    204    205    231   5     0.00000     0.00000     1.25520  0.0
    203    204    205    206   5     5.25092    -2.58990     2.28446  0.0
    203    204    205    230   5     0.00000     0.00000     1.25520  0.0
    203    204    205    231   5     0.00000     0.00000     1.25520  0.0
    229    204    205    206   5     0.00000     0.00000     1.95811  0.0
    229    204    205    230   5     0.00000     0.00000     1.25520  0.0
    229    204    205    231   5     0.00000     0.00000     1.25520  0.0
    204    205    206    207   5    -2.16731    -3.93296     0.98324  0.0
    230    205    206    207   5     0.00000     0.00000     0.67362  0.0
    231    205    206    207   5     0.00000     0.00000     0.67362  0.0
    205    206    207    208   5     0.00000    25.10400     0.00000  0.0
    205    206    207    209   5     5.01662    27.18345     0.00000  0.0
    206    207    209    210   5     0.00000     8.26340     0.00000  0.0
    206    207    209    217   5     0.00000     8.26340     0.00000  0.0
    208    207    209    210   5     0.00000     8.78640     0.00000  0.0
    208    207    209    217   5     0.00000     8.78640     0.00000  0.0
    207    209    210    211   5     0.00000    30.33400     0.00000  0.0
    207    209    210    232   5     0.00000    30.33400     0.00000  0.0
    217    209    210    211   5     0.00000    30.33400     0.00000  0.0
    217    209    210    232   5     0.00000    30.33400     0.00000  0.0
    207    209    217    216   5     0.00000    30.33400     0.00000  0.0
    207    209    217    235   5     0.00000    30.33400     0.00000  0.0
    210    209    217    216   5     0.00000    30.33400     0.00000  0.0
    210    209    217    235   5     0.00000    30.33400     0.00000  0.0
    209    210    211    212   5     0.00000    30.33400     0.00000  0.0
    209    210    211    233   5     0.00000    30.33400     0.00000  0.0
    232    210    211    212   5     0.00000    30.33400     0.00000  0.0
    232    210    211    233   5     0.00000    30.33400     0.00000  0.0
    210    211    212    213   5     0.00000    30.33400     0.00000  0.0
    210    211    212    216   5     0.00000    30.33400     0.00000  0.0
    233    211    212    213   5     0.00000    30.33400     0.00000  0.0
    233    211    212    216   5     0.00000    30.33400     0.00000  0.0
    211    212    213    214   5     0.00000     8.78640     0.00000  0.0
    211    212    213    215   5     0.00000     8.26340     0.00000  0.0
    216    212    213    214   5     0.00000     8.78640     0.00000  0.0
    216    212    213    215   5     0.00000     8.26340     0.00000  0.0
    211    212    216    217   5     0.00000    30.33400     0.00000  0.0
    211    212    216    234   5     0.00000    30.33400     0.00000  0.0
    213    212    216    217   5     0.00000    30.33400     0.00000  0.0
    213    212    216    234   5     0.00000    30.33400     0.00000  0.0
    212    213    215    240   5     0.00000    16.73600     0.00000  0.0
    214    213    215    240   5     0.00000    25.10400     0.00000  0.0
    213    215    240    239   5     0.00000   -20.92000     0.00000  0.0
    212    216    217    209   5     0.00000    30.33400     0.00000  0.0
    212    216    217    235   5     0.00000    30.33400     0.00000  0.0
    234    216    217    209   5     0.00000    30.33400     0.00000  0.0
    234    216    217    235   5     0.00000    30.33400     0.00000  0.0
    243    236    237    238   5     4.74884    -0.63178     1.67360  0.0
    243    236    237    259   5     0.00000     0.00000     1.25520  0.0
    243    236    237    260   5     0.00000     0.00000     1.25520  0.0
    257    236    237    238   5     0.00000     0.00000     1.25520  0.0
    257    236    237    259   5     0.00000     0.00000     1.25520  0.0
    257    236    237    260   5     0.00000     0.00000     1.25520  0.0
    258    236    237    238   5     0.00000     0.00000     1.25520  0.0
    258    236    237    259   5     0.00000     0.00000     1.25520  0.0
    258    236    237    260   5     0.00000     0.00000     1.25520  0.0
    237    236    243    242   5     4.74884    -0.63178     1.67360  0.0
    237    236    243    244   5     4.74884    -0.63178     1.67360  0.0
    237    236    243    268   5     0.00000     0.00000     1.25520  0.0
    257    236    243    242   5     0.00000     0.00000     1.25520  0.0
    257    236    243    244   5     0.00000     0.00000     1.25520  0.0
    257    236    243    268   5     0.00000     0.00000     1.25520  0.0
    258    236    243    242   5     0.00000     0.00000     1.25520  0.0
    258    236    243    244   5     0.00000     0.00000     1.25520  0.0
    258    236    243    268   5     0.00000     0.00000     1.25520  0.0
    236    237    238    239   5     4.74884    -0.63178     1.67360  0.0
    236    237    238    241   5     4.74884    -0.63178     1.67360  0.0
    236    237    238    261   5     0.00000     0.00000     1.25520  0.0
    259    237    238    239   5     0.00000     0.00000     1.25520  0.0
    259    237    238    241   5     0.00000     0.00000     1.25520  0.0
    259    237    238    261   5     0.00000     0.00000     1.25520  0.0
    260    237    238    239   5     0.00000     0.00000     1.25520  0.0
    260    237    238    241   5     0.00000     0.00000     1.25520  0.0
    260    237    238    261   5     0.00000     0.00000     1.25520  0.0
    237    238    239    240   5     5.25092    -2.58990     2.28446  0.0
    237    238    239    262   5     0.00000     0.00000     1.25520  0.0
    237    238    239    263   5     0.00000     0.00000     1.25520  0.0
    241    238    239    240   5     5.25092    -2.58990     2.28446  0.0
    241    238    239    262   5     0.00000     0.00000     1.25520  0.0
    241    238    239    263   5     0.00000     0.00000     1.25520  0.0
    261    238    239    240   5     0.00000     0.00000     1.95811  0.0
    261    238    239    262   5     0.00000     0.00000     1.25520  0.0
    261    238    239    263   5     0.00000     0.00000     1.25520  0.0
    237    238    241    242   5     4.74884    -0.63178     1.67360  0.0
    237    238    241    264   5     0.00000     0.00000     1.25520  0.0
    237    238    241    265   5     0.00000     0.00000     1.25520  0.0
    239    238    241    242   5     4.74884    -0.63178     1.67360  0.0
    239    238    241    264   5     0.00000     0.00000     1.25520  0.0
    239    238    241    265   5     0.00000     0.00000     1.25520  0.0
    261    238    241    242   5     0.00000     0.00000     1.25520  0.0
    261    238    241    264   5     0.00000     0.00000     1.25520  0.0
    261    238    241    265   5     0.00000     0.00000     1.25520  0.0
    238    239    240    215   5     0.00000     0.00000     3.13800  0.0
    262    239    240    215   5     0.00000     0.00000     3.13800  0.0
    263    239    240    215   5     0.00000     0.00000     3.13800  0.0
    238    241    242    243   5     4.74884    -0.63178     1.67360  0.0
    238    241    242    266   5     0.00000     0.00000     1.25520  0.0
    238    241    242    267   5     0.00000     0.00000     1.25520  0.0
    264    241    242    243   5     0.00000     0.00000     1.25520  0.0
    264    241    242    266   5     0.00000     0.00000     1.25520  0.0
    264    241    242    267   5     0.00000     0.00000     1.25520  0.0
    265    241    242    243   5     0.00000     0.00000     1.25520  0.0
    265    241    242    266   5     0.00000     0.00000     1.25520  0.0
    265    241    242    267   5     0.00000     0.00000     1.25520  0.0
    241    242    243    236   5     4.74884    -0.63178     1.67360  0.0
    241    242    243    244   5     4.74884    -0.63178     1.67360  0.0
    241    242    243    268   5     0.00000     0.00000     1.25520  0.0
    266    242    243    236   5     0.00000     0.00000     1.25520  0.0
    266    242    243    244   5     0.00000     0.00000     1.25520  0.0
    266    242    243    268   5     0.00000     0.00000     1.25520  0.0
    267    242    243    236   5     0.00000     0.00000     1.25520  0.0
    267    242    243    244   5     0.00000     0.00000     1.25520  0.0
    267    242    243    268   5     0.00000     0.00000     1.25520  0.0
    236    243    244    245   5     5.25092    -2.58990     2.28446  0.0
    236    243    244    269   5     0.00000     0.00000     1.25520  0.0
    236    243    244    270   5     0.00000     0.00000     1.25520  0.0
    242    243    244    245   5     5.25092    -2.58990     2.28446  0.0
    242    243    244    269   5     0.00000     0.00000     1.25520  0.0
    242    243    244    270   5     0.00000     0.00000     1.25520  0.0
    268    243    244    245   5     0.00000     0.00000     1.95811  0.0
    268    243    244    269   5     0.00000     0.00000     1.25520  0.0
    268    243    244    270   5     0.00000     0.00000     1.25520  0.0
    243    244    245    246   5    -2.16731    -3.93296     0.98324  0.0
    269    244    245    246   5     0.00000     0.00000     0.67362  0.0
    270    244    245    246   5     0.00000     0.00000     0.67362  0.0
    244    245    246    247   5     0.00000    25.10400     0.00000  0.0
    244    245    246    248   5     5.01662    27.18345     0.00000  0.0
    245    246    248    249   5     0.00000     8.26340     0.00000  0.0
    245    246    248    256   5     0.00000     8.26340     0.00000  0.0
    247    246    248    249   5     0.00000     8.78640     0.00000  0.0
    247    246    248    256   5     0.00000     8.78640     0.00000  0.0
    246    248    249    250   5     0.00000    30.33400     0.00000  0.0
    246    248    249    271   5     0.00000    30.33400     0.00000  0.0
    256    248    249    250   5     0.00000    30.33400     0.00000  0.0
    256    248    249    271   5     0.00000    30.33400     0.00000  0.0
    246    248    256    255   5     0.00000    30.33400     0.00000  0.0
    246    248    256    274   5     0.00000    30.33400     0.00000  0.0
    249    248    256    255   5     0.00000    30.33400     0.00000  0.0
    249    248    256    274   5     0.00000    30.33400     0.00000  0.0
    248    249    250    251   5     0.00000    30.33400     0.00000  0.0
    248    249    250    272   5     0.00000    30.33400     0.00000  0.0
    271    249    250    251   5     0.00000    30.33400     0.00000  0.0
    271    249    250    272   5     0.00000    30.33400     0.00000  0.0
    249    250    251    252   5     0.00000    30.33400     0.00000  0.0
    249    250    251    255   5     0.00000    30.33400     0.00000  0.0
    272    250    251    252   5     0.00000    30.33400     0.00000  0.0
    272    250    251    255   5     0.00000    30.33400     0.00000  0.0
    250    251    252    253   5     0.00000     8.78640     0.00000  0.0
    250    251    252    254   5     0.00000     8.26340     0.00000  0.0
    255    251    252    253   5     0.00000     8.78640     0.00000  0.0
    255    251    252    254   5     0.00000     8.26340     0.00000  0.0
    250    251    255    256   5     0.00000    30.33400     0.00000  0.0
    250    251    255    273   5     0.00000    30.33400     0.00000  0.0
    252    251    255    256   5     0.00000    30.33400     0.00000  0.0
    252    251    255    273   5     0.00000    30.33400     0.00000  0.0
    251    252    254    279   5     0.00000    16.73600     0.00000  0.0
    253    252    254    279   5     0.00000    25.10400     0.00000  0.0
    252    254    279    278   5     0.00000   -20.92000     0.00000  0.0
    251    255    256    248   5     0.00000    30.33400     0.00000  0.0
    251    255    256    274   5     0.00000    30.33400     0.00000  0.0
    273    255    256    248   5     0.00000    30.33400     0.00000  0.0
    273    255    256    274   5     0.00000    30.33400     0.00000  0.0
    282    275    276    277   5     4.74884    -0.63178     1.67360  0.0
    282    275    276    298   5     0.00000     0.00000     1.25520  0.0
    282    275    276    299   5     0.00000     0.00000     1.25520  0.0
    296    275    276    277   5     0.00000     0.00000     1.25520  0.0
    296    275    276    298   5     0.00000     0.00000     1.25520  0.0
    296    275    276    299   5     0.00000     0.00000     1.25520  0.0
    297    275    276    277   5     0.00000     0.00000     1.25520  0.0
    297    275    276    298   5     0.00000     0.00000     1.25520  0.0
    297    275    276    299   5     0.00000     0.00000     1.25520  0.0
    276    275    282    281   5     4.74884    -0.63178     1.67360  0.0
    276    275    282    283   5     4.74884    -0.63178     1.67360  0.0
    276    275    282    307   5     0.00000     0.00000     1.25520  0.0
    296    275    282    281   5     0.00000     0.00000     1.25520  0.0
    296    275    282    283   5     0.00000     0.00000     1.25520  0.0
    296    275    282    307   5     0.00000     0.00000     1.25520  0.0
    297    275    282    281   5     0.00000     0.00000     1.25520  0.0
    297    275    282    283   5     0.00000     0.00000     1.25520  0.0
    297    275    282    307   5     0.00000     0.00000     1.25520  0.0
    275    276    277    278   5     4.74884    -0.63178     1.67360  0.0
    275    276    277    280   5     4.74884    -0.63178     1.67360  0.0
    275    276    277    300   5     0.00000     0.00000     1.25520  0.0
    298    276    277    278   5     0.00000     0.00000     1.25520  0.0
    298    276    277    280   5     0.00000     0.00000     1.25520  0.0
    298    276    277    300   5     0.00000     0.00000     1.25520  0.0
    299    276    277    278   5     0.00000     0.00000     1.25520  0.0
    299    276    277    280   5     0.00000     0.00000     1.25520  0.0
    299    276    277    300   5     0.00000     0.00000     1.25520  0.0
    276    277    278    279   5     5.25092    -2.58990     2.28446  0.0
    276    277    278    301   5     0.00000     0.00000     1.25520  0.0
    276    277    278    302   5     0.00000     0.00000     1.25520  0.0
    280    277    278    279   5     5.25092    -2.58990     2.28446  0.0
    280    277    278    301   5     0.00000     0.00000     1.25520  0.0
    280    277    278    302   5     0.00000     0.00000     1.25520  0.0
    300    277    278    279   5     0.00000     0.00000     1.95811  0.0
    300    277    278    301   5     0.00000     0.00000     1.25520  0.0
    300    277    278    302   5     0.00000     0.00000     1.25520  0.0
    276    277    280    281   5     4.74884    -0.63178     1.67360  0.0
    276    277    280    303   5     0.00000     0.00000     1.25520  0.0
    276    277    280    304   5     0.00000     0.00000     1.25520  0.0
    278    277    280    281   5     4.74884    -0.63178     1.67360  0.0
    278    277    280    303   5     0.00000     0.00000     1.25520  0.0
    278    277    280    304   5     0.00000     0.00000     1.25520  0.0
    300    277    280    281   5     0.00000     0.00000     1.25520  0.0
    300    277    280    303   5     0.00000     0.00000     1.25520  0.0
    300    277    280    304   5     0.00000     0.00000     1.25520  0.0
    277    278    279    254   5     0.00000     0.00000     3.13800  0.0
    301    278    279    254   5     0.00000     0.00000     3.13800  0.0
    302    278    279    254   5     0.00000     0.00000     3.13800  0.0
    277    280    281    282   5     4.74884    -0.63178     1.67360  0.0
    277    280    281    305   5     0.00000     0.00000     1.25520  0.0
    277    280    281    306   5     0.00000     0.00000     1.25520  0.0
    303    280    281    282   5     0.00000     0.00000     1.25520  0.0
    303    280    281    305   5     0.00000     0.00000     1.25520  0.0
    303    280    281    306   5     0.00000     0.00000     1.25520  0.0
    304    280    281    282   5     0.00000     0.00000     1.25520  0.0
    304    280    281    305   5     0.00000     0.00000     1.25520  0.0
    304    280    281    306   5     0.00000     0.00000     1.25520  0.0
    280    281    282    275   5     4.74884    -0.63178     1.67360  0.0
    280    281    282    283   5     4.74884    -0.63178     1.67360  0.0
    280    281    282    307   5     0.00000     0.00000     1.25520  0.0
    305    281    282    275   5     0.00000     0.00000     1.25520  0.0
    305    281    282    283   5     0.00000     0.00000     1.25520  0.0
    305    281    282    307   5     0.00000     0.00000     1.25520  0.0
    306    281    282    275   5     0.00000     0.00000     1.25520  0.0
    306    281    282    283   5     0.00000     0.00000     1.25520  0.0
    306    281    282    307   5     0.00000     0.00000     1.25520  0.0
    275    282    283    284   5     5.25092    -2.58990     2.28446  0.0
    275    282    283    308   5     0.00000     0.00000     1.25520  0.0
    275    282    283    309   5     0.00000     0.00000     1.25520  0.0
    281    282    283    284   5     5.25092    -2.58990     2.28446  0.0
    281    282    283    308   5     0.00000     0.00000     1.25520  0.0
    281    282    283    309   5     0.00000     0.00000     1.25520  0.0
    307    282    283    284   5     0.00000     0.00000     1.95811  0.0
    307    282    283    308   5     0.00000     0.00000     1.25520  0.0
    307    282    283    309   5     0.00000     0.00000     1.25520  0.0
    282    283    284    285   5    -2.16731    -3.93296     0.98324  0.0
    308    283    284    285   5     0.00000     0.00000     0.67362  0.0
    309    283    284    285   5     0.00000     0.00000     0.67362  0.0
    283    284    285    286   5     0.00000    25.10400     0.00000  0.0
    283    284    285    287   5     5.01662    27.18345     0.00000  0.0
    284    285    287    288   5     0.00000     8.26340     0.00000  0.0
    284    285    287    295   5     0.00000     8.26340     0.00000  0.0
    286    285    287    288   5     0.00000     8.78640     0.00000  0.0
    286    285    287    295   5     0.00000     8.78640     0.00000  0.0
    285    287    288    289   5     0.00000    30.33400     0.00000  0.0
    285    287    288    310   5     0.00000    30.33400     0.00000  0.0
    295    287    288    289   5     0.00000    30.33400     0.00000  0.0
    295    287    288    310   5     0.00000    30.33400     0.00000  0.0
    285    287    295    294   5     0.00000    30.33400     0.00000  0.0
    285    287    295    313   5     0.00000    30.33400     0.00000  0.0
    288    287    295    294   5     0.00000    30.33400     0.00000  0.0
    288    287    295    313   5     0.00000    30.33400     0.00000  0.0
    287    288    289    290   5     0.00000    30.33400     0.00000  0.0
    287    288    289    311   5     0.00000    30.33400     0.00000  0.0
    310    288    289    290   5     0.00000    30.33400     0.00000  0.0
    310    288    289    311   5     0.00000    30.33400     0.00000  0.0
    288    289    290    291   5     0.00000    30.33400     0.00000  0.0
    288    289    290    294   5     0.00000    30.33400     0.00000  0.0
    311    289    290    291   5     0.00000    30.33400     0.00000  0.0
    311    289    290    294   5     0.00000    30.33400     0.00000  0.0
    289    290    291    292   5     0.00000     8.78640     0.00000  0.0
    289    290    291    293   5     0.00000     8.26340     0.00000  0.0
    294    290    291    292   5     0.00000     8.78640     0.00000  0.0
    294    290    291    293   5     0.00000     8.26340     0.00000  0.0
    289    290    294    295   5     0.00000    30.33400     0.00000  0.0
    289    290    294    312   5     0.00000    30.33400     0.00000  0.0
    291    290    294    295   5     0.00000    30.33400     0.00000  0.0
    291    290    294    312   5     0.00000    30.33400     0.00000  0.0
    290    291    293    318   5     0.00000    16.73600     0.00000  0.0
    292    291    293    318   5     0.00000    25.10400     0.00000  0.0
    291    293    318    317   5     0.00000   -20.92000     0.00000  0.0
    290    294    295    287   5     0.00000    30.33400     0.00000  0.0
    290    294    295    313   5     0.00000    30.33400     0.00000  0.0
    312    294    295    287   5     0.00000    30.33400     0.00000  0.0
    312    294    295    313   5     0.00000    30.33400     0.00000  0.0
    321    314    315    316   5     4.74884    -0.63178     1.67360  0.0
    321    314    315    337   5     0.00000     0.00000     1.25520  0.0
    321    314    315    338   5     0.00000     0.00000     1.25520  0.0
    335    314    315    316   5     0.00000     0.00000     1.25520  0.0
    335    314    315    337   5     0.00000     0.00000     1.25520  0.0
    335    314    315    338   5     0.00000     0.00000     1.25520  0.0
    336    314    315    316   5     0.00000     0.00000     1.25520  0.0
    336    314    315    337   5     0.00000     0.00000     1.25520  0.0
    336    314    315    338   5     0.00000     0.00000     1.25520  0.0
    315    314    321    320   5     4.74884    -0.63178     1.67360  0.0
    315    314    321    322   5     4.74884    -0.63178     1.67360  0.0
    315    314    321    346   5     0.00000     0.00000     1.25520  0.0
    335    314    321    320   5     0.00000     0.00000     1.25520  0.0
    335    314    321    322   5     0.00000     0.00000     1.25520  0.0
    335    314    321    346   5     0.00000     0.00000     1.25520  0.0
    336    314    321    320   5     0.00000     0.00000     1.25520  0.0
    336    314    321    322   5     0.00000     0.00000     1.25520  0.0
    336    314    321    346   5     0.00000     0.00000     1.25520  0.0
    314    315    316    317   5     4.74884    -0.63178     1.67360  0.0
    314    315    316    319   5     4.74884    -0.63178     1.67360  0.0
    314    315    316    339   5     0.00000     0.00000     1.25520  0.0
    337    315    316    317   5     0.00000     0.00000     1.25520  0.0
    337    315    316    319   5     0.00000     0.00000     1.25520  0.0
    337    315    316    339   5     0.00000     0.00000     1.25520  0.0
    338    315    316    317   5     0.00000     0.00000     1.25520  0.0
    338    315    316    319   5     0.00000     0.00000     1.25520  0.0
    338    315    316    339   5     0.00000     0.00000     1.25520  0.0
    315    316    317    318   5     5.25092    -2.58990     2.28446  0.0
    315    316    317    340   5     0.00000     0.00000     1.25520  0.0
    315    316    317    341   5     0.00000     0.00000     1.25520  0.0
    319    316    317    318   5     5.25092    -2.58990     2.28446  0.0
    319    316    317    340   5     0.00000     0.00000     1.25520  0.0
    319    316    317    341   5     0.00000     0.00000     1.25520  0.0
    339    316    317    318   5     0.00000     0.00000     1.95811  0.0
    339    316    317    340   5     0.00000     0.00000     1.25520  0.0
    339    316    317    341   5     0.00000     0.00000     1.25520  0.0
    315    316    319    320   5     4.74884    -0.63178     1.67360  0.0
    315    316    319    342   5     0.00000     0.00000     1.25520  0.0
    315    316    319    343   5     0.00000     0.00000     1.25520  0.0
    317    316    319    320   5     4.74884    -0.63178     1.67360  0.0
    317    316    319    342   5     0.00000     0.00000     1.25520  0.0
    317    316    319    343   5     0.00000     0.00000     1.25520  0.0
    339    316    319    320   5     0.00000     0.00000     1.25520  0.0
    339    316    319    342   5     0.00000     0.00000     1.25520  0.0
    339    316    319    343   5     0.00000     0.00000     1.25520  0.0
    316    317    318    293   5     0.00000     0.00000     3.13800  0.0
    340    317    318    293   5     0.00000     0.00000     3.13800  0.0
    341    317    318    293   5     0.00000     0.00000     3.13800  0.0
    316    319    320    321   5     4.74884    -0.63178     1.67360  0.0
    316    319    320    344   5     0.00000     0.00000     1.25520  0.0
    316    319    320    345   5     0.00000     0.00000     1.25520  0.0
    342    319    320    321   5     0.00000     0.00000     1.25520  0.0
    342    319    320    344   5     0.00000     0.00000     1.25520  0.0
    342    319    320    345   5     0.00000     0.00000     1.25520  0.0
    343    319    320    321   5     0.00000     0.00000     1.25520  0.0
    343    319    320    344   5     0.00000     0.00000     1.25520  0.0
    343    319    320    345   5     0.00000     0.00000     1.25520  0.0
    319    320    321    314   5     4.74884    -0.63178     1.67360  0.0
    319    320    321    322   5     4.74884    -0.63178     1.67360  0.0
    319    320    321    346   5     0.00000     0.00000     1.25520  0.0
    344    320    321    314   5     0.00000     0.00000     1.25520  0.0
    344    320    321    322   5     0.00000     0.00000     1.25520  0.0
    344    320    321    346   5     0.00000     0.00000     1.25520  0.0
    345    320    321    314   5     0.00000     0.00000     1.25520  0.0
    345    320    321    322   5     0.00000     0.00000     1.25520  0.0
    345    320    321    346   5     0.00000     0.00000     1.25520  0.0
    314    321    322    323   5     5.25092    -2.58990     2.28446  0.0
    314    321    322    347   5     0.00000     0.00000     1.25520  0.0
    314    321    322    348   5     0.00000     0.00000     1.25520  0.0
    320    321    322    323   5     5.25092    -2.58990     2.28446  0.0
    320    321    322    347   5     0.00000     0.00000     1.25520  0.0
    320    321    322    348   5     0.00000     0.00000     1.25520  0.0
    346    321    322    323   5     0.00000     0.00000     1.95811  0.0
    346    321    322    347   5     0.00000     0.00000     1.25520  0.0
    346    321    322    348   5     0.00000     0.00000     1.25520  0.0
    321    322    323    324   5    -2.16731    -3.93296     0.98324  0.0
    347    322    323    324   5     0.00000     0.00000     0.67362  0.0
    348    322    323    324   5     0.00000     0.00000     0.67362  0.0
    322    323    324    325   5     0.00000    25.10400     0.00000  0.0
    322    323    324    326   5     5.01662    27.18345     0.00000  0.0
    323    324    326    327   5     0.00000     8.26340     0.00000  0.0
    323    324    326    334   5     0.00000     8.26340     0.00000  0.0
    325    324    326    327   5     0.00000     8.78640     0.00000  0.0
    325    324    326    334   5     0.00000     8.78640     0.00000  0.0
    324    326    327    328   5     0.00000    30.33400     0.00000  0.0
    324    326    327    349   5     0.00000    30.33400     0.00000  0.0
    334    326    327    328   5     0.00000    30.33400     0.00000  0.0
    334    326    327    349   5     0.00000    30.33400     0.00000  0.0
    324    326    334    333   5     0.00000    30.33400     0.00000  0.0
    324    326    334    352   5     0.00000    30.33400     0.00000  0.0
    327    326    334    333   5     0.00000    30.33400     0.00000  0.0
    327    326    334    352   5     0.00000    30.33400     0.00000  0.0
    326    327    328    329   5     0.00000    30.33400     0.00000  0.0
    326    327    328    350   5     0.00000    30.33400     0.00000  0.0
    349    327    328    329   5     0.00000    30.33400     0.00000  0.0
    349    327    328    350   5     0.00000    30.33400     0.00000  0.0
    327    328    329    330   5     0.00000    30.33400     0.00000  0.0
    327    328    329    333   5     0.00000    30.33400     0.00000  0.0
    350    328    329    330   5     0.00000    30.33400     0.00000  0.0
    350    328    329    333   5     0.00000    30.33400     0.00000  0.0
    328    329    330    331   5     0.00000     8.78640     0.00000  0.0
    328    329    330    332   5     0.00000     8.26340     0.00000  0.0
    333    329    330    331   5     0.00000     8.78640     0.00000  0.0
    333    329    330    332   5     0.00000     8.26340     0.00000  0.0
    328    329    333    334   5     0.00000    30.33400     0.00000  0.0
    328    329    333    351   5     0.00000    30.33400     0.00000  0.0
    330    329    333    334   5     0.00000    30.33400     0.00000  0.0
    330    329    333    351   5     0.00000    30.33400     0.00000  0.0
    329    330    332    357   5     0.00000    16.73600     0.00000  0.0
    331    330    332    357   5     0.00000    25.10400     0.00000  0.0
    330    332    357    356   5     0.00000   -20.92000     0.00000  0.0
    329    333    334    326   5     0.00000    30.33400     0.00000  0.0
    329    333    334    352   5     0.00000    30.33400     0.00000  0.0
    351    333    334    326   5     0.00000    30.33400     0.00000  0.0
    351    333    334    352   5     0.00000    30.33400     0.00000  0.0
    360    353    354    355   5     4.74884    -0.63178     1.67360  0.0
    360    353    354    376   5     0.00000     0.00000     1.25520  0.0
    360    353    354    377   5     0.00000     0.00000     1.25520  0.0
    374    353    354    355   5     0.00000     0.00000     1.25520  0.0
    374    353    354    376   5     0.00000     0.00000     1.25520  0.0
    374    353    354    377   5     0.00000     0.00000     1.25520  0.0
    375    353    354    355   5     0.00000     0.00000     1.25520  0.0
    375    353    354    376   5     0.00000     0.00000     1.25520  0.0
    375    353    354    377   5     0.00000     0.00000     1.25520  0.0
    354    353    360    359   5     4.74884    -0.63178     1.67360  0.0
    354    353    360    361   5     4.74884    -0.63178     1.67360  0.0
    354    353    360    385   5     0.00000     0.00000     1.25520  0.0
    374    353    360    359   5     0.00000     0.00000     1.25520  0.0
    374    353    360    361   5     0.00000     0.00000     1.25520  0.0
    374    353    360    385   5     0.00000     0.00000     1.25520  0.0
    375    353    360    359   5     0.00000     0.00000     1.25520  0.0
    375    353    360    361   5     0.00000     0.00000     1.25520  0.0
    375    353    360    385   5     0.00000     0.00000     1.25520  0.0
    353    354    355    356   5     4.74884    -0.63178     1.67360  0.0
    353    354    355    358   5     4.74884    -0.63178     1.67360  0.0
    353    354    355    378   5     0.00000     0.00000     1.25520  0.0
    376    354    355    356   5     0.00000     0.00000     1.25520  0.0
    376    354    355    358   5     0.00000     0.00000     1.25520  0.0
    376    354    355    378   5     0.00000     0.00000     1.25520  0.0
    377    354    355    356   5     0.00000     0.00000     1.25520  0.0
    377    354    355    358   5     0.00000     0.00000     1.25520  0.0
    377    354    355    378   5     0.00000     0.00000     1.25520  0.0
    354    355    356    357   5     5.25092    -2.58990     2.28446  0.0
    354    355    356    379   5     0.00000     0.00000     1.25520  0.0
    354    355    356    380   5     0.00000     0.00000     1.25520  0.0
    358    355    356    357   5     5.25092    -2.58990     2.28446  0.0
    358    355    356    379   5     0.00000     0.00000     1.25520  0.0
    358    355    356    380   5     0.00000     0.00000     1.25520  0.0
    378    355    356    357   5     0.00000     0.00000     1.95811  0.0
    378    355    356    379   5     0.00000     0.00000     1.25520  0.0
    378    355    356    380   5     0.00000     0.00000     1.25520  0.0
    354    355    358    359   5     4.74884    -0.63178     1.67360  0.0
    354    355    358    381   5     0.00000     0.00000     1.25520  0.0
    354    355    358    382   5     0.00000     0.00000     1.25520  0.0
    356    355    358    359   5     4.74884    -0.63178     1.67360  0.0
    356    355    358    381   5     0.00000     0.00000     1.25520  0.0
    356    355    358    382   5     0.00000     0.00000     1.25520  0.0
    378    355    358    359   5     0.00000     0.00000     1.25520  0.0
    378    355    358    381   5     0.00000     0.00000     1.25520  0.0
    378    355    358    382   5     0.00000     0.00000     1.25520  0.0
    355    356    357    332   5     0.00000     0.00000     3.13800  0.0
    379    356    357    332   5     0.00000     0.00000     3.13800  0.0
    380    356    357    332   5     0.00000     0.00000     3.13800  0.0
    355    358    359    360   5     4.74884    -0.63178     1.67360  0.0
    355    358    359    383   5     0.00000     0.00000     1.25520  0.0
    355    358    359    384   5     0.00000     0.00000     1.25520  0.0
    381    358    359    360   5     0.00000     0.00000     1.25520  0.0
    381    358    359    383   5     0.00000     0.00000     1.25520  0.0
    381    358    359    384   5     0.00000     0.00000     1.25520  0.0
    382    358    359    360   5     0.00000     0.00000     1.25520  0.0
    382    358    359    383   5     0.00000     0.00000     1.25520  0.0
    382    358    359    384   5     0.00000     0.00000     1.25520  0.0
    358    359    360    353   5     4.74884    -0.63178     1.67360  0.0
    358    359    360    361   5     4.74884    -0.63178     1.67360  0.0
    358    359    360    385   5     0.00000     0.00000     1.25520  0.0
    383    359    360    353   5     0.00000     0.00000     1.25520  0.0
    383    359    360    361   5     0.00000     0.00000     1.25520  0.0
    383    359    360    385   5     0.00000     0.00000     1.25520  0.0
    384    359    360    353   5     0.00000     0.00000     1.25520  0.0
    384    359    360    361   5     0.00000     0.00000     1.25520  0.0
    384    359    360    385   5     0.00000     0.00000     1.25520  0.0
    353    360    361    362   5     5.25092    -2.58990     2.28446  0.0
    353    360    361    386   5     0.00000     0.00000     1.25520  0.0
    353    360    361    387   5     0.00000     0.00000     1.25520  0.0
    359    360    361    362   5     5.25092    -2.58990     2.28446  0.0
    359    360    361    386   5     0.00000     0.00000     1.25520  0.0
    359    360    361    387   5     0.00000     0.00000     1.25520  0.0
    385    360    361    362   5     0.00000     0.00000     1.95811  0.0
    385    360    361    386   5     0.00000     0.00000     1.25520  0.0
    385    360    361    387   5     0.00000     0.00000     1.25520  0.0
    360    361    362    363   5    -2.16731    -3.93296     0.98324  0.0
    386    361    362    363   5     0.00000     0.00000     0.67362  0.0
    387    361    362    363   5     0.00000     0.00000     0.67362  0.0
    361    362    363    364   5     0.00000    25.10400     0.00000  0.0
    361    362    363    365   5     5.01662    27.18345     0.00000  0.0
    362    363    365    366   5     0.00000     8.26340     0.00000  0.0
    362    363    365    373   5     0.00000     8.26340     0.00000  0.0
    364    363    365    366   5     0.00000     8.78640     0.00000  0.0
    364    363    365    373   5     0.00000     8.78640     0.00000  0.0
    363    365    366    367   5     0.00000    30.33400     0.00000  0.0
    363    365    366    388   5     0.00000    30.33400     0.00000  0.0
    373    365    366    367   5     0.00000    30.33400     0.00000  0.0
    373    365    366    388   5     0.00000    30.33400     0.00000  0.0
    363    365    373    372   5     0.00000    30.33400     0.00000  0.0
    363    365    373    391   5     0.00000    30.33400     0.00000  0.0
    366    365    373    372   5     0.00000    30.33400     0.00000  0.0
    366    365    373    391   5     0.00000    30.33400     0.00000  0.0
    365    366    367    368   5     0.00000    30.33400     0.00000  0.0
    365    366    367    389   5     0.00000    30.33400     0.00000  0.0
    388    366    367    368   5     0.00000    30.33400     0.00000  0.0
    388    366    367    389   5     0.00000    30.33400     0.00000  0.0
    366    367    368    369   5     0.00000    30.33400     0.00000  0.0
    366    367    368    372   5     0.00000    30.33400     0.00000  0.0
    389    367    368    369   5     0.00000    30.33400     0.00000  0.0
    389    367    368    372   5     0.00000    30.33400     0.00000  0.0
    367    368    369    370   5     0.00000     8.78640     0.00000  0.0
    367    368    369    371   5     0.00000     8.26340     0.00000  0.0
    372    368    369    370   5     0.00000     8.78640     0.00000  0.0
    372    368    369    371   5     0.00000     8.26340     0.00000  0.0
    367    368    372    373   5     0.00000    30.33400     0.00000  0.0
    367    368    372    390   5     0.00000    30.33400     0.00000  0.0
    369    368    372    373   5     0.00000    30.33400     0.00000  0.0
    369    368    372    390   5     0.00000    30.33400     0.00000  0.0
    368    369    371    396   5     0.00000    16.73600     0.00000  0.0
    370    369    371    396   5     0.00000    25.10400     0.00000  0.0
    369    371    396    395   5     0.00000   -20.92000     0.00000  0.0
    368    372    373    365   5     0.00000    30.33400     0.00000  0.0
    368    372    373    391   5     0.00000    30.33400     0.00000  0.0
    390    372    373    365   5     0.00000    30.33400     0.00000  0.0
    390    372    373    391   5     0.00000    30.33400     0.00000  0.0
    399    392    393    394   5     4.74884    -0.63178     1.67360  0.0
    399    392    393    415   5     0.00000     0.00000     1.25520  0.0
    399    392    393    416   5     0.00000     0.00000     1.25520  0.0
    413    392    393    394   5     0.00000     0.00000     1.25520  0.0
    413    392    393    415   5     0.00000     0.00000     1.25520  0.0
    413    392    393    416   5     0.00000     0.00000     1.25520  0.0
    414    392    393    394   5     0.00000     0.00000     1.25520  0.0
    414    392    393    415   5     0.00000     0.00000     1.25520  0.0
    414    392    393    416   5     0.00000     0.00000     1.25520  0.0
    393    392    399    398   5     4.74884    -0.63178     1.67360  0.0
    393    392    399    400   5     4.74884    -0.63178     1.67360  0.0
    393    392    399    424   5     0.00000     0.00000     1.25520  0.0
    413    392    399    398   5     0.00000     0.00000     1.25520  0.0
    413    392    399    400   5     0.00000     0.00000     1.25520  0.0
    413    392    399    424   5     0.00000     0.00000     1.25520  0.0
    414    392    399    398   5     0.00000     0.00000     1.25520  0.0
    414    392    399    400   5     0.00000     0.00000     1.25520  0.0
    414    392    399    424   5     0.00000     0.00000     1.25520  0.0
    392    393    394    395   5     4.74884    -0.63178     1.67360  0.0
    392    393    394    397   5     4.74884    -0.63178     1.67360  0.0
    392    393    394    417   5     0.00000     0.00000     1.25520  0.0
    415    393    394    395   5     0.00000     0.00000     1.25520  0.0
    415    393    394    397   5     0.00000     0.00000     1.25520  0.0
    415    393    394    417   5     0.00000     0.00000     1.25520  0.0
    416    393    394    395   5     0.00000     0.00000     1.25520  0.0
    416    393    394    397   5     0.00000     0.00000     1.25520  0.0
    416    393    394    417   5     0.00000     0.00000     1.25520  0.0
    393    394    395    396   5     5.25092    -2.58990     2.28446  0.0
    393    394    395    418   5     0.00000     0.00000     1.25520  0.0
    393    394    395    419   5     0.00000     0.00000     1.25520  0.0
    397    394    395    396   5     5.25092    -2.58990     2.28446  0.0
    397    394    395    418   5     0.00000     0.00000     1.25520  0.0
    397    394    395    419   5     0.00000     0.00000     1.25520  0.0
    417    394    395    396   5     0.00000     0.00000     1.95811  0.0
    417    394    395    418   5     0.00000     0.00000     1.25520  0.0
    417    394    395    419   5     0.00000     0.00000     1.25520  0.0
    393    394    397    398   5     4.74884    -0.63178     1.67360  0.0
    393    394    397    420   5     0.00000     0.00000     1.25520  0.0
    393    394    397    421   5     0.00000     0.00000     1.25520  0.0
    395    394    397    398   5     4.74884    -0.63178     1.67360  0.0
    395    394    397    420   5     0.00000     0.00000     1.25520  0.0
    395    394    397    421   5     0.00000     0.00000     1.25520  0.0
    417    394    397    398   5     0.00000     0.00000     1.25520  0.0
    417    394    397    420   5     0.00000     0.00000     1.25520  0.0
    417    394    397    421   5     0.00000     0.00000     1.25520  0.0
    394    395    396    371   5     0.00000     0.00000     3.13800  0.0
    418    395    396    371   5     0.00000     0.00000     3.13800  0.0
    419    395    396    371   5     0.00000     0.00000     3.13800  0.0
    394    397    398    399   5     4.74884    -0.63178     1.67360  0.0
    394    397    398    422   5     0.00000     0.00000     1.25520  0.0
    394    397    398    423   5     0.00000     0.00000     1.25520  0.0
    420    397    398    399   5     0.00000     0.00000     1.25520  0.0
    420    397    398    422   5     0.00000     0.00000     1.25520  0.0
    420    397    398    423   5     0.00000     0.00000     1.25520  0.0
    421    397    398    399   5     0.00000     0.00000     1.25520  0.0
    421    397    398    422   5     0.00000     0.00000     1.25520  0.0
    421    397    398    423   5     0.00000     0.00000     1.25520  0.0
    397    398    399    392   5     4.74884    -0.63178     1.67360  0.0
    397    398    399    400   5     4.74884    -0.63178     1.67360  0.0
    397    398    399    424   5     0.00000     0.00000     1.25520  0.0
    422    398    399    392   5     0.00000     0.00000     1.25520  0.0
    422    398    399    400   5     0.00000     0.00000     1.25520  0.0
    422    398    399    424   5     0.00000     0.00000     1.25520  0.0
    423    398    399    392   5     0.00000     0.00000     1.25520  0.0
    423    398    399    400   5     0.00000     0.00000     1.25520  0.0
    423    398    399    424   5     0.00000     0.00000     1.25520  0.0
    392    399    400    401   5     5.25092    -2.58990     2.28446  0.0
    392    399    400    425   5     0.00000     0.00000     1.25520  0.0
    392    399    400    426   5     0.00000     0.00000     1.25520  0.0
    398    399    400    401   5     5.25092    -2.58990     2.28446  0.0
    398    399    400    425   5     0.00000     0.00000     1.25520  0.0
    398    399    400    426   5     0.00000     0.00000     1.25520  0.0
    424    399    400    401   5     0.00000     0.00000     1.95811  0.0
    424    399    400    425   5     0.00000     0.00000     1.25520  0.0
    424    399    400    426   5     0.00000     0.00000     1.25520  0.0
    399    400    401    402   5    -2.16731    -3.93296     0.98324  0.0
    425    400    401    402   5     0.00000     0.00000     0.67362  0.0
    426    400    401    402   5     0.00000     0.00000     0.67362  0.0
    400    401    402    403   5     0.00000    25.10400     0.00000  0.0
    400    401    402    404   5     5.01662    27.18345     0.00000  0.0
    401    402    404    405   5     0.00000     8.26340     0.00000  0.0
    401    402    404    412   5     0.00000     8.26340     0.00000  0.0
    403    402    404    405   5     0.00000     8.78640     0.00000  0.0
    403    402    404    412   5     0.00000     8.78640     0.00000  0.0
    402    404    405    406   5     0.00000    30.33400     0.00000  0.0
    402    404    405    427   5     0.00000    30.33400     0.00000  0.0
    412    404    405    406   5     0.00000    30.33400     0.00000  0.0
    412    404    405    427   5     0.00000    30.33400     0.00000  0.0
    402    404    412    411   5     0.00000    30.33400     0.00000  0.0
    402    404    412    430   5     0.00000    30.33400     0.00000  0.0
    405    404    412    411   5     0.00000    30.33400     0.00000  0.0
    405    404    412    430   5     0.00000    30.33400     0.00000  0.0
    404    405    406    407   5     0.00000    30.33400     0.00000  0.0
    404    405    406    428   5     0.00000    30.33400     0.00000  0.0
    427    405    406    407   5     0.00000    30.33400     0.00000  0.0
    427    405    406    428   5     0.00000    30.33400     0.00000  0.0
    405    406    407    408   5     0.00000    30.33400     0.00000  0.0
    405    406    407    411   5     0.00000    30.33400     0.00000  0.0
    428    406    407    408   5     0.00000    30.33400     0.00000  0.0
    428    406    407    411   5     0.00000    30.33400     0.00000  0.0
    406    407    408    409   5     0.00000     8.78640     0.00000  0.0
    406    407    408    410   5     0.00000     8.26340     0.00000  0.0
    411    407    408    409   5     0.00000     8.78640     0.00000  0.0
    411    407    408    410   5     0.00000     8.26340     0.00000  0.0
    406    407    411    412   5     0.00000    30.33400     0.00000  0.0
    406    407    411    429   5     0.00000    30.33400     0.00000  0.0
    408    407    411    412   5     0.00000    30.33400     0.00000  0.0
    408    407    411    429   5     0.00000    30.33400     0.00000  0.0
    407    408    410    435   5     0.00000    16.73600     0.00000  0.0
    409    408    410    435   5     0.00000    25.10400     0.00000  0.0
    408    410    435    434   5     0.00000   -20.92000     0.00000  0.0
    407    411    412    404   5     0.00000    30.33400     0.00000  0.0
    407    411    412    430   5     0.00000    30.33400     0.00000  0.0
    429    411    412    404   5     0.00000    30.33400     0.00000  0.0
    429    411    412    430   5     0.00000    30.33400     0.00000  0.0
    438    431    432    433   5     4.74884    -0.63178     1.67360  0.0
    438    431    432    454   5     0.00000     0.00000     1.25520  0.0
    438    431    432    455   5     0.00000     0.00000     1.25520  0.0
    452    431    432    433   5     0.00000     0.00000     1.25520  0.0
    452    431    432    454   5     0.00000     0.00000     1.25520  0.0
    452    431    432    455   5     0.00000     0.00000     1.25520  0.0
    453    431    432    433   5     0.00000     0.00000     1.25520  0.0
    453    431    432    454   5     0.00000     0.00000     1.25520  0.0
    453    431    432    455   5     0.00000     0.00000     1.25520  0.0
    432    431    438    437   5     4.74884    -0.63178     1.67360  0.0
    432    431    438    439   5     4.74884    -0.63178     1.67360  0.0
    432    431    438    463   5     0.00000     0.00000     1.25520  0.0
    452    431    438    437   5     0.00000     0.00000     1.25520  0.0
    452    431    438    439   5     0.00000     0.00000     1.25520  0.0
    452    431    438    463   5     0.00000     0.00000     1.25520  0.0
    453    431    438    437   5     0.00000     0.00000     1.25520  0.0
    453    431    438    439   5     0.00000     0.00000     1.25520  0.0
    453    431    438    463   5     0.00000     0.00000     1.25520  0.0
    431    432    433    434   5     4.74884    -0.63178     1.67360  0.0
    431    432    433    436   5     4.74884    -0.63178     1.67360  0.0
    431    432    433    456   5     0.00000     0.00000     1.25520  0.0
    454    432    433    434   5     0.00000     0.00000     1.25520  0.0
    454    432    433    436   5     0.00000     0.00000     1.25520  0.0
    454    432    433    456   5     0.00000     0.00000     1.25520  0.0
    455    432    433    434   5     0.00000     0.00000     1.25520  0.0
    455    432    433    436   5     0.00000     0.00000     1.25520  0.0
    455    432    433    456   5     0.00000     0.00000     1.25520  0.0
    432    433    434    435   5     5.25092    -2.58990     2.28446  0.0
    432    433    434    457   5     0.00000     0.00000     1.25520  0.0
    432    433    434    458   5     0.00000     0.00000     1.25520  0.0
    436    433    434    435   5     5.25092    -2.58990     2.28446  0.0
    436    433    434    457   5     0.00000     0.00000     1.25520  0.0
    436    433    434    458   5     0.00000     0.00000     1.25520  0.0
    456    433    434    435   5     0.00000     0.00000     1.95811  0.0
    456    433    434    457   5     0.00000     0.00000     1.25520  0.0
    456    433    434    458   5     0.00000     0.00000     1.25520  0.0
    432    433    436    437   5     4.74884    -0.63178     1.67360  0.0
    432    433    436    459   5     0.00000     0.00000     1.25520  0.0
    432    433    436    460   5     0.00000     0.00000     1.25520  0.0
    434    433    436    437   5     4.74884    -0.63178     1.67360  0.0
    434    433    436    459   5     0.00000     0.00000     1.25520  0.0
    434    433    436    460   5     0.00000     0.00000     1.25520  0.0
    456    433    436    437   5     0.00000     0.00000     1.25520  0.0
    456    433    436    459   5     0.00000     0.00000     1.25520  0.0
    456    433    436    460   5     0.00000     0.00000     1.25520  0.0
    433    434    435    410   5     0.00000     0.00000     3.13800  0.0
    457    434    435    410   5     0.00000     0.00000     3.13800  0.0
    458    434    435    410   5     0.00000     0.00000     3.13800  0.0
    433    436    437    438   5     4.74884    -0.63178     1.67360  0.0
    433    436    437    461   5     0.00000     0.00000     1.25520  0.0
    433    436    437    462   5     0.00000     0.00000     1.25520  0.0
    459    436    437    438   5     0.00000     0.00000     1.25520  0.0
    459    436    437    461   5     0.00000     0.00000     1.25520  0.0
    459    436    437    462   5     0.00000     0.00000     1.25520  0.0
    460    436    437    438   5     0.00000     0.00000     1.25520  0.0
    460    436    437    461   5     0.00000     0.00000     1.25520  0.0
    460    436    437    462   5     0.00000     0.00000     1.25520  0.0
    436    437    438    431   5     4.74884    -0.63178     1.67360  0.0
    436    437    438    439   5     4.74884    -0.63178     1.67360  0.0
    436    437    438    463   5     0.00000     0.00000     1.25520  0.0
    461    437    438    431   5     0.00000     0.00000     1.25520  0.0
    461    437    438    439   5     0.00000     0.00000     1.25520  0.0
    461    437    438    463   5     0.00000     0.00000     1.25520  0.0
    462    437    438    431   5     0.00000     0.00000     1.25520  0.0
    462    437    438    439   5     0.00000     0.00000     1.25520  0.0
    462    437    438    463   5     0.00000     0.00000     1.25520  0.0
    431    438    439    440   5     5.25092    -2.58990     2.28446  0.0
    431    438    439    464   5     0.00000     0.00000     1.25520  0.0
    431    438    439    465   5     0.00000     0.00000     1.25520  0.0
    437    438    439    440   5     5.25092    -2.58990     2.28446  0.0
    437    438    439    464   5     0.00000     0.00000     1.25520  0.0
    437    438    439    465   5     0.00000     0.00000     1.25520  0.0
    463    438    439    440   5     0.00000     0.00000     1.95811  0.0
    463    438    439    464   5     0.00000     0.00000     1.25520  0.0
    463    438    439    465   5     0.00000     0.00000     1.25520  0.0
    438    439    440    441   5    -2.16731    -3.93296     0.98324  0.0
    464    439    440    441   5     0.00000     0.00000     0.67362  0.0
    465    439    440    441   5     0.00000     0.00000     0.67362  0.0
    439    440    441    442   5     0.00000    25.10400     0.00000  0.0
    439    440    441    443   5     5.01662    27.18345     0.00000  0.0
    440    441    443    444   5     0.00000     8.26340     0.00000  0.0
    440    441    443    451   5     0.00000     8.26340     0.00000  0.0
    442    441    443    444   5     0.00000     8.78640     0.00000  0.0
    442    441    443    451   5     0.00000     8.78640     0.00000  0.0
    441    443    444    445   5     0.00000    30.33400     0.00000  0.0
    441    443    444    466   5     0.00000    30.33400     0.00000  0.0
    451    443    444    445   5     0.00000    30.33400     0.00000  0.0
    451    443    444    466   5     0.00000    30.33400     0.00000  0.0
    441    443    451    450   5     0.00000    30.33400     0.00000  0.0
    441    443    451    469   5     0.00000    30.33400     0.00000  0.0
    444    443    451    450   5     0.00000    30.33400     0.00000  0.0
    444    443    451    469   5     0.00000    30.33400     0.00000  0.0
    443    444    445    446   5     0.00000    30.33400     0.00000  0.0
    443    444    445    467   5     0.00000    30.33400     0.00000  0.0
    466    444    445    446   5     0.00000    30.33400     0.00000  0.0
    466    444    445    467   5     0.00000    30.33400     0.00000  0.0
    444    445    446    447   5     0.00000    30.33400     0.00000  0.0
    444    445    446    450   5     0.00000    30.33400     0.00000  0.0
    467    445    446    447   5     0.00000    30.33400     0.00000  0.0
    467    445    446    450   5     0.00000    30.33400     0.00000  0.0
    445    446    447    448   5     0.00000     8.78640     0.00000  0.0
    445    446    447    449   5     0.00000     8.26340     0.00000  0.0
    450    446    447    448   5     0.00000     8.78640     0.00000  0.0
    450    446    447    449   5     0.00000     8.26340     0.00000  0.0
    445    446    450    451   5     0.00000    30.33400     0.00000  0.0
    445    446    450    468   5     0.00000    30.33400     0.00000  0.0
    447    446    450    451   5     0.00000    30.33400     0.00000  0.0
    447    446    450    468   5     0.00000    30.33400     0.00000  0.0
    446    447    449    474   5     0.00000    16.73600     0.00000  0.0
    448    447    449    474   5     0.00000    25.10400     0.00000  0.0
    447    449    474    473   5     0.00000   -20.92000     0.00000  0.0
    446    450    451    443   5     0.00000    30.33400     0.00000  0.0
    446    450    451    469   5     0.00000    30.33400     0.00000  0.0
    468    450    451    443   5     0.00000    30.33400     0.00000  0.0
    468    450    451    469   5     0.00000    30.33400     0.00000  0.0
    477    470    471    472   5     4.74884    -0.63178     1.67360  0.0
    477    470    471    493   5     0.00000     0.00000     1.25520  0.0
    477    470    471    494   5     0.00000     0.00000     1.25520  0.0
    491    470    471    472   5     0.00000     0.00000     1.25520  0.0
    491    470    471    493   5     0.00000     0.00000     1.25520  0.0
    491    470    471    494   5     0.00000     0.00000     1.25520  0.0
    492    470    471    472   5     0.00000     0.00000     1.25520  0.0
    492    470    471    493   5     0.00000     0.00000     1.25520  0.0
    492    470    471    494   5     0.00000     0.00000     1.25520  0.0
    471    470    477    476   5     4.74884    -0.63178     1.67360  0.0
    471    470    477    478   5     4.74884    -0.63178     1.67360  0.0
    471    470    477    502   5     0.00000     0.00000     1.25520  0.0
    491    470    477    476   5     0.00000     0.00000     1.25520  0.0
    491    470    477    478   5     0.00000     0.00000     1.25520  0.0
    491    470    477    502   5     0.00000     0.00000     1.25520  0.0
    492    470    477    476   5     0.00000     0.00000     1.25520  0.0
    492    470    477    478   5     0.00000     0.00000     1.25520  0.0
    492    470    477    502   5     0.00000     0.00000     1.25520  0.0
    470    471    472    473   5     4.74884    -0.63178     1.67360  0.0
    470    471    472    475   5     4.74884    -0.63178     1.67360  0.0
    470    471    472    495   5     0.00000     0.00000     1.25520  0.0
    493    471    472    473   5     0.00000     0.00000     1.25520  0.0
    493    471    472    475   5     0.00000     0.00000     1.25520  0.0
    493    471    472    495   5     0.00000     0.00000     1.25520  0.0
    494    471    472    473   5     0.00000     0.00000     1.25520  0.0
    494    471    472    475   5     0.00000     0.00000     1.25520  0.0
    494    471    472    495   5     0.00000     0.00000     1.25520  0.0
    471    472    473    474   5     5.25092    -2.58990     2.28446  0.0
    471    472    473    496   5     0.00000     0.00000     1.25520  0.0
    471    472    473    497   5     0.00000     0.00000     1.25520  0.0
    475    472    473    474   5     5.25092    -2.58990     2.28446  0.0
    475    472    473    496   5     0.00000     0.00000     1.25520  0.0
    475    472    473    497   5     0.00000     0.00000     1.25520  0.0
    495    472    473    474   5     0.00000     0.00000     1.95811  0.0
    495    472    473    496   5     0.00000     0.00000     1.25520  0.0
    495    472    473    497   5     0.00000     0.00000     1.25520  0.0
    471    472    475    476   5     4.74884    -0.63178     1.67360  0.0
    471    472    475    498   5     0.00000     0.00000     1.25520  0.0
    471    472    475    499   5     0.00000     0.00000     1.25520  0.0
    473    472    475    476   5     4.74884    -0.63178     1.67360  0.0
    473    472    475    498   5     0.00000     0.00000     1.25520  0.0
    473    472    475    499   5     0.00000     0.00000     1.25520  0.0
    495    472    475    476   5     0.00000     0.00000     1.25520  0.0
    495    472    475    498   5     0.00000     0.00000     1.25520  0.0
    495    472    475    499   5     0.00000     0.00000     1.25520  0.0
    472    473    474    449   5     0.00000     0.00000     3.13800  0.0
    496    473    474    449   5     0.00000     0.00000     3.13800  0.0
    497    473    474    449   5     0.00000     0.00000     3.13800  0.0
    472    475    476    477   5     4.74884    -0.63178     1.67360  0.0
    472    475    476    500   5     0.00000     0.00000     1.25520  0.0
    472    475    476    501   5     0.00000     0.00000     1.25520  0.0
    498    475    476    477   5     0.00000     0.00000     1.25520  0.0
    498    475    476    500   5     0.00000     0.00000     1.25520  0.0
    498    475    476    501   5     0.00000     0.00000     1.25520  0.0
    499    475    476    477   5     0.00000     0.00000     1.25520  0.0
    499    475    476    500   5     0.00000     0.00000     1.25520  0.0
    499    475    476    501   5     0.00000     0.00000     1.25520  0.0
    475    476    477    470   5     4.74884    -0.63178     1.67360  0.0
    475    476    477    478   5     4.74884    -0.63178     1.67360  0.0
    475    476    477    502   5     0.00000     0.00000     1.25520  0.0
    500    476    477    470   5     0.00000     0.00000     1.25520  0.0
    500    476    477    478   5     0.00000     0.00000     1.25520  0.0
    500    476    477    502   5     0.00000     0.00000     1.25520  0.0
    501    476    477    470   5     0.00000     0.00000     1.25520  0.0
    501    476    477    478   5     0.00000     0.00000     1.25520  0.0
    501    476    477    502   5     0.00000     0.00000     1.25520  0.0
    470    477    478    479   5     5.25092    -2.58990     2.28446  0.0
    470    477    478    503   5     0.00000     0.00000     1.25520  0.0
    470    477    478    504   5     0.00000     0.00000     1.25520  0.0
    476    477    478    479   5     5.25092    -2.58990     2.28446  0.0
    476    477    478    503   5     0.00000     0.00000     1.25520  0.0
    476    477    478    504   5     0.00000     0.00000     1.25520  0.0
    502    477    478    479   5     0.00000     0.00000     1.95811  0.0
    502    477    478    503   5     0.00000     0.00000     1.25520  0.0
    502    477    478    504   5     0.00000     0.00000     1.25520  0.0
    477    478    479    480   5    -2.16731    -3.93296     0.98324  0.0
    503    478    479    480   5     0.00000     0.00000     0.67362  0.0
    504    478    479    480   5     0.00000     0.00000     0.67362  0.0
    478    479    480    481   5     0.00000    25.10400     0.00000  0.0
    478    479    480    482   5     5.01662    27.18345     0.00000  0.0
    479    480    482    483   5     0.00000     8.26340     0.00000  0.0
    479    480    482    490   5     0.00000     8.26340     0.00000  0.0
    481    480    482    483   5     0.00000     8.78640     0.00000  0.0
    481    480    482    490   5     0.00000     8.78640     0.00000  0.0
    480    482    483    484   5     0.00000    30.33400     0.00000  0.0
    480    482    483    505   5     0.00000    30.33400     0.00000  0.0
    490    482    483    484   5     0.00000    30.33400     0.00000  0.0
    490    482    483    505   5     0.00000    30.33400     0.00000  0.0
    480    482    490    489   5     0.00000    30.33400     0.00000  0.0
    480    482    490    508   5     0.00000    30.33400     0.00000  0.0
    483    482    490    489   5     0.00000    30.33400     0.00000  0.0
    483    482    490    508   5     0.00000    30.33400     0.00000  0.0
    482    483    484    485   5     0.00000    30.33400     0.00000  0.0
    482    483    484    506   5     0.00000    30.33400     0.00000  0.0
    505    483    484    485   5     0.00000    30.33400     0.00000  0.0
    505    483    484    506   5     0.00000    30.33400     0.00000  0.0
    483    484    485    486   5     0.00000    30.33400     0.00000  0.0
    483    484    485    489   5     0.00000    30.33400     0.00000  0.0
    506    484    485    486   5     0.00000    30.33400     0.00000  0.0
    506    484    485    489   5     0.00000    30.33400     0.00000  0.0
    484    485    486    487   5     0.00000     8.78640     0.00000  0.0
    484    485    486    488   5     0.00000     8.26340     0.00000  0.0
    489    485    486    487   5     0.00000     8.78640     0.00000  0.0
    489    485    486    488   5     0.00000     8.26340     0.00000  0.0
    484    485    489    490   5     0.00000    30.33400     0.00000  0.0
    484    485    489    507   5     0.00000    30.33400     0.00000  0.0
    486    485    489    490   5     0.00000    30.33400     0.00000  0.0
    486    485    489    507   5     0.00000    30.33400     0.00000  0.0
    485    486    488    513   5     0.00000    16.73600     0.00000  0.0
    487    486    488    513   5     0.00000    25.10400     0.00000  0.0
    486    488    513    512   5     0.00000   -20.92000     0.00000  0.0
    485    489    490    482   5     0.00000    30.33400     0.00000  0.0
    485    489    490    508   5     0.00000    30.33400     0.00000  0.0
    507    489    490    482   5     0.00000    30.33400     0.00000  0.0
    507    489    490    508   5     0.00000    30.33400     0.00000  0.0
    516    509    510    511   5     4.74884    -0.63178     1.67360  0.0
    516    509    510    532   5     0.00000     0.00000     1.25520  0.0
    516    509    510    533   5     0.00000     0.00000     1.25520  0.0
    530    509    510    511   5     0.00000     0.00000     1.25520  0.0
    530    509    510    532   5     0.00000     0.00000     1.25520  0.0
    530    509    510    533   5     0.00000     0.00000     1.25520  0.0
    531    509    510    511   5     0.00000     0.00000     1.25520  0.0
    531    509    510    532   5     0.00000     0.00000     1.25520  0.0
    531    509    510    533   5     0.00000     0.00000     1.25520  0.0
    510    509    516    515   5     4.74884    -0.63178     1.67360  0.0
    510    509    516    517   5     4.74884    -0.63178     1.67360  0.0
    510    509    516    541   5     0.00000     0.00000     1.25520  0.0
    530    509    516    515   5     0.00000     0.00000     1.25520  0.0
    530    509    516    517   5     0.00000     0.00000     1.25520  0.0
    530    509    516    541   5     0.00000     0.00000     1.25520  0.0
    531    509    516    515   5     0.00000     0.00000     1.25520  0.0
    531    509    516    517   5     0.00000     0.00000     1.25520  0.0
    531    509    516    541   5     0.00000     0.00000     1.25520  0.0
    509    510    511    512   5     4.74884    -0.63178     1.67360  0.0
    509    510    511    514   5     4.74884    -0.63178     1.67360  0.0
    509    510    511    534   5     0.00000     0.00000     1.25520  0.0
    532    510    511    512   5     0.00000     0.00000     1.25520  0.0
    532    510    511    514   5     0.00000     0.00000     1.25520  0.0
    532    510    511    534   5     0.00000     0.00000     1.25520  0.0
    533    510    511    512   5     0.00000     0.00000     1.25520  0.0
    533    510    511    514   5     0.00000     0.00000     1.25520  0.0
    533    510    511    534   5     0.00000     0.00000     1.25520  0.0
    510    511    512    513   5     5.25092    -2.58990     2.28446  0.0
    510    511    512    535   5     0.00000     0.00000     1.25520  0.0
    510    511    512    536   5     0.00000     0.00000     1.25520  0.0
    514    511    512    513   5     5.25092    -2.58990     2.28446  0.0
    514    511    512    535   5     0.00000     0.00000     1.25520  0.0
    514    511    512    536   5     0.00000     0.00000     1.25520  0.0
    534    511    512    513   5     0.00000     0.00000     1.95811  0.0
    534    511    512    535   5     0.00000     0.00000     1.25520  0.0
    534    511    512    536   5     0.00000     0.00000     1.25520  0.0
    510    511    514    515   5     4.74884    -0.63178     1.67360  0.0
    510    511    514    537   5     0.00000     0.00000     1.25520  0.0
    510    511    514    538   5     0.00000     0.00000     1.25520  0.0
    512    511    514    515   5     4.74884    -0.63178     1.67360  0.0
    512    511    514    537   5     0.00000     0.00000     1.25520  0.0
    512    511    514    538   5     0.00000     0.00000     1.25520  0.0
    534    511    514    515   5     0.00000     0.00000     1.25520  0.0
    534    511    514    537   5     0.00000     0.00000     1.25520  0.0
    534    511    514    538   5     0.00000     0.00000     1.25520  0.0
    511    512    513    488   5     0.00000     0.00000     3.13800  0.0
    535    512    513    488   5     0.00000     0.00000     3.13800  0.0
    536    512    513    488   5     0.00000     0.00000     3.13800  0.0
    511    514    515    516   5     4.74884    -0.63178     1.67360  0.0
    511    514    515    539   5     0.00000     0.00000     1.25520  0.0
    511    514    515    540   5     0.00000     0.00000     1.25520  0.0
    537    514    515    516   5     0.00000     0.00000     1.25520  0.0
    537    514    515    539   5     0.00000     0.00000     1.25520  0.0
    537    514    515    540   5     0.00000     0.00000     1.25520  0.0
    538    514    515    516   5     0.00000     0.00000     1.25520  0.0
    538    514    515    539   5     0.00000     0.00000     1.25520  0.0
    538    514    515    540   5     0.00000     0.00000     1.25520  0.0
    514    515    516    509   5     4.74884    -0.63178     1.67360  0.0
    514    515    516    517   5     4.74884    -0.63178     1.67360  0.0
    514    515    516    541   5     0.00000     0.00000     1.25520  0.0
    539    515    516    509   5     0.00000     0.00000     1.25520  0.0
    539    515    516    517   5     0.00000     0.00000     1.25520  0.0
    539    515    516    541   5     0.00000     0.00000     1.25520  0.0
    540    515    516    509   5     0.00000     0.00000     1.25520  0.0
    540    515    516    517   5     0.00000     0.00000     1.25520  0.0
    540    515    516    541   5     0.00000     0.00000     1.25520  0.0
    509    516    517    518   5     5.25092    -2.58990     2.28446  0.0
    509    516    517    542   5     0.00000     0.00000     1.25520  0.0
    509    516    517    543   5     0.00000     0.00000     1.25520  0.0
    515    516    517    518   5     5.25092    -2.58990     2.28446  0.0
    515    516    517    542   5     0.00000     0.00000     1.25520  0.0
    515    516    517    543   5     0.00000     0.00000     1.25520  0.0
    541    516    517    518   5     0.00000     0.00000     1.95811  0.0
    541    516    517    542   5     0.00000     0.00000     1.25520  0.0
    541    516    517    543   5     0.00000     0.00000     1.25520  0.0
    516    517    518    519   5    -2.16731    -3.93296     0.98324  0.0
    542    517    518    519   5     0.00000     0.00000     0.67362  0.0
    543    517    518    519   5     0.00000     0.00000     0.67362  0.0
    517    518    519    520   5     0.00000    25.10400     0.00000  0.0
    517    518    519    521   5     5.01662    27.18345     0.00000  0.0
    518    519    521    522   5     0.00000     8.26340     0.00000  0.0
    518    519    521    529   5     0.00000     8.26340     0.00000  0.0
    520    519    521    522   5     0.00000     8.78640     0.00000  0.0
    520    519    521    529   5     0.00000     8.78640     0.00000  0.0
    519    521    522    523   5     0.00000    30.33400     0.00000  0.0
    519    521    522    544   5     0.00000    30.33400     0.00000  0.0
    529    521    522    523   5     0.00000    30.33400     0.00000  0.0
    529    521    522    544   5     0.00000    30.33400     0.00000  0.0
    519    521    529    528   5     0.00000    30.33400     0.00000  0.0
    519    521    529    547   5     0.00000    30.33400     0.00000  0.0
    522    521    529    528   5     0.00000    30.33400     0.00000  0.0
    522    521    529    547   5     0.00000    30.33400     0.00000  0.0
    521    522    523    524   5     0.00000    30.33400     0.00000  0.0
    521    522    523    545   5     0.00000    30.33400     0.00000  0.0
    544    522    523    524   5     0.00000    30.33400     0.00000  0.0
    544    522    523    545   5     0.00000    30.33400     0.00000  0.0
    522    523    524    525   5     0.00000    30.33400     0.00000  0.0
    522    523    524    528   5     0.00000    30.33400     0.00000  0.0
    545    523    524    525   5     0.00000    30.33400     0.00000  0.0
    545    523    524    528   5     0.00000    30.33400     0.00000  0.0
    523    524    525    526   5     0.00000     8.78640     0.00000  0.0
    523    524    525    527   5     0.00000     8.26340     0.00000  0.0
    528    524    525    526   5     0.00000     8.78640     0.00000  0.0
    528    524    525    527   5     0.00000     8.26340     0.00000  0.0
    523    524    528    529   5     0.00000    30.33400     0.00000  0.0
    523    524    528    546   5     0.00000    30.33400     0.00000  0.0
    525    524    528    529   5     0.00000    30.33400     0.00000  0.0
    525    524    528    546   5     0.00000    30.33400     0.00000  0.0
    524    525    527    552   5     0.00000    16.73600     0.00000  0.0
    526    525    527    552   5     0.00000    25.10400     0.00000  0.0
    525    527    552    551   5     0.00000   -20.92000     0.00000  0.0
    524    528    529    521   5     0.00000    30.33400     0.00000  0.0
    524    528    529    547   5     0.00000    30.33400     0.00000  0.0
    546    528    529    521   5     0.00000    30.33400     0.00000  0.0
    546    528    529    547   5     0.00000    30.33400     0.00000  0.0
    555    548    549    550   5     4.74884    -0.63178     1.67360  0.0
    555    548    549    571   5     0.00000     0.00000     1.25520  0.0
    555    548    549    572   5     0.00000     0.00000     1.25520  0.0
    569    548    549    550   5     0.00000     0.00000     1.25520  0.0
    569    548    549    571   5     0.00000     0.00000     1.25520  0.0
    569    548    549    572   5     0.00000     0.00000     1.25520  0.0
    570    548    549    550   5     0.00000     0.00000     1.25520  0.0
    570    548    549    571   5     0.00000     0.00000     1.25520  0.0
    570    548    549    572   5     0.00000     0.00000     1.25520  0.0
    549    548    555    554   5     4.74884    -0.63178     1.67360  0.0
    549    548    555    556   5     4.74884    -0.63178     1.67360  0.0
    549    548    555    580   5     0.00000     0.00000     1.25520  0.0
    569    548    555    554   5     0.00000     0.00000     1.25520  0.0
    569    548    555    556   5     0.00000     0.00000     1.25520  0.0
    569    548    555    580   5     0.00000     0.00000     1.25520  0.0
    570    548    555    554   5     0.00000     0.00000     1.25520  0.0
    570    548    555    556   5     0.00000     0.00000     1.25520  0.0
    570    548    555    580   5     0.00000     0.00000     1.25520  0.0
    548    549    550    551   5     4.74884    -0.63178     1.67360  0.0
    548    549    550    553   5     4.74884    -0.63178     1.67360  0.0
    548    549    550    573   5     0.00000     0.00000     1.25520  0.0
    571    549    550    551   5     0.00000     0.00000     1.25520  0.0
    571    549    550    553   5     0.00000     0.00000     1.25520  0.0
    571    549    550    573   5     0.00000     0.00000     1.25520  0.0
    572    549    550    551   5     0.00000     0.00000     1.25520  0.0
    572    549    550    553   5     0.00000     0.00000     1.25520  0.0
    572    549    550    573   5     0.00000     0.00000     1.25520  0.0
    549    550    551    552   5     5.25092    -2.58990     2.28446  0.0
    549    550    551    574   5     0.00000     0.00000     1.25520  0.0
    549    550    551    575   5     0.00000     0.00000     1.25520  0.0
    553    550    551    552   5     5.25092    -2.58990     2.28446  0.0
    553    550    551    574   5     0.00000     0.00000     1.25520  0.0
    553    550    551    575   5     0.00000     0.00000     1.25520  0.0
    573    550    551    552   5     0.00000     0.00000     1.95811  0.0
    573    550    551    574   5     0.00000     0.00000     1.25520  0.0
    573    550    551    575   5     0.00000     0.00000     1.25520  0.0
    549    550    553    554   5     4.74884    -0.63178     1.67360  0.0
    549    550    553    576   5     0.00000     0.00000     1.25520  0.0
    549    550    553    577   5     0.00000     0.00000     1.25520  0.0
    551    550    553    554   5     4.74884    -0.63178     1.67360  0.0
    551    550    553    576   5     0.00000     0.00000     1.25520  0.0
    551    550    553    577   5     0.00000     0.00000     1.25520  0.0
    573    550    553    554   5     0.00000     0.00000     1.25520  0.0
    573    550    553    576   5     0.00000     0.00000     1.25520  0.0
    573    550    553    577   5     0.00000     0.00000     1.25520  0.0
    550    551    552    527   5     0.00000     0.00000     3.13800  0.0
    574    551    552    527   5     0.00000     0.00000     3.13800  0.0
    575    551    552    527   5     0.00000     0.00000     3.13800  0.0
    550    553    554    555   5     4.74884    -0.63178     1.67360  0.0
    550    553    554    578   5     0.00000     0.00000     1.25520  0.0
    550    553    554    579   5     0.00000     0.00000     1.25520  0.0
    576    553    554    555   5     0.00000     0.00000     1.25520  0.0
    576    553    554    578   5     0.00000     0.00000     1.25520  0.0
    576    553    554    579   5     0.00000     0.00000     1.25520  0.0
    577    553    554    555   5     0.00000     0.00000     1.25520  0.0
    577    553    554    578   5     0.00000     0.00000     1.25520  0.0
    577    553    554    579   5     0.00000     0.00000     1.25520  0.0
    553    554    555    548   5     4.74884    -0.63178     1.67360  0.0
    553    554    555    556   5     4.74884    -0.63178     1.67360  0.0
    553    554    555    580   5     0.00000     0.00000     1.25520  0.0
    578    554    555    548   5     0.00000     0.00000     1.25520  0.0
    578    554    555    556   5     0.00000     0.00000     1.25520  0.0
    578    554    555    580   5     0.00000     0.00000     1.25520  0.0
    579    554    555    548   5     0.00000     0.00000     1.25520  0.0
    579    554    555    556   5     0.00000     0.00000     1.25520  0.0
    579    554    555    580   5     0.00000     0.00000     1.25520  0.0
    548    555    556    557   5     5.25092    -2.58990     2.28446  0.0
    548    555    556    581   5     0.00000     0.00000     1.25520  0.0
    548    555    556    582   5     0.00000     0.00000     1.25520  0.0
    554    555    556    557   5     5.25092    -2.58990     2.28446  0.0
    554    555    556    581   5     0.00000     0.00000     1.25520  0.0
    554    555    556    582   5     0.00000     0.00000     1.25520  0.0
    580    555    556    557   5     0.00000     0.00000     1.95811  0.0
    580    555    556    581   5     0.00000     0.00000     1.25520  0.0
    580    555    556    582   5     0.00000     0.00000     1.25520  0.0
    555    556    557    558   5    -2.16731    -3.93296     0.98324  0.0
    581    556    557    558   5     0.00000     0.00000     0.67362  0.0
    582    556    557    558   5     0.00000     0.00000     0.67362  0.0
    556    557    558    559   5     0.00000    25.10400     0.00000  0.0
    556    557    558    560   5     5.01662    27.18345     0.00000  0.0
    557    558    560    561   5     0.00000     8.26340     0.00000  0.0
    557    558    560    568   5     0.00000     8.26340     0.00000  0.0
    559    558    560    561   5     0.00000     8.78640     0.00000  0.0
    559    558    560    568   5     0.00000     8.78640     0.00000  0.0
    558    560    561    562   5     0.00000    30.33400     0.00000  0.0
    558    560    561    583   5     0.00000    30.33400     0.00000  0.0
    568    560    561    562   5     0.00000    30.33400     0.00000  0.0
    568    560    561    583   5     0.00000    30.33400     0.00000  0.0
    558    560    568    567   5     0.00000    30.33400     0.00000  0.0
    558    560    568    586   5     0.00000    30.33400     0.00000  0.0
    561    560    568    567   5     0.00000    30.33400     0.00000  0.0
    561    560    568    586   5     0.00000    30.33400     0.00000  0.0
    560    561    562    563   5     0.00000    30.33400     0.00000  0.0
    560    561    562    584   5     0.00000    30.33400     0.00000  0.0
    583    561    562    563   5     0.00000    30.33400     0.00000  0.0
    583    561    562    584   5     0.00000    30.33400     0.00000  0.0
    561    562    563    564   5     0.00000    30.33400     0.00000  0.0
    561    562    563    567   5     0.00000    30.33400     0.00000  0.0
    584    562    563    564   5     0.00000    30.33400     0.00000  0.0
    584    562    563    567   5     0.00000    30.33400     0.00000  0.0
    562    563    564    565   5     0.00000     8.78640     0.00000  0.0
    562    563    564    566   5     0.00000     8.26340     0.00000  0.0
    567    563    564    565   5     0.00000     8.78640     0.00000  0.0
    567    563    564    566   5     0.00000     8.26340     0.00000  0.0
    562    563    567    568   5     0.00000    30.33400     0.00000  0.0
    562    563    567    585   5     0.00000    30.33400     0.00000  0.0
    564    563    567    568   5     0.00000    30.33400     0.00000  0.0
    564    563    567    585   5     0.00000    30.33400     0.00000  0.0
    563    564    566    591   5     0.00000    16.73600     0.00000  0.0
    565    564    566    591   5     0.00000    25.10400     0.00000  0.0
    564    566    591    590   5     0.00000   -20.92000     0.00000  0.0
    563    567    568    560   5     0.00000    30.33400     0.00000  0.0
    563    567    568    586   5     0.00000    30.33400     0.00000  0.0
    585    567    568    560   5     0.00000    30.33400     0.00000  0.0
    585    567    568    586   5     0.00000    30.33400     0.00000  0.0
    594    587    588    589   5     4.74884    -0.63178     1.67360  0.0
    594    587    588    610   5     0.00000     0.00000     1.25520  0.0
    594    587    588    611   5     0.00000     0.00000     1.25520  0.0
    608    587    588    589   5     0.00000     0.00000     1.25520  0.0
    608    587    588    610   5     0.00000     0.00000     1.25520  0.0
    608    587    588    611   5     0.00000     0.00000     1.25520  0.0
    609    587    588    589   5     0.00000     0.00000     1.25520  0.0
    609    587    588    610   5     0.00000     0.00000     1.25520  0.0
    609    587    588    611   5     0.00000     0.00000     1.25520  0.0
    588    587    594    593   5     4.74884    -0.63178     1.67360  0.0
    588    587    594    595   5     4.74884    -0.63178     1.67360  0.0
    588    587    594    619   5     0.00000     0.00000     1.25520  0.0
    608    587    594    593   5     0.00000     0.00000     1.25520  0.0
    608    587    594    595   5     0.00000     0.00000     1.25520  0.0
    608    587    594    619   5     0.00000     0.00000     1.25520  0.0
    609    587    594    593   5     0.00000     0.00000     1.25520  0.0
    609    587    594    595   5     0.00000     0.00000     1.25520  0.0
    609    587    594    619   5     0.00000     0.00000     1.25520  0.0
    587    588    589    590   5     4.74884    -0.63178     1.67360  0.0
    587    588    589    592   5     4.74884    -0.63178     1.67360  0.0
    587    588    589    612   5     0.00000     0.00000     1.25520  0.0
    610    588    589    590   5     0.00000     0.00000     1.25520  0.0
    610    588    589    592   5     0.00000     0.00000     1.25520  0.0
    610    588    589    612   5     0.00000     0.00000     1.25520  0.0
    611    588    589    590   5     0.00000     0.00000     1.25520  0.0
    611    588    589    592   5     0.00000     0.00000     1.25520  0.0
    611    588    589    612   5     0.00000     0.00000     1.25520  0.0
    588    589    590    591   5     5.25092    -2.58990     2.28446  0.0
    588    589    590    613   5     0.00000     0.00000     1.25520  0.0
    588    589    590    614   5     0.00000     0.00000     1.25520  0.0
    592    589    590    591   5     5.25092    -2.58990     2.28446  0.0
    592    589    590    613   5     0.00000     0.00000     1.25520  0.0
    592    589    590    614   5     0.00000     0.00000     1.25520  0.0
    612    589    590    591   5     0.00000     0.00000     1.95811  0.0
    612    589    590    613   5     0.00000     0.00000     1.25520  0.0
    612    589    590    614   5     0.00000     0.00000     1.25520  0.0
    588    589    592    593   5     4.74884    -0.63178     1.67360  0.0
    588    589    592    615   5     0.00000     0.00000     1.25520  0.0
    588    589    592    616   5     0.00000     0.00000     1.25520  0.0
    590    589    592    593   5     4.74884    -0.63178     1.67360  0.0
    590    589    592    615   5     0.00000     0.00000     1.25520  0.0
    590    589    592    616   5     0.00000     0.00000     1.25520  0.0
    612    589    592    593   5     0.00000     0.00000     1.25520  0.0
    612    589    592    615   5     0.00000     0.00000     1.25520  0.0
    612    589    592    616   5     0.00000     0.00000     1.25520  0.0
    589    590    591    566   5     0.00000     0.00000     3.13800  0.0
    613    590    591    566   5     0.00000     0.00000     3.13800  0.0
    614    590    591    566   5     0.00000     0.00000     3.13800  0.0
    589    592    593    594   5     4.74884    -0.63178     1.67360  0.0
    589    592    593    617   5     0.00000     0.00000     1.25520  0.0
    589    592    593    618   5     0.00000     0.00000     1.25520  0.0
    615    592    593    594   5     0.00000     0.00000     1.25520  0.0
    615    592    593    617   5     0.00000     0.00000     1.25520  0.0
    615    592    593    618   5     0.00000     0.00000     1.25520  0.0
    616    592    593    594   5     0.00000     0.00000     1.25520  0.0
    616    592    593    617   5     0.00000     0.00000     1.25520  0.0
    616    592    593    618   5     0.00000     0.00000     1.25520  0.0
    592    593    594    587   5     4.74884    -0.63178     1.67360  0.0
    592    593    594    595   5     4.74884    -0.63178     1.67360  0.0
    592    593    594    619   5     0.00000     0.00000     1.25520  0.0
    617    593    594    587   5     0.00000     0.00000     1.25520  0.0
    617    593    594    595   5     0.00000     0.00000     1.25520  0.0
    617    593    594    619   5     0.00000     0.00000     1.25520  0.0
    618    593    594    587   5     0.00000     0.00000     1.25520  0.0
    618    593    594    595   5     0.00000     0.00000     1.25520  0.0
    618    593    594    619   5     0.00000     0.00000     1.25520  0.0
    587    594    595    596   5     5.25092    -2.58990     2.28446  0.0
    587    594    595    620   5     0.00000     0.00000     1.25520  0.0
    587    594    595    621   5     0.00000     0.00000     1.25520  0.0
    593    594    595    596   5     5.25092    -2.58990     2.28446  0.0
    593    594    595    620   5     0.00000     0.00000     1.25520  0.0
    593    594    595    621   5     0.00000     0.00000     1.25520  0.0
    619    594    595    596   5     0.00000     0.00000     1.95811  0.0
    619    594    595    620   5     0.00000     0.00000     1.25520  0.0
    619    594    595    621   5     0.00000     0.00000     1.25520  0.0
    594    595    596    597   5    -2.16731    -3.93296     0.98324  0.0
    620    595    596    597   5     0.00000     0.00000     0.67362  0.0
    621    595    596    597   5     0.00000     0.00000     0.67362  0.0
    595    596    597    598   5     0.00000    25.10400     0.00000  0.0
    595    596    597    599   5     5.01662    27.18345     0.00000  0.0
    596    597    599    600   5     0.00000     8.26340     0.00000  0.0
    596    597    599    607   5     0.00000     8.26340     0.00000  0.0
    598    597    599    600   5     0.00000     8.78640     0.00000  0.0
    598    597    599    607   5     0.00000     8.78640     0.00000  0.0
    597    599    600    601   5     0.00000    30.33400     0.00000  0.0
    597    599    600    622   5     0.00000    30.33400     0.00000  0.0
    607    599    600    601   5     0.00000    30.33400     0.00000  0.0
    607    599    600    622   5     0.00000    30.33400     0.00000  0.0
    597    599    607    606   5     0.00000    30.33400     0.00000  0.0
    597    599    607    625   5     0.00000    30.33400     0.00000  0.0
    600    599    607    606   5     0.00000    30.33400     0.00000  0.0
    600    599    607    625   5     0.00000    30.33400     0.00000  0.0
    599    600    601    602   5     0.00000    30.33400     0.00000  0.0
    599    600    601    623   5     0.00000    30.33400     0.00000  0.0
    622    600    601    602   5     0.00000    30.33400     0.00000  0.0
    622    600    601    623   5     0.00000    30.33400     0.00000  0.0
    600    601    602    603   5     0.00000    30.33400     0.00000  0.0
    600    601    602    606   5     0.00000    30.33400     0.00000  0.0
    623    601    602    603   5     0.00000    30.33400     0.00000  0.0
    623    601    602    606   5     0.00000    30.33400     0.00000  0.0
    601    602    603    604   5     0.00000     8.78640     0.00000  0.0
    601    602    603    605   5     0.00000     8.26340     0.00000  0.0
    606    602    603    604   5     0.00000     8.78640     0.00000  0.0
    606    602    603    605   5     0.00000     8.26340     0.00000  0.0
    601    602    606    607   5     0.00000    30.33400     0.00000  0.0
    601    602    606    624   5     0.00000    30.33400     0.00000  0.0
    603    602    606    607   5     0.00000    30.33400     0.00000  0.0
    603    602    606    624   5     0.00000    30.33400     0.00000  0.0
    602    603    605    630   5     0.00000    16.73600     0.00000  0.0
    604    603    605    630   5     0.00000    25.10400     0.00000  0.0
    603    605    630    629   5     0.00000   -20.92000     0.00000  0.0
    602    606    607    599   5     0.00000    30.33400     0.00000  0.0
    602    606    607    625   5     0.00000    30.33400     0.00000  0.0
    624    606    607    599   5     0.00000    30.33400     0.00000  0.0
    624    606    607    625   5     0.00000    30.33400     0.00000  0.0
    633    626    627    628   5     4.74884    -0.63178     1.67360  0.0
    633    626    627    649   5     0.00000     0.00000     1.25520  0.0
    633    626    627    650   5     0.00000     0.00000     1.25520  0.0
    647    626    627    628   5     0.00000     0.00000     1.25520  0.0
    647    626    627    649   5     0.00000     0.00000     1.25520  0.0
    647    626    627    650   5     0.00000     0.00000     1.25520  0.0
    648    626    627    628   5     0.00000     0.00000     1.25520  0.0
    648    626    627    649   5     0.00000     0.00000     1.25520  0.0
    648    626    627    650   5     0.00000     0.00000     1.25520  0.0
    627    626    633    632   5     4.74884    -0.63178     1.67360  0.0
    627    626    633    634   5     4.74884    -0.63178     1.67360  0.0
    627    626    633    658   5     0.00000     0.00000     1.25520  0.0
    647    626    633    632   5     0.00000     0.00000     1.25520  0.0
    647    626    633    634   5     0.00000     0.00000     1.25520  0.0
    647    626    633    658   5     0.00000     0.00000     1.25520  0.0
    648    626    633    632   5     0.00000     0.00000     1.25520  0.0
    648    626    633    634   5     0.00000     0.00000     1.25520  0.0
    648    626    633    658   5     0.00000     0.00000     1.25520  0.0
    626    627    628    629   5     4.74884    -0.63178     1.67360  0.0
    626    627    628    631   5     4.74884    -0.63178     1.67360  0.0
    626    627    628    651   5     0.00000     0.00000     1.25520  0.0
    649    627    628    629   5     0.00000     0.00000     1.25520  0.0
    649    627    628    631   5     0.00000     0.00000     1.25520  0.0
    649    627    628    651   5     0.00000     0.00000     1.25520  0.0
    650    627    628    629   5     0.00000     0.00000     1.25520  0.0
    650    627    628    631   5     0.00000     0.00000     1.25520  0.0
    650    627    628    651   5     0.00000     0.00000     1.25520  0.0
    627    628    629    630   5     5.25092    -2.58990     2.28446  0.0
    627    628    629    652   5     0.00000     0.00000     1.25520  0.0
    627    628    629    653   5     0.00000     0.00000     1.25520  0.0
    631    628    629    630   5     5.25092    -2.58990     2.28446  0.0
    631    628    629    652   5     0.00000     0.00000     1.25520  0.0
    631    628    629    653   5     0.00000     0.00000     1.25520  0.0
    651    628    629    630   5     0.00000     0.00000     1.95811  0.0
    651    628    629    652   5     0.00000     0.00000     1.25520  0.0
    651    628    629    653   5     0.00000     0.00000     1.25520  0.0
    627    628    631    632   5     4.74884    -0.63178     1.67360  0.0
    627    628    631    654   5     0.00000     0.00000     1.25520  0.0
    627    628    631    655   5     0.00000     0.00000     1.25520  0.0
    629    628    631    632   5     4.74884    -0.63178     1.67360  0.0
    629    628    631    654   5     0.00000     0.00000     1.25520  0.0
    629    628    631    655   5     0.00000     0.00000     1.25520  0.0
    651    628    631    632   5     0.00000     0.00000     1.25520  0.0
    651    628    631    654   5     0.00000     0.00000     1.25520  0.0
    651    628    631    655   5     0.00000     0.00000     1.25520  0.0
    628    629    630    605   5     0.00000     0.00000     3.13800  0.0
    652    629    630    605   5     0.00000     0.00000     3.13800  0.0
    653    629    630    605   5     0.00000     0.00000     3.13800  0.0
    628    631    632    633   5     4.74884    -0.63178     1.67360  0.0
    628    631    632    656   5     0.00000     0.00000     1.25520  0.0
    628    631    632    657   5     0.00000     0.00000     1.25520  0.0
    654    631    632    633   5     0.00000     0.00000     1.25520  0.0
    654    631    632    656   5     0.00000     0.00000     1.25520  0.0
    654    631    632    657   5     0.00000     0.00000     1.25520  0.0
    655    631    632    633   5     0.00000     0.00000     1.25520  0.0
    655    631    632    656   5     0.00000     0.00000     1.25520  0.0
    655    631    632    657   5     0.00000     0.00000     1.25520  0.0
    631    632    633    626   5     4.74884    -0.63178     1.67360  0.0
    631    632    633    634   5     4.74884    -0.63178     1.67360  0.0
    631    632    633    658   5     0.00000     0.00000     1.25520  0.0
    656    632    633    626   5     0.00000     0.00000     1.25520  0.0
    656    632    633    634   5     0.00000     0.00000     1.25520  0.0
    656    632    633    658   5     0.00000     0.00000     1.25520  0.0
    657    632    633    626   5     0.00000     0.00000     1.25520  0.0
    657    632    633    634   5     0.00000     0.00000     1.25520  0.0
    657    632    633    658   5     0.00000     0.00000     1.25520  0.0
    626    633    634    635   5     5.25092    -2.58990     2.28446  0.0
    626    633    634    659   5     0.00000     0.00000     1.25520  0.0
    626    633    634    660   5     0.00000     0.00000     1.25520  0.0
    632    633    634    635   5     5.25092    -2.58990     2.28446  0.0
    632    633    634    659   5     0.00000     0.00000     1.25520  0.0
    632    633    634    660   5     0.00000     0.00000     1.25520  0.0
    658    633    634    635   5     0.00000     0.00000     1.95811  0.0
    658    633    634    659   5     0.00000     0.00000     1.25520  0.0
    658    633    634    660   5     0.00000     0.00000     1.25520  0.0
    633    634    635    636   5    -2.16731    -3.93296     0.98324  0.0
    659    634    635    636   5     0.00000     0.00000     0.67362  0.0
    660    634    635    636   5     0.00000     0.00000     0.67362  0.0
    634    635    636    637   5     0.00000    25.10400     0.00000  0.0
    634    635    636    638   5     5.01662    27.18345     0.00000  0.0
    635    636    638    639   5     0.00000     8.26340     0.00000  0.0
    635    636    638    646   5     0.00000     8.26340     0.00000  0.0
    637    636    638    639   5     0.00000     8.78640     0.00000  0.0
    637    636    638    646   5     0.00000     8.78640     0.00000  0.0
    636    638    639    640   5     0.00000    30.33400     0.00000  0.0
    636    638    639    661   5     0.00000    30.33400     0.00000  0.0
    646    638    639    640   5     0.00000    30.33400     0.00000  0.0
    646    638    639    661   5     0.00000    30.33400     0.00000  0.0
    636    638    646    645   5     0.00000    30.33400     0.00000  0.0
    636    638    646    664   5     0.00000    30.33400     0.00000  0.0
    639    638    646    645   5     0.00000    30.33400     0.00000  0.0
    639    638    646    664   5     0.00000    30.33400     0.00000  0.0
    638    639    640    641   5     0.00000    30.33400     0.00000  0.0
    638    639    640    662   5     0.00000    30.33400     0.00000  0.0
    661    639    640    641   5     0.00000    30.33400     0.00000  0.0
    661    639    640    662   5     0.00000    30.33400     0.00000  0.0
    639    640    641    642   5     0.00000    30.33400     0.00000  0.0
    639    640    641    645   5     0.00000    30.33400     0.00000  0.0
    662    640    641    642   5     0.00000    30.33400     0.00000  0.0
    662    640    641    645   5     0.00000    30.33400     0.00000  0.0
    640    641    642    643   5     0.00000     8.78640     0.00000  0.0
    640    641    642    644   5     0.00000     8.26340     0.00000  0.0
    645    641    642    643   5     0.00000     8.78640     0.00000  0.0
    645    641    642    644   5     0.00000     8.26340     0.00000  0.0
    640    641    645    646   5     0.00000    30.33400     0.00000  0.0
    640    641    645    663   5     0.00000    30.33400     0.00000  0.0
    642    641    645    646   5     0.00000    30.33400     0.00000  0.0
    642    641    645    663   5     0.00000    30.33400     0.00000  0.0
    641    642    644    669   5     0.00000    16.73600     0.00000  0.0
    643    642    644    669   5     0.00000    25.10400     0.00000  0.0
    642    644    669    668   5     0.00000   -20.92000     0.00000  0.0
    641    645    646    638   5     0.00000    30.33400     0.00000  0.0
    641    645    646    664   5     0.00000    30.33400     0.00000  0.0
    663    645    646    638   5     0.00000    30.33400     0.00000  0.0
    663    645    646    664   5     0.00000    30.33400     0.00000  0.0
    672    665    666    667   5     4.74884    -0.63178     1.67360  0.0
    672    665    666    688   5     0.00000     0.00000     1.25520  0.0
    672    665    666    689   5     0.00000     0.00000     1.25520  0.0
    686    665    666    667   5     0.00000     0.00000     1.25520  0.0
    686    665    666    688   5     0.00000     0.00000     1.25520  0.0
    686    665    666    689   5     0.00000     0.00000     1.25520  0.0
    687    665    666    667   5     0.00000     0.00000     1.25520  0.0
    687    665    666    688   5     0.00000     0.00000     1.25520  0.0
    687    665    666    689   5     0.00000     0.00000     1.25520  0.0
    666    665    672    671   5     4.74884    -0.63178     1.67360  0.0
    666    665    672    673   5     4.74884    -0.63178     1.67360  0.0
    666    665    672    697   5     0.00000     0.00000     1.25520  0.0
    686    665    672    671   5     0.00000     0.00000     1.25520  0.0
    686    665    672    673   5     0.00000     0.00000     1.25520  0.0
    686    665    672    697   5     0.00000     0.00000     1.25520  0.0
    687    665    672    671   5     0.00000     0.00000     1.25520  0.0
    687    665    672    673   5     0.00000     0.00000     1.25520  0.0
    687    665    672    697   5     0.00000     0.00000     1.25520  0.0
    665    666    667    668   5     4.74884    -0.63178     1.67360  0.0
    665    666    667    670   5     4.74884    -0.63178     1.67360  0.0
    665    666    667    690   5     0.00000     0.00000     1.25520  0.0
    688    666    667    668   5     0.00000     0.00000     1.25520  0.0
    688    666    667    670   5     0.00000     0.00000     1.25520  0.0
    688    666    667    690   5     0.00000     0.00000     1.25520  0.0
    689    666    667    668   5     0.00000     0.00000     1.25520  0.0
    689    666    667    670   5     0.00000     0.00000     1.25520  0.0
    689    666    667    690   5     0.00000     0.00000     1.25520  0.0
    666    667    668    669   5     5.25092    -2.58990     2.28446  0.0
    666    667    668    691   5     0.00000     0.00000     1.25520  0.0
    666    667    668    692   5     0.00000     0.00000     1.25520  0.0
    670    667    668    669   5     5.25092    -2.58990     2.28446  0.0
    670    667    668    691   5     0.00000     0.00000     1.25520  0.0
    670    667    668    692   5     0.00000     0.00000     1.25520  0.0
    690    667    668    669   5     0.00000     0.00000     1.95811  0.0
    690    667    668    691   5     0.00000     0.00000     1.25520  0.0
    690    667    668    692   5     0.00000     0.00000     1.25520  0.0
    666    667    670    671   5     4.74884    -0.63178     1.67360  0.0
    666    667    670    693   5     0.00000     0.00000     1.25520  0.0
    666    667    670    694   5     0.00000     0.00000     1.25520  0.0
    668    667    670    671   5     4.74884    -0.63178     1.67360  0.0
    668    667    670    693   5     0.00000     0.00000     1.25520  0.0
    668    667    670    694   5     0.00000     0.00000     1.25520  0.0
    690    667    670    671   5     0.00000     0.00000     1.25520  0.0
    690    667    670    693   5     0.00000     0.00000     1.25520  0.0
    690    667    670    694   5     0.00000     0.00000     1.25520  0.0
    667    668    669    644   5     0.00000     0.00000     3.13800  0.0
    691    668    669    644   5     0.00000     0.00000     3.13800  0.0
    692    668    669    644   5     0.00000     0.00000     3.13800  0.0
    667    670    671    672   5     4.74884    -0.63178     1.67360  0.0
    667    670    671    695   5     0.00000     0.00000     1.25520  0.0
    667    670    671    696   5     0.00000     0.00000     1.25520  0.0
    693    670    671    672   5     0.00000     0.00000     1.25520  0.0
    693    670    671    695   5     0.00000     0.00000     1.25520  0.0
    693    670    671    696   5     0.00000     0.00000     1.25520  0.0
    694    670    671    672   5     0.00000     0.00000     1.25520  0.0
    694    670    671    695   5     0.00000     0.00000     1.25520  0.0
    694    670    671    696   5     0.00000     0.00000     1.25520  0.0
    670    671    672    665   5     4.74884    -0.63178     1.67360  0.0
    670    671    672    673   5     4.74884    -0.63178     1.67360  0.0
    670    671    672    697   5     0.00000     0.00000     1.25520  0.0
    695    671    672    665   5     0.00000     0.00000     1.25520  0.0
    695    671    672    673   5     0.00000     0.00000     1.25520  0.0
    695    671    672    697   5     0.00000     0.00000     1.25520  0.0
    696    671    672    665   5     0.00000     0.00000     1.25520  0.0
    696    671    672    673   5     0.00000     0.00000     1.25520  0.0
    696    671    672    697   5     0.00000     0.00000     1.25520  0.0
    665    672    673    674   5     5.25092    -2.58990     2.28446  0.0
    665    672    673    698   5     0.00000     0.00000     1.25520  0.0
    665    672    673    699   5     0.00000     0.00000     1.25520  0.0
    671    672    673    674   5     5.25092    -2.58990     2.28446  0.0
    671    672    673    698   5     0.00000     0.00000     1.25520  0.0
    671    672    673    699   5     0.00000     0.00000     1.25520  0.0
    697    672    673    674   5     0.00000     0.00000     1.95811  0.0
    697    672    673    698   5     0.00000     0.00000     1.25520  0.0
    697    672    673    699   5     0.00000     0.00000     1.25520  0.0
    672    673    674    675   5    -2.16731    -3.93296     0.98324  0.0
    698    673    674    675   5     0.00000     0.00000     0.67362  0.0
    699    673    674    675   5     0.00000     0.00000     0.67362  0.0
    673    674    675    676   5     0.00000    25.10400     0.00000  0.0
    673    674    675    677   5     5.01662    27.18345     0.00000  0.0
    674    675    677    678   5     0.00000     8.26340     0.00000  0.0
    674    675    677    685   5     0.00000     8.26340     0.00000  0.0
    676    675    677    678   5     0.00000     8.78640     0.00000  0.0
    676    675    677    685   5     0.00000     8.78640     0.00000  0.0
    675    677    678    679   5     0.00000    30.33400     0.00000  0.0
    675    677    678    700   5     0.00000    30.33400     0.00000  0.0
    685    677    678    679   5     0.00000    30.33400     0.00000  0.0
    685    677    678    700   5     0.00000    30.33400     0.00000  0.0
    675    677    685    684   5     0.00000    30.33400     0.00000  0.0
    675    677    685    703   5     0.00000    30.33400     0.00000  0.0
    678    677    685    684   5     0.00000    30.33400     0.00000  0.0
    678    677    685    703   5     0.00000    30.33400     0.00000  0.0
    677    678    679    680   5     0.00000    30.33400     0.00000  0.0
    677    678    679    701   5     0.00000    30.33400     0.00000  0.0
    700    678    679    680   5     0.00000    30.33400     0.00000  0.0
    700    678    679    701   5     0.00000    30.33400     0.00000  0.0
    678    679    680    681   5     0.00000    30.33400     0.00000  0.0
    678    679    680    684   5     0.00000    30.33400     0.00000  0.0
    701    679    680    681   5     0.00000    30.33400     0.00000  0.0
    701    679    680    684   5     0.00000    30.33400     0.00000  0.0
    679    680    681    682   5     0.00000     8.78640     0.00000  0.0
    679    680    681    683   5     0.00000     8.26340     0.00000  0.0
    684    680    681    682   5     0.00000     8.78640     0.00000  0.0
    684    680    681    683   5     0.00000     8.26340     0.00000  0.0
    679    680    684    685   5     0.00000    30.33400     0.00000  0.0
    679    680    684    702   5     0.00000    30.33400     0.00000  0.0
    681    680    684    685   5     0.00000    30.33400     0.00000  0.0
    681    680    684    702   5     0.00000    30.33400     0.00000  0.0
    680    681    683    708   5     0.00000    16.73600     0.00000  0.0
    682    681    683    708   5     0.00000    25.10400     0.00000  0.0
    681    683    708    707   5     0.00000   -20.92000     0.00000  0.0
    680    684    685    677   5     0.00000    30.33400     0.00000  0.0
    680    684    685    703   5     0.00000    30.33400     0.00000  0.0
    702    684    685    677   5     0.00000    30.33400     0.00000  0.0
    702    684    685    703   5     0.00000    30.33400     0.00000  0.0
    711    704    705    706   5     4.74884    -0.63178     1.67360  0.0
    711    704    705    727   5     0.00000     0.00000     1.25520  0.0
    711    704    705    728   5     0.00000     0.00000     1.25520  0.0
    725    704    705    706   5     0.00000     0.00000     1.25520  0.0
    725    704    705    727   5     0.00000     0.00000     1.25520  0.0
    725    704    705    728   5     0.00000     0.00000     1.25520  0.0
    726    704    705    706   5     0.00000     0.00000     1.25520  0.0
    726    704    705    727   5     0.00000     0.00000     1.25520  0.0
    726    704    705    728   5     0.00000     0.00000     1.25520  0.0
    705    704    711    710   5     4.74884    -0.63178     1.67360  0.0
    705    704    711    712   5     4.74884    -0.63178     1.67360  0.0
    705    704    711    736   5     0.00000     0.00000     1.25520  0.0
    725    704    711    710   5     0.00000     0.00000     1.25520  0.0
    725    704    711    712   5     0.00000     0.00000     1.25520  0.0
    725    704    711    736   5     0.00000     0.00000     1.25520  0.0
    726    704    711    710   5     0.00000     0.00000     1.25520  0.0
    726    704    711    712   5     0.00000     0.00000     1.25520  0.0
    726    704    711    736   5     0.00000     0.00000     1.25520  0.0
    704    705    706    707   5     4.74884    -0.63178     1.67360  0.0
    704    705    706    709   5     4.74884    -0.63178     1.67360  0.0
    704    705    706    729   5     0.00000     0.00000     1.25520  0.0
    727    705    706    707   5     0.00000     0.00000     1.25520  0.0
    727    705    706    709   5     0.00000     0.00000     1.25520  0.0
    727    705    706    729   5     0.00000     0.00000     1.25520  0.0
    728    705    706    707   5     0.00000     0.00000     1.25520  0.0
    728    705    706    709   5     0.00000     0.00000     1.25520  0.0
    728    705    706    729   5     0.00000     0.00000     1.25520  0.0
    705    706    707    708   5     5.25092    -2.58990     2.28446  0.0
    705    706    707    730   5     0.00000     0.00000     1.25520  0.0
    705    706    707    731   5     0.00000     0.00000     1.25520  0.0
    709    706    707    708   5     5.25092    -2.58990     2.28446  0.0
    709    706    707    730   5     0.00000     0.00000     1.25520  0.0
    709    706    707    731   5     0.00000     0.00000     1.25520  0.0
    729    706    707    708   5     0.00000     0.00000     1.95811  0.0
    729    706    707    730   5     0.00000     0.00000     1.25520  0.0
    729    706    707    731   5     0.00000     0.00000     1.25520  0.0
    705    706    709    710   5     4.74884    -0.63178     1.67360  0.0
    705    706    709    732   5     0.00000     0.00000     1.25520  0.0
    705    706    709    733   5     0.00000     0.00000     1.25520  0.0
    707    706    709    710   5     4.74884    -0.63178     1.67360  0.0
    707    706    709    732   5     0.00000     0.00000     1.25520  0.0
    707    706    709    733   5     0.00000     0.00000     1.25520  0.0
    729    706    709    710   5     0.00000     0.00000     1.25520  0.0
    729    706    709    732   5     0.00000     0.00000     1.25520  0.0
    729    706    709    733   5     0.00000     0.00000     1.25520  0.0
    706    707    708    683   5     0.00000     0.00000     3.13800  0.0
    730    707    708    683   5     0.00000     0.00000     3.13800  0.0
    731    707    708    683   5     0.00000     0.00000     3.13800  0.0
    706    709    710    711   5     4.74884    -0.63178     1.67360  0.0
    706    709    710    734   5     0.00000     0.00000     1.25520  0.0
    706    709    710    735   5     0.00000     0.00000     1.25520  0.0
    732    709    710    711   5     0.00000     0.00000     1.25520  0.0
    732    709    710    734   5     0.00000     0.00000     1.25520  0.0
    732    709    710    735   5     0.00000     0.00000     1.25520  0.0
    733    709    710    711   5     0.00000     0.00000     1.25520  0.0
    733    709    710    734   5     0.00000     0.00000     1.25520  0.0
    733    709    710    735   5     0.00000     0.00000     1.25520  0.0
    709    710    711    704   5     4.74884    -0.63178     1.67360  0.0
    709    710    711    712   5     4.74884    -0.63178     1.67360  0.0
    709    710    711    736   5     0.00000     0.00000     1.25520  0.0
    734    710    711    704   5     0.00000     0.00000     1.25520  0.0
    734    710    711    712   5     0.00000     0.00000     1.25520  0.0
    734    710    711    736   5     0.00000     0.00000     1.25520  0.0
    735    710    711    704   5     0.00000     0.00000     1.25520  0.0
    735    710    711    712   5     0.00000     0.00000     1.25520  0.0
    735    710    711    736   5     0.00000     0.00000     1.25520  0.0
    704    711    712    713   5     5.25092    -2.58990     2.28446  0.0
    704    711    712    737   5     0.00000     0.00000     1.25520  0.0
    704    711    712    738   5     0.00000     0.00000     1.25520  0.0
    710    711    712    713   5     5.25092    -2.58990     2.28446  0.0
    710    711    712    737   5     0.00000     0.00000     1.25520  0.0
    710    711    712    738   5     0.00000     0.00000     1.25520  0.0
    736    711    712    713   5     0.00000     0.00000     1.95811  0.0
    736    711    712    737   5     0.00000     0.00000     1.25520  0.0
    736    711    712    738   5     0.00000     0.00000     1.25520  0.0
    711    712    713    714   5    -2.16731    -3.93296     0.98324  0.0
    737    712    713    714   5     0.00000     0.00000     0.67362  0.0
    738    712    713    714   5     0.00000     0.00000     0.67362  0.0
    712    713    714    715   5     0.00000    25.10400     0.00000  0.0
    712    713    714    716   5     5.01662    27.18345     0.00000  0.0
    713    714    716    717   5     0.00000     8.26340     0.00000  0.0
    713    714    716    724   5     0.00000     8.26340     0.00000  0.0
    715    714    716    717   5     0.00000     8.78640     0.00000  0.0
    715    714    716    724   5     0.00000     8.78640     0.00000  0.0
    714    716    717    718   5     0.00000    30.33400     0.00000  0.0
    714    716    717    739   5     0.00000    30.33400     0.00000  0.0
    724    716    717    718   5     0.00000    30.33400     0.00000  0.0
    724    716    717    739   5     0.00000    30.33400     0.00000  0.0
    714    716    724    723   5     0.00000    30.33400     0.00000  0.0
    714    716    724    742   5     0.00000    30.33400     0.00000  0.0
    717    716    724    723   5     0.00000    30.33400     0.00000  0.0
    717    716    724    742   5     0.00000    30.33400     0.00000  0.0
    716    717    718    719   5     0.00000    30.33400     0.00000  0.0
    716    717    718    740   5     0.00000    30.33400     0.00000  0.0
    739    717    718    719   5     0.00000    30.33400     0.00000  0.0
    739    717    718    740   5     0.00000    30.33400     0.00000  0.0
    717    718    719    720   5     0.00000    30.33400     0.00000  0.0
    717    718    719    723   5     0.00000    30.33400     0.00000  0.0
    740    718    719    720   5     0.00000    30.33400     0.00000  0.0
    740    718    719    723   5     0.00000    30.33400     0.00000  0.0
    718    719    720    721   5     0.00000     8.78640     0.00000  0.0
    718    719    720    722   5     0.00000     8.26340     0.00000  0.0
    723    719    720    721   5     0.00000     8.78640     0.00000  0.0
    723    719    720    722   5     0.00000     8.26340     0.00000  0.0
    718    719    723    724   5     0.00000    30.33400     0.00000  0.0
    718    719    723    741   5     0.00000    30.33400     0.00000  0.0
    720    719    723    724   5     0.00000    30.33400     0.00000  0.0
    720    719    723    741   5     0.00000    30.33400     0.00000  0.0
    719    720    722    747   5     0.00000    16.73600     0.00000  0.0
    721    720    722    747   5     0.00000    25.10400     0.00000  0.0
    720    722    747    746   5     0.00000   -20.92000     0.00000  0.0
    719    723    724    716   5     0.00000    30.33400     0.00000  0.0
    719    723    724    742   5     0.00000    30.33400     0.00000  0.0
    741    723    724    716   5     0.00000    30.33400     0.00000  0.0
    741    723    724    742   5     0.00000    30.33400     0.00000  0.0
    750    743    744    745   5     4.74884    -0.63178     1.67360  0.0
    750    743    744    766   5     0.00000     0.00000     1.25520  0.0
    750    743    744    767   5     0.00000     0.00000     1.25520  0.0
    764    743    744    745   5     0.00000     0.00000     1.25520  0.0
    764    743    744    766   5     0.00000     0.00000     1.25520  0.0
    764    743    744    767   5     0.00000     0.00000     1.25520  0.0
    765    743    744    745   5     0.00000     0.00000     1.25520  0.0
    765    743    744    766   5     0.00000     0.00000     1.25520  0.0
    765    743    744    767   5     0.00000     0.00000     1.25520  0.0
    744    743    750    749   5     4.74884    -0.63178     1.67360  0.0
    744    743    750    751   5     4.74884    -0.63178     1.67360  0.0
    744    743    750    775   5     0.00000     0.00000     1.25520  0.0
    764    743    750    749   5     0.00000     0.00000     1.25520  0.0
    764    743    750    751   5     0.00000     0.00000     1.25520  0.0
    764    743    750    775   5     0.00000     0.00000     1.25520  0.0
    765    743    750    749   5     0.00000     0.00000     1.25520  0.0
    765    743    750    751   5     0.00000     0.00000     1.25520  0.0
    765    743    750    775   5     0.00000     0.00000     1.25520  0.0
    743    744    745    746   5     4.74884    -0.63178     1.67360  0.0
    743    744    745    748   5     4.74884    -0.63178     1.67360  0.0
    743    744    745    768   5     0.00000     0.00000     1.25520  0.0
    766    744    745    746   5     0.00000     0.00000     1.25520  0.0
    766    744    745    748   5     0.00000     0.00000     1.25520  0.0
    766    744    745    768   5     0.00000     0.00000     1.25520  0.0
    767    744    745    746   5     0.00000     0.00000     1.25520  0.0
    767    744    745    748   5     0.00000     0.00000     1.25520  0.0
    767    744    745    768   5     0.00000     0.00000     1.25520  0.0
    744    745    746    747   5     5.25092    -2.58990     2.28446  0.0
    744    745    746    769   5     0.00000     0.00000     1.25520  0.0
    744    745    746    770   5     0.00000     0.00000     1.25520  0.0
    748    745    746    747   5     5.25092    -2.58990     2.28446  0.0
    748    745    746    769   5     0.00000     0.00000     1.25520  0.0
    748    745    746    770   5     0.00000     0.00000     1.25520  0.0
    768    745    746    747   5     0.00000     0.00000     1.95811  0.0
    768    745    746    769   5     0.00000     0.00000     1.25520  0.0
    768    745    746    770   5     0.00000     0.00000     1.25520  0.0
    744    745    748    749   5     4.74884    -0.63178     1.67360  0.0
    744    745    748    771   5     0.00000     0.00000     1.25520  0.0
    744    745    748    772   5     0.00000     0.00000     1.25520  0.0
    746    745    748    749   5     4.74884    -0.63178     1.67360  0.0
    746    745    748    771   5     0.00000     0.00000     1.25520  0.0
    746    745    748    772   5     0.00000     0.00000     1.25520  0.0
    768    745    748    749   5     0.00000     0.00000     1.25520  0.0
    768    745    748    771   5     0.00000     0.00000     1.25520  0.0
    768    745    748    772   5     0.00000     0.00000     1.25520  0.0
    745    746    747    722   5     0.00000     0.00000     3.13800  0.0
    769    746    747    722   5     0.00000     0.00000     3.13800  0.0
    770    746    747    722   5     0.00000     0.00000     3.13800  0.0
    745    748    749    750   5     4.74884    -0.63178     1.67360  0.0
    745    748    749    773   5     0.00000     0.00000     1.25520  0.0
    745    748    749    774   5     0.00000     0.00000     1.25520  0.0
    771    748    749    750   5     0.00000     0.00000     1.25520  0.0
    771    748    749    773   5     0.00000     0.00000     1.25520  0.0
    771    748    749    774   5     0.00000     0.00000     1.25520  0.0
    772    748    749    750   5     0.00000     0.00000     1.25520  0.0
    772    748    749    773   5     0.00000     0.00000     1.25520  0.0
    772    748    749    774   5     0.00000     0.00000     1.25520  0.0
    748    749    750    743   5     4.74884    -0.63178     1.67360  0.0
    748    749    750    751   5     4.74884    -0.63178     1.67360  0.0
    748    749    750    775   5     0.00000     0.00000     1.25520  0.0
    773    749    750    743   5     0.00000     0.00000     1.25520  0.0
    773    749    750    751   5     0.00000     0.00000     1.25520  0.0
    773    749    750    775   5     0.00000     0.00000     1.25520  0.0
    774    749    750    743   5     0.00000     0.00000     1.25520  0.0
    774    749    750    751   5     0.00000     0.00000     1.25520  0.0
    774    749    750    775   5     0.00000     0.00000     1.25520  0.0
    743    750    751    752   5     5.25092    -2.58990     2.28446  0.0
    743    750    751    776   5     0.00000     0.00000     1.25520  0.0
    743    750    751    777   5     0.00000     0.00000     1.25520  0.0
    749    750    751    752   5     5.25092    -2.58990     2.28446  0.0
    749    750    751    776   5     0.00000     0.00000     1.25520  0.0
    749    750    751    777   5     0.00000     0.00000     1.25520  0.0
    775    750    751    752   5     0.00000     0.00000     1.95811  0.0
    775    750    751    776   5     0.00000     0.00000     1.25520  0.0
    775    750    751    777   5     0.00000     0.00000     1.25520  0.0
    750    751    752    753   5    -2.16731    -3.93296     0.98324  0.0
    776    751    752    753   5     0.00000     0.00000     0.67362  0.0
    777    751    752    753   5     0.00000     0.00000     0.67362  0.0
    751    752    753    754   5     0.00000    25.10400     0.00000  0.0
    751    752    753    755   5     5.01662    27.18345     0.00000  0.0
    752    753    755    756   5     0.00000     8.26340     0.00000  0.0
    752    753    755    763   5     0.00000     8.26340     0.00000  0.0
    754    753    755    756   5     0.00000     8.78640     0.00000  0.0
    754    753    755    763   5     0.00000     8.78640     0.00000  0.0
    753    755    756    757   5     0.00000    30.33400     0.00000  0.0
    753    755    756    778   5     0.00000    30.33400     0.00000  0.0
    763    755    756    757   5     0.00000    30.33400     0.00000  0.0
    763    755    756    778   5     0.00000    30.33400     0.00000  0.0
    753    755    763    762   5     0.00000    30.33400     0.00000  0.0
    753    755    763    781   5     0.00000    30.33400     0.00000  0.0
    756    755    763    762   5     0.00000    30.33400     0.00000  0.0
    756    755    763    781   5     0.00000    30.33400     0.00000  0.0
    755    756    757    758   5     0.00000    30.33400     0.00000  0.0
    755    756    757    779   5     0.00000    30.33400     0.00000  0.0
    778    756    757    758   5     0.00000    30.33400     0.00000  0.0
    778    756    757    779   5     0.00000    30.33400     0.00000  0.0
    756    757    758    759   5     0.00000    30.33400     0.00000  0.0
    756    757    758    762   5     0.00000    30.33400     0.00000  0.0
    779    757    758    759   5     0.00000    30.33400     0.00000  0.0
    779    757    758    762   5     0.00000    30.33400     0.00000  0.0
    757    758    759    760   5     0.00000     8.78640     0.00000  0.0
    757    758    759    761   5     0.00000     3.01248     0.00000  0.0
    762    758    759    760   5     0.00000     8.78640     0.00000  0.0
    762    758    759    761   5     0.00000     3.01248     0.00000  0.0
    757    758    762    763   5     0.00000    30.33400     0.00000  0.0
    757    758    762    780   5     0.00000    30.33400     0.00000  0.0
    759    758    762    763   5     0.00000    30.33400     0.00000  0.0
    759    758    762    780   5     0.00000    30.33400     0.00000  0.0
    758    759    761    782   5    18.89076   -16.12514     0.00000  0.0
    760    759    761    782   5     7.71530    31.30469     0.00000  0.0
    758    762    763    755   5     0.00000    30.33400     0.00000  0.0
    758    762    763    781   5     0.00000    30.33400     0.00000  0.0
    780    762    763    755   5     0.00000    30.33400     0.00000  0.0
    780    762    763    781   5     0.00000    30.33400     0.00000  0.0

[ dihedrals ]
; Improper dihedrals
; h   i   j   k   funct
     10     12     11     13   5     0.00000    87.86400     0.00000  0.0
     11     14     13     21   5     0.00000    33.47200     0.00000  0.0
     13     15     14     36   5     0.00000     9.20480     0.00000  0.0
     14     16     15     37   5     0.00000     9.20480     0.00000  0.0
     15     17     16     20   5     0.00000    33.47200     0.00000  0.0
     16     18     17     19   5     0.00000    87.86400     0.00000  0.0
     16     21     20     38   5     0.00000     9.20480     0.00000  0.0
     13     20     21     39   5     0.00000     9.20480     0.00000  0.0
     50     52     51     53   5     0.00000    87.86400     0.00000  0.0
     51     54     53     61   5     0.00000    33.47200     0.00000  0.0
     53     55     54     76   5     0.00000     9.20480     0.00000  0.0
     54     56     55     77   5     0.00000     9.20480     0.00000  0.0
     55     57     56     60   5     0.00000    33.47200     0.00000  0.0
     56     58     57     59   5     0.00000    87.86400     0.00000  0.0
     56     61     60     78   5     0.00000     9.20480     0.00000  0.0
     53     60     61     79   5     0.00000     9.20480     0.00000  0.0
     89     91     90     92   5     0.00000    87.86400     0.00000  0.0
     90     93     92    100   5     0.00000    33.47200     0.00000  0.0
     92     94     93    115   5     0.00000     9.20480     0.00000  0.0
     93     95     94    116   5     0.00000     9.20480     0.00000  0.0
     94     96     95     99   5     0.00000    33.47200     0.00000  0.0
     95     97     96     98   5     0.00000    87.86400     0.00000  0.0
     95    100     99    117   5     0.00000     9.20480     0.00000  0.0
     92     99    100    118   5     0.00000     9.20480     0.00000  0.0
    128    130    129    131   5     0.00000    87.86400     0.00000  0.0
    129    132    131    139   5     0.00000    33.47200     0.00000  0.0
    131    133    132    154   5     0.00000     9.20480     0.00000  0.0
    132    134    133    155   5     0.00000     9.20480     0.00000  0.0
    133    135    134    138   5     0.00000    33.47200     0.00000  0.0
    134    136    135    137   5     0.00000    87.86400     0.00000  0.0
    134    139    138    156   5     0.00000     9.20480     0.00000  0.0
    131    138    139    157   5     0.00000     9.20480     0.00000  0.0
    167    169    168    170   5     0.00000    87.86400     0.00000  0.0
    168    171    170    178   5     0.00000    33.47200     0.00000  0.0
    170    172    171    193   5     0.00000     9.20480     0.00000  0.0
    171    173    172    194   5     0.00000     9.20480     0.00000  0.0
    172    174    173    177   5     0.00000    33.47200     0.00000  0.0
    173    175    174    176   5     0.00000    87.86400     0.00000  0.0
    173    178    177    195   5     0.00000     9.20480     0.00000  0.0
    170    177    178    196   5     0.00000     9.20480     0.00000  0.0
    206    208    207    209   5     0.00000    87.86400     0.00000  0.0
    207    210    209    217   5     0.00000    33.47200     0.00000  0.0
    209    211    210    232   5     0.00000     9.20480     0.00000  0.0
    210    212    211    233   5     0.00000     9.20480     0.00000  0.0
    211    213    212    216   5     0.00000    33.47200     0.00000  0.0
    212    214    213    215   5     0.00000    87.86400     0.00000  0.0
    212    217    216    234   5     0.00000     9.20480     0.00000  0.0
    209    216    217    235   5     0.00000     9.20480     0.00000  0.0
    245    247    246    248   5     0.00000    87.86400     0.00000  0.0
    246    249    248    256   5     0.00000    33.47200     0.00000  0.0
    248    250    249    271   5     0.00000     9.20480     0.00000  0.0
    249    251    250    272   5     0.00000     9.20480     0.00000  0.0
    250    252    251    255   5     0.00000    33.47200     0.00000  0.0
    251    253    252    254   5     0.00000    87.86400     0.00000  0.0
    251    256    255    273   5     0.00000     9.20480     0.00000  0.0
    248    255    256    274   5     0.00000     9.20480     0.00000  0.0
    284    286    285    287   5     0.00000    87.86400     0.00000  0.0
    285    288    287    295   5     0.00000    33.47200     0.00000  0.0
    287    289    288    310   5     0.00000     9.20480     0.00000  0.0
    288    290    289    311   5     0.00000     9.20480     0.00000  0.0
    289    291    290    294   5     0.00000    33.47200     0.00000  0.0
    290    292    291    293   5     0.00000    87.86400     0.00000  0.0
    290    295    294    312   5     0.00000     9.20480     0.00000  0.0
    287    294    295    313   5     0.00000     9.20480     0.00000  0.0
    323    325    324    326   5     0.00000    87.86400     0.00000  0.0
    324    327    326    334   5     0.00000    33.47200     0.00000  0.0
    326    328    327    349   5     0.00000     9.20480     0.00000  0.0
    327    329    328    350   5     0.00000     9.20480     0.00000  0.0
    328    330    329    333   5     0.00000    33.47200     0.00000  0.0
    329    331    330    332   5     0.00000    87.86400     0.00000  0.0
    329    334    333    351   5     0.00000     9.20480     0.00000  0.0
    326    333    334    352   5     0.00000     9.20480     0.00000  0.0
    362    364    363    365   5     0.00000    87.86400     0.00000  0.0
    363    366    365    373   5     0.00000    33.47200     0.00000  0.0
    365    367    366    388   5     0.00000     9.20480     0.00000  0.0
    366    368    367    389   5     0.00000     9.20480     0.00000  0.0
    367    369    368    372   5     0.00000    33.47200     0.00000  0.0
    368    370    369    371   5     0.00000    87.86400     0.00000  0.0
    368    373    372    390   5     0.00000     9.20480     0.00000  0.0
    365    372    373    391   5     0.00000     9.20480     0.00000  0.0
    401    403    402    404   5     0.00000    87.86400     0.00000  0.0
    402    405    404    412   5     0.00000    33.47200     0.00000  0.0
    404    406    405    427   5     0.00000     9.20480     0.00000  0.0
    405    407    406    428   5     0.00000     9.20480     0.00000  0.0
    406    408    407    411   5     0.00000    33.47200     0.00000  0.0
    407    409    408    410   5     0.00000    87.86400     0.00000  0.0
    407    412    411    429   5     0.00000     9.20480     0.00000  0.0
    404    411    412    430   5     0.00000     9.20480     0.00000  0.0
    440    442    441    443   5     0.00000    87.86400     0.00000  0.0
    441    444    443    451   5     0.00000    33.47200     0.00000  0.0
    443    445    444    466   5     0.00000     9.20480     0.00000  0.0
    444    446    445    467   5     0.00000     9.20480     0.00000  0.0
    445    447    446    450   5     0.00000    33.47200     0.00000  0.0
    446    448    447    449   5     0.00000    87.86400     0.00000  0.0
    446    451    450    468   5     0.00000     9.20480     0.00000  0.0
    443    450    451    469   5     0.00000     9.20480     0.00000  0.0
    479    481    480    482   5     0.00000    87.86400     0.00000  0.0
    480    483    482    490   5     0.00000    33.47200     0.00000  0.0
    482    484    483    505   5     0.00000     9.20480     0.00000  0.0
    483    485    484    506   5     0.00000     9.20480     0.00000  0.0
    484    486    485    489   5     0.00000    33.47200     0.00000  0.0
    485    487    486    488   5     0.00000    87.86400     0.00000  0.0
    485    490    489    507   5     0.00000     9.20480     0.00000  0.0
    482    489    490    508   5     0.00000     9.20480     0.00000  0.0
    518    520    519    521   5     0.00000    87.86400     0.00000  0.0
    519    522    521    529   5     0.00000    33.47200     0.00000  0.0
    521    523    522    544   5     0.00000     9.20480     0.00000  0.0
    522    524    523    545   5     0.00000     9.20480     0.00000  0.0
    523    525    524    528   5     0.00000    33.47200     0.00000  0.0
    524    526    525    527   5     0.00000    87.86400     0.00000  0.0
    524    529    528    546   5     0.00000     9.20480     0.00000  0.0
    521    528    529    547   5     0.00000     9.20480     0.00000  0.0
    557    559    558    560   5     0.00000    87.86400     0.00000  0.0
    558    561    560    568   5     0.00000    33.47200     0.00000  0.0
    560    562    561    583   5     0.00000     9.20480     0.00000  0.0
    561    563    562    584   5     0.00000     9.20480     0.00000  0.0
    562    564    563    567   5     0.00000    33.47200     0.00000  0.0
    563    565    564    566   5     0.00000    87.86400     0.00000  0.0
    563    568    567    585   5     0.00000     9.20480     0.00000  0.0
    560    567    568    586   5     0.00000     9.20480     0.00000  0.0
    596    598    597    599   5     0.00000    87.86400     0.00000  0.0
    597    600    599    607   5     0.00000    33.47200     0.00000  0.0
    599    601    600    622   5     0.00000     9.20480     0.00000  0.0
    600    602    601    623   5     0.00000     9.20480     0.00000  0.0
    601    603    602    606   5     0.00000    33.47200     0.00000  0.0
    602    604    603    605   5     0.00000    87.86400     0.00000  0.0
    602    607    606    624   5     0.00000     9.20480     0.00000  0.0
    599    606    607    625   5     0.00000     9.20480     0.00000  0.0
    635    637    636    638   5     0.00000    87.86400     0.00000  0.0
    636    639    638    646   5     0.00000    33.47200     0.00000  0.0
    638    640    639    661   5     0.00000     9.20480     0.00000  0.0
    639    641    640    662   5     0.00000     9.20480     0.00000  0.0
    640    642    641    645   5     0.00000    33.47200     0.00000  0.0
    641    643    642    644   5     0.00000    87.86400     0.00000  0.0
    641    646    645    663   5     0.00000     9.20480     0.00000  0.0
    638    645    646    664   5     0.00000     9.20480     0.00000  0.0
    674    676    675    677   5     0.00000    87.86400     0.00000  0.0
    675    678    677    685   5     0.00000    33.47200     0.00000  0.0
    677    679    678    700   5     0.00000     9.20480     0.00000  0.0
    678    680    679    701   5     0.00000     9.20480     0.00000  0.0
    679    681    680    684   5     0.00000    33.47200     0.00000  0.0
    680    682    681    683   5     0.00000    87.86400     0.00000  0.0
    680    685    684    702   5     0.00000     9.20480     0.00000  0.0
    677    684    685    703   5     0.00000     9.20480     0.00000  0.0
    713    715    714    716   5     0.00000    87.86400     0.00000  0.0
    714    717    716    724   5     0.00000    33.47200     0.00000  0.0
    716    718    717    739   5     0.00000     9.20480     0.00000  0.0
    717    719    718    740   5     0.00000     9.20480     0.00000  0.0
    718    720    719    723   5     0.00000    33.47200     0.00000  0.0
    719    721    720    722   5     0.00000    87.86400     0.00000  0.0
    719    724    723    741   5     0.00000     9.20480     0.00000  0.0
    716    723    724    742   5     0.00000     9.20480     0.00000  0.0
    752    754    753    755   5     0.00000    87.86400     0.00000  0.0
    753    756    755    763   5     0.00000    33.47200     0.00000  0.0
    755    757    756    778   5     0.00000     9.20480     0.00000  0.0
    756    758    757    779   5     0.00000     9.20480     0.00000  0.0
    757    759    758    762   5     0.00000    33.47200     0.00000  0.0
    758    760    759    761   5     0.00000    87.86400     0.00000  0.0
    758    763    762    780   5     0.00000     9.20480     0.00000  0.0
    755    762    763    781   5     0.00000     9.20480     0.00000  0.0
